Title
82293
    1SAPS     N    1   6.428   6.462  10.906  0.2723 -0.0666 -0.4146
    1SAPS   HN1    2   6.370   6.545  10.928 -1.0873 -1.2845  0.7421
    1SAPS   HN2    3   6.488   6.479  10.822  0.6831 -0.2759 -0.1676
    1SAPS   HN3    4   6.369   6.377  10.890  0.7992 -0.5332  0.0870
    1SAPS   C12    5   6.517   6.445  11.019 -0.0098 -0.7637  0.5533
    1SAPS  H12A    6   6.571   6.538  11.028  0.8986 -1.2513  0.3055
    1SAPS   C13    7   6.457   6.409  11.151  0.3867 -0.2121  0.4862
    1SAPS  O13A    8   6.336   6.404  11.164  0.4238 -1.0805  0.1896
    1SAPS  O13B    9   6.538   6.409  11.250  0.1793  0.2867 -0.6099
    1SAPS   C11   10   6.620   6.328  10.990  0.5589 -0.1069 -0.3118
    1SAPS  H11A   11   6.694   6.314  11.071 -0.6605  0.5682  0.9770
    1SAPS  H11B   12   6.674   6.367  10.901  1.1486 -0.6962 -0.2088
    1SAPS     P   13   6.618   6.092  10.873  0.2458  0.1527  0.1801
    1SAPS   O13   14   6.747   6.061  10.933  0.0982  0.3591  0.6499
    1SAPS   O14   15   6.513   5.988  10.871 -0.3662  0.2695 -0.2872
    1SAPS   O12   16   6.549   6.211  10.949 -0.1261  0.1842  0.1615
    1SAPS   O11   17   6.641   6.164  10.730  0.1360  0.2038 -0.0680
    1SAPS    C1   18   6.530   6.176  10.636  0.0852 -0.3724  0.8001
    1SAPS    HA   19   6.443   6.113  10.664 -0.2139 -1.2569 -1.8425
    1SAPS    HB   20   6.488   6.279  10.629  0.8857 -0.0960 -0.4081
    1SAPS    C2   21   6.557   6.109  10.497 -0.0992  0.6403 -0.3623
    1SAPS    HS   22   6.658   6.134  10.458 -1.3200  1.3793 -3.3297
    1SAPS   O21   23   6.463   6.161  10.405  0.6023  0.3202 -0.3202
    1SAPS   C21   24   6.492   6.281  10.361  0.3823  0.2231  0.0560
    1SAPS   O22   25   6.593   6.341  10.377  0.3058  0.3225  0.0461
    1SAPS   C22   26   6.358   6.341  10.299 -0.5549  0.0654  0.9168
    1SAPS   H2R   27   6.304   6.377  10.389  1.6048  0.0898  2.2647
    1SAPS   H2S   28   6.394   6.432  10.246 -1.5224 -0.9984 -1.7575
    1SAPS    C3   29   6.543   5.954  10.503 -0.6224  0.9035  0.1578
    1SAPS    HX   30   6.441   5.928  10.539 -0.5995  1.6331  0.7892
    1SAPS    HY   31   6.602   5.919  10.590 -2.4263  0.7960  1.3913
    1SAPS   O31   32   6.588   5.880  10.387  0.1878  0.8839 -0.1735
    1SAPS   C31   33   6.715   5.877  10.364 -0.6632  0.3959  0.2430
    1SAPS   O32   34   6.804   5.938  10.417 -0.3509 -0.4812 -0.1447
    1SAPS   C32   35   6.734   5.769  10.261 -0.3417 -0.5302  0.0192
    1SAPS   H2X   36   6.707   5.808  10.160 -1.1726 -1.4183 -0.1193
    1SAPS   H2Y   37   6.661   5.687  10.278  1.0535 -2.2087 -1.6565
    1SAPS   C23   38   6.261   6.249  10.208 -0.5347 -0.3641  0.1185
    1SAPS   H3R   39   6.167   6.304  10.187 -0.6185 -0.0734  1.1878
    1SAPS   H3S   40   6.247   6.153  10.263  1.5752 -0.0907  1.2475
    1SAPS   C24   41   6.335   6.213  10.073 -0.3895 -0.0993 -0.4409
    1SAPS   H4R   42   6.270   6.140  10.020 -1.8810  2.1368 -1.8752
    1SAPS   H4S   43   6.434   6.172  10.102  0.4197  0.9212 -1.6914
    1SAPS   C25   44   6.350   6.333   9.980 -0.2316  0.3547 -0.4817
    1SAPS   H5R   45   6.283   6.419   9.993  1.1206  1.4046 -0.1429
    1SAPS   C26   46   6.451   6.349   9.888  0.7169 -0.2801  0.2043
    1SAPS   H6R   47   6.465   6.448   9.844  2.2841  0.1545  1.5588
    1SAPS   C27   48   6.550   6.246   9.848  0.5192  0.1417 -0.2356
    1SAPS   H7R   49   6.524   6.219   9.743 -1.9976  0.0091  0.3587
    1SAPS   H7S   50   6.547   6.152   9.907  0.5510  0.3323  0.0664
    1SAPS   C28   51   6.693   6.295   9.859 -0.1291 -0.0653 -0.4881
    1SAPS   H8R   52   6.728   6.302   9.964 -0.4959  0.3876 -0.3937
    1SAPS   C29   53   6.765   6.358   9.767 -0.4706  0.0594 -0.5658
    1SAPS   H9R   54   6.867   6.390   9.794  0.6146 -4.1134  1.0722
    1SAPS  C210   55   6.724   6.385   9.624  0.6699 -0.6225 -0.7664
    1SAPS  H10R   56   6.744   6.491   9.599 -0.7737 -0.5872 -1.9511
    1SAPS  H10S   57   6.614   6.372   9.611  0.1603 -0.6316  2.6516
    1SAPS  C211   58   6.795   6.297   9.524  0.3357 -0.1449  0.1644
    1SAPS  H11R   59   6.894   6.265   9.560  0.7360  0.0108 -0.7838
    1SAPS  C212   60   6.753   6.250   9.402 -0.7488 -0.5836 -0.0759
    1SAPS  H12R   61   6.826   6.193   9.343  1.8660  0.8898  1.5322
    1SAPS  C213   62   6.637   6.286   9.318  0.4423 -0.6285  0.3256
    1SAPS  H13R   63   6.580   6.366   9.371  1.2450 -0.1093  0.4166
    1SAPS  H13S   64   6.563   6.203   9.317 -2.4162  1.7345  1.3487
    1SAPS  C214   65   6.645   6.335   9.181  0.9879  0.2581 -0.0517
    1SAPS  H14R   66   6.611   6.438   9.162 -0.4757 -0.5662 -2.2214
    1SAPS  C215   67   6.686   6.262   9.078  0.5152  0.5005 -0.1370
    1SAPS  H15R   68   6.679   6.305   8.977 -3.2757  1.1464  0.2632
    1SAPS  C216   69   6.730   6.122   9.078  0.1293 -0.2344 -0.0141
    1SAPS  H16R   70   6.659   6.065   9.014  1.1831  1.4596 -2.8595
    1SAPS  H16S   71   6.717   6.076   9.178 -0.9526  0.1992  0.0511
    1SAPS  C217   72   6.877   6.104   9.023 -0.0678  0.2710  0.3570
    1SAPS  H17R   73   6.904   5.996   9.019 -1.5514 -0.0842 -0.8817
    1SAPS  H17S   74   6.942   6.142   9.105  2.0969 -0.5555 -0.8865
    1SAPS  C218   75   6.904   6.170   8.885  0.4025  0.2081  0.4246
    1SAPS  H18R   76   7.010   6.154   8.856  0.9146 -0.5250  2.4855
    1SAPS  H18S   77   6.876   6.277   8.893 -0.0614  0.0174  1.5036
    1SAPS  C219   78   6.822   6.110   8.769  0.9540 -0.1938  0.4828
    1SAPS  H19R   79   6.714   6.112   8.792  0.8198 -1.9114  0.0810
    1SAPS  H19S   80   6.842   6.001   8.763 -2.4325 -0.8505 -1.3319
    1SAPS  C220   81   6.851   6.170   8.636 -0.0274 -0.0089  0.3024
    1SAPS  H20R   82   6.823   6.277   8.633 -1.0190 -0.1621  2.1101
    1SAPS  H20S   83   6.790   6.111   8.564 -0.4225 -1.3836  1.6917
    1SAPS  H20T   84   6.958   6.162   8.607  0.0224 -1.0283  0.7221
    1SAPS   C33   85   6.875   5.718  10.276 -0.4030 -0.8254  0.5868
    1SAPS   H3X   86   6.877   5.681  10.381  0.3718  1.3014  1.3616
    1SAPS   H3Y   87   6.952   5.797  10.268 -2.1667  0.8772 -0.7722
    1SAPS   C34   88   6.900   5.596  10.190 -0.4751 -0.5838 -0.2817
    1SAPS   H4X   89   6.821   5.522  10.210  0.8739 -2.4154 -1.4070
    1SAPS   H4Y   90   6.992   5.554  10.236  1.8095  3.3316 -0.8202
    1SAPS   C35   91   6.918   5.628  10.043 -0.0660 -0.0928  0.4762
    1SAPS   H5X   92   6.998   5.705  10.051 -1.3752  1.1023  5.0438
    1SAPS   H5Y   93   6.826   5.678  10.007  0.1317 -0.2096 -0.1932
    1SAPS   C36   94   6.950   5.502   9.962 -0.0929  0.3643  0.6727
    1SAPS   H6X   95   6.876   5.420   9.977  2.5110 -2.2880  0.1150
    1SAPS   H6Y   96   7.042   5.459  10.008 -0.2723  0.4986  1.1565
    1SAPS   C37   97   6.954   5.536   9.815 -0.6155  0.8483 -0.1919
    1SAPS   H7X   98   7.035   5.606   9.787 -1.1625  0.6979 -2.3288
    1SAPS   H7Y   99   6.869   5.601   9.785  0.4099  1.4719 -1.8782
    1SAPS   C38  100   6.972   5.409   9.727  0.1154 -0.0722 -0.4563
    1SAPS   H8X  101   6.893   5.337   9.757  1.5027 -1.7892 -0.7757
    1SAPS   H8Y  102   7.063   5.360   9.767 -1.0219 -0.2518  2.1105
    1SAPS   C39  103   6.952   5.425   9.578 -0.2975  0.5780  0.2587
    1SAPS   H9X  104   7.012   5.516   9.556  1.2928 -0.2085  1.1839
    1SAPS   H9Y  105   6.843   5.440   9.558 -0.3850  1.0902  1.0353
    1SAPS  C310  106   7.005   5.306   9.493 -0.1477  0.3660 -0.4684
    1SAPS  H10X  107   6.944   5.214   9.506 -0.7259  0.8142  0.0767
    1SAPS  H10Y  108   7.108   5.274   9.519  0.2391 -0.4069 -2.8024
    1SAPS  C311  109   7.019   5.331   9.341 -0.4093 -0.1012 -0.2396
    1SAPS  H11X  110   7.088   5.415   9.320  0.2803 -0.4357  0.6623
    1SAPS  H11Y  111   6.918   5.360   9.303 -0.2168 -1.0133 -1.5161
    1SAPS  C312  112   7.061   5.210   9.261  0.0303  1.1387  0.4722
    1SAPS  H12X  113   7.008   5.119   9.297  1.0453  0.0071 -0.7887
    1SAPS  H12Y  114   7.167   5.181   9.273 -0.0190  0.7484 -0.0148
    1SAPS  C313  115   7.042   5.241   9.110  0.6572 -0.2817  0.1433
    1SAPS  H13X  116   7.095   5.336   9.089  0.7349 -0.1148  1.0263
    1SAPS  H13Y  117   6.931   5.249   9.099  0.7152 -0.5037 -0.6181
    1SAPS  C314  118   7.091   5.129   9.017  0.0529  0.2904  0.0548
    1SAPS  H14X  119   7.029   5.037   9.027 -0.7447  0.4003 -2.9472
    1SAPS  H14Y  120   7.198   5.104   9.034 -0.1553 -0.8140 -0.1523
    1SAPS  C315  121   7.061   5.150   8.864 -0.3610 -0.2048  0.8577
    1SAPS  H15X  122   6.952   5.162   8.842  0.2915  0.5676 -2.7060
    1SAPS  H15Y  123   7.092   5.053   8.819  0.0139 -0.4912  1.7158
    1SAPS  C316  124   7.147   5.263   8.799  0.5475 -0.0022 -0.2577
    1SAPS  H16X  125   7.108   5.364   8.825  2.7248  0.2940  2.2660
    1SAPS  H16Y  126   7.149   5.269   8.688  0.6119 -2.0947 -0.4026
    1SAPS  C317  127   7.301   5.276   8.832  0.0221  0.2943 -0.0623
    1SAPS  H17X  128   7.309   5.294   8.942 -0.1769 -0.4852  0.0869
    1SAPS  H17Y  129   7.345   5.361   8.776  1.0960  1.4245  2.3175
    1SAPS  C318  130   7.389   5.151   8.799  0.5673 -0.0332  0.8189
    1SAPS  H18X  131   7.377   5.076   8.880  1.4939 -0.2748  0.7516
    1SAPS  H18Y  132   7.499   5.171   8.792  0.9599 -2.1187  0.4298
    1SAPS  H18Z  133   7.366   5.112   8.698  2.9072  1.1647 -0.2679
    2SAPS     N  134   4.516   6.785  10.887  0.1797  0.6418 -0.0759
    2SAPS   HN1  135   4.475   6.868  10.935 -1.5177 -1.3360  2.0748
    2SAPS   HN2  136   4.584   6.821  10.816 -0.8568  0.0206 -1.4246
    2SAPS   HN3  137   4.439   6.727  10.850 -1.0496  1.1037  1.6252
    2SAPS   C12  138   4.586   6.711  10.998  0.2348  0.0582  0.7728
    2SAPS  H12A  139   4.648   6.780  11.054 -2.3742  2.0064  1.4820
    2SAPS   C13  140   4.485   6.645  11.102 -0.4249  0.2701  0.5083
    2SAPS  O13A  141   4.359   6.647  11.080 -0.1178  0.6656 -0.3717
    2SAPS  O13B  142   4.524   6.591  11.209 -0.3150 -0.0275 -0.0654
    2SAPS   C11  143   4.672   6.595  10.940 -0.2635  0.3069 -0.5222
    2SAPS  H11A  144   4.608   6.515  10.897 -0.6402  0.2585  0.1202
    2SAPS  H11B  145   4.732   6.560  11.026  3.5822  2.6660 -1.9648
    2SAPS     P  146   4.757   6.612  10.690  0.4617  0.1723  0.0557
    2SAPS   O13  147   4.834   6.719  10.626  0.2766  0.4287  0.2399
    2SAPS   O14  148   4.792   6.469  10.674  0.3612 -0.2156  0.5816
    2SAPS   O12  149   4.762   6.649  10.844  0.2032  0.3291 -0.0032
    2SAPS   O11  150   4.605   6.633  10.657 -0.1615 -0.7939  0.0379
    2SAPS    C1  151   4.513   6.528  10.631  0.1825  0.0571  0.3154
    2SAPS    HA  152   4.552   6.424  10.637 -0.4897 -0.1477  1.4545
    2SAPS    HB  153   4.425   6.537  10.697 -1.1508 -0.3222 -1.3530
    2SAPS    C2  154   4.457   6.543  10.486 -0.1592 -0.4191 -0.6486
    2SAPS    HS  155   4.380   6.463  10.474 -0.9614  0.1280  0.6748
    2SAPS   O21  156   4.558   6.536  10.384 -0.3232  0.7939 -0.0931
    2SAPS   C21  157   4.593   6.407  10.344 -0.5483 -0.3008  0.4573
    2SAPS   O22  158   4.528   6.310  10.364  0.0395 -0.0211  0.0345
    2SAPS   C22  159   4.727   6.420  10.269  0.0340 -0.3081 -0.1592
    2SAPS   H2R  160   4.703   6.480  10.179  1.4200  1.1475  0.3968
    2SAPS   H2S  161   4.799   6.487  10.321 -1.3069 -0.2001  1.6251
    2SAPS    C3  162   4.377   6.680  10.479  0.5156  0.2870  0.0399
    2SAPS    HX  163   4.436   6.764  10.521 -0.1597  0.7059  0.1729
    2SAPS    HY  164   4.293   6.674  10.552 -1.6310 -0.9472 -2.3622
    2SAPS   O31  165   4.315   6.686  10.346  0.4410  0.4779 -0.8731
    2SAPS   C31  166   4.393   6.738  10.259  0.2779 -0.3306  0.2866
    2SAPS   O32  167   4.501   6.789  10.273 -0.2063 -0.2366 -0.1129
    2SAPS   C32  168   4.317   6.729  10.118 -0.5849 -0.3541 -0.6696
    2SAPS   H2X  169   4.234   6.803  10.123  0.0084  0.3611 -1.1062
    2SAPS   H2Y  170   4.268   6.630  10.112  2.6642 -2.0273 -1.4876
    2SAPS   C23  171   4.786   6.280  10.247  0.3590  0.4769  0.6062
    2SAPS   H3R  172   4.715   6.216  10.190 -1.7642  2.5783  0.7449
    2SAPS   H3S  173   4.808   6.228  10.342  1.2586  1.4545  0.9474
    2SAPS   C24  174   4.923   6.278  10.166  0.2951  0.2572 -0.1750
    2SAPS   H4R  175   4.994   6.321  10.240  0.3276 -2.6381  1.6521
    2SAPS   H4S  176   4.914   6.344  10.077  1.0559 -1.5703 -1.6839
    2SAPS   C25  177   4.989   6.149  10.123 -0.3893 -0.0246 -0.2142
    2SAPS   H5R  178   5.006   6.085  10.211 -0.5795 -0.1387 -0.2600
    2SAPS   C26  179   5.015   6.112   9.995  0.1077 -0.3588  0.1552
    2SAPS   H6R  180   5.062   6.013   9.986 -0.5805 -0.7422  0.6652
    2SAPS   C27  181   4.998   6.184   9.862  0.9815 -1.1854  0.5240
    2SAPS   H7R  182   5.089   6.172   9.801  1.5182 -1.3254  1.3306
    2SAPS   H7S  183   4.981   6.292   9.884  0.4837 -1.4629  1.5898
    2SAPS   C28  184   4.875   6.134   9.785  0.4626  0.0337 -0.3620
    2SAPS   H8R  185   4.785   6.119   9.847  1.9525 -0.1383  1.8491
    2SAPS   C29  186   4.859   6.120   9.653 -0.4186  0.4411 -0.0921
    2SAPS   H9R  187   4.769   6.070   9.613  2.5983 -4.1925 -1.9325
    2SAPS  C210  188   4.977   6.152   9.561 -0.5031 -0.4288 -0.1660
    2SAPS  H10R  189   5.063   6.093   9.598 -0.6236 -0.8431 -0.5454
    2SAPS  H10S  190   4.994   6.262   9.573 -2.7340 -0.2941  2.6985
    2SAPS  C211  191   4.940   6.119   9.419 -0.4648 -0.0882 -0.0305
    2SAPS  H11R  192   4.844   6.160   9.385  0.3249 -0.5122 -3.1377
    2SAPS  C212  193   5.008   6.047   9.325 -0.7885 -0.2566  0.0534
    2SAPS  H12R  194   4.958   6.035   9.228 -0.6744  1.3209 -0.2324
    2SAPS  C213  195   5.141   5.988   9.341 -0.1885  0.5150 -1.0644
    2SAPS  H13R  196   5.122   5.879   9.347  1.3130  0.3134  2.2801
    2SAPS  H13S  197   5.188   6.017   9.438 -1.4064  0.2671 -0.3712
    2SAPS  C214  198   5.228   6.042   9.230  0.9980  0.0571  0.0637
    2SAPS  H14R  199   5.278   6.138   9.250  1.2746 -0.4783  2.1581
    2SAPS  C215  200   5.267   5.988   9.116  0.2495  0.3330  0.3656
    2SAPS  H15R  201   5.326   6.045   9.043 -0.3638  0.0603 -0.3546
    2SAPS  C216  202   5.231   5.852   9.057  0.3835  0.9884 -0.5555
    2SAPS  H16R  203   5.138   5.859   8.997  1.2942  0.0739 -2.1376
    2SAPS  H16S  204   5.208   5.783   9.142  0.7339 -0.7496 -1.8167
    2SAPS  C217  205   5.337   5.783   8.968 -0.2510 -0.3707 -0.0576
    2SAPS  H17R  206   5.306   5.677   8.964 -1.0654 -0.2360  1.8049
    2SAPS  H17S  207   5.430   5.783   9.029  0.6312  2.0241 -1.2601
    2SAPS  C218  208   5.353   5.850   8.826 -0.3624 -0.4079 -0.2675
    2SAPS  H18R  209   5.370   5.958   8.846 -1.5789  0.2305 -2.3722
    2SAPS  H18S  210   5.256   5.852   8.772 -1.7207  1.3272  2.0280
    2SAPS  C219  211   5.467   5.785   8.743  0.4115 -0.3970  0.0384
    2SAPS  H19R  212   5.457   5.675   8.735 -0.1213 -0.2986 -0.7741
    2SAPS  H19S  213   5.558   5.799   8.806  1.2856 -1.4153 -0.9475
    2SAPS  C220  214   5.490   5.847   8.605 -0.7617 -0.7109  0.3693
    2SAPS  H20R  215   5.403   5.824   8.539 -2.2622 -1.0434  2.3694
    2SAPS  H20S  216   5.583   5.806   8.561 -1.1444 -0.3917 -0.7639
    2SAPS  H20T  217   5.496   5.956   8.625 -2.1143 -0.7330  1.0557
    2SAPS   C33  218   4.399   6.749   9.997 -0.3703 -0.1086  0.5440
    2SAPS   H3X  219   4.478   6.821  10.024  0.3288 -1.0262  1.0212
    2SAPS   H3Y  220   4.351   6.796   9.909  0.1530  2.3951  1.5277
    2SAPS   C34  221   4.460   6.610   9.943  0.0721  0.0519  0.5407
    2SAPS   H4X  222   4.378   6.537   9.958 -0.2524  0.2920  0.0024
    2SAPS   H4Y  223   4.535   6.581  10.019  0.8865  2.0532  0.5786
    2SAPS   C35  224   4.503   6.612   9.797  0.5444  0.5860  0.1266
    2SAPS   H5X  225   4.425   6.645   9.724  1.4367 -1.7580 -2.0695
    2SAPS   H5Y  226   4.517   6.503   9.780  0.1938  0.5600 -0.0124
    2SAPS   C36  227   4.626   6.699   9.761  0.3262 -0.2072 -0.4334
    2SAPS   H6X  228   4.695   6.707   9.847  0.5937  3.3226 -0.8354
    2SAPS   H6Y  229   4.582   6.800   9.744 -0.0295 -0.5792 -1.8774
    2SAPS   C37  230   4.699   6.652   9.640  0.2428  0.1106  0.9063
    2SAPS   H7X  231   4.751   6.558   9.669  1.7258  1.3165  2.3523
    2SAPS   H7Y  232   4.779   6.726   9.618 -1.7517  1.6085 -1.7168
    2SAPS   C38  233   4.609   6.636   9.520 -0.1026 -0.3588  0.2344
    2SAPS   H8X  234   4.579   6.738   9.488  0.2114  0.2841  1.8973
    2SAPS   H8Y  235   4.525   6.566   9.539 -2.5629  1.2908 -3.3871
    2SAPS   C39  236   4.676   6.580   9.389  0.6310  0.3214 -0.5839
    2SAPS   H9X  237   4.599   6.594   9.310 -1.3940 -1.9261  0.8542
    2SAPS   H9Y  238   4.697   6.471   9.398  1.1138  0.4818  0.4584
    2SAPS  C310  239   4.810   6.645   9.354  0.7775 -0.2790  0.5140
    2SAPS  H10X  240   4.891   6.631   9.429  1.0671 -0.4161  0.1831
    2SAPS  H10Y  241   4.796   6.754   9.339 -2.4039 -0.8872 -2.0771
    2SAPS  C311  242   4.877   6.604   9.216  0.0642  0.0365  0.0134
    2SAPS  H11X  243   4.890   6.494   9.224  0.5189  0.2321  2.5248
    2SAPS  H11Y  244   4.977   6.652   9.213  0.5079 -0.7962  0.9556
    2SAPS  C312  245   4.794   6.609   9.080  0.8264 -0.2466 -0.3531
    2SAPS  H12X  246   4.748   6.711   9.075 -0.7561 -0.9744 -1.6422
    2SAPS  H12Y  247   4.710   6.537   9.091  1.1861 -0.3990  1.7701
    2SAPS  C313  248   4.879   6.584   8.959 -0.8270 -0.0056 -0.3593
    2SAPS  H13X  249   4.960   6.659   8.967  0.9213 -1.6508 -1.5954
    2SAPS  H13Y  250   4.822   6.609   8.867 -1.2178  0.8216  0.0972
    2SAPS  C314  251   4.934   6.442   8.946 -0.6899 -0.3014 -0.5228
    2SAPS  H14X  252   5.012   6.431   9.025  1.5651 -1.4976 -2.7695
    2SAPS  H14Y  253   4.974   6.436   8.843  3.1202 -1.8139  0.8385
    2SAPS  C315  254   4.820   6.339   8.951 -0.0336  0.4684 -0.2980
    2SAPS  H15X  255   4.723   6.381   8.917  0.3302  0.4518 -1.3891
    2SAPS  H15Y  256   4.793   6.299   9.051 -1.7696 -1.3478 -1.4199
    2SAPS  C316  257   4.856   6.215   8.867 -0.0333  0.4038 -0.2401
    2SAPS  H16X  258   4.874   6.223   8.758  0.5221 -0.6135 -0.2372
    2SAPS  H16Y  259   4.758   6.162   8.873 -0.3780  0.7767 -2.0528
    2SAPS  C317  260   4.967   6.125   8.918  0.3761  0.0474  0.4755
    2SAPS  H17X  261   4.942   6.017   8.906  0.8347 -0.0406  0.3053
    2SAPS  H17Y  262   4.966   6.154   9.026 -1.5917  0.2818  0.4289
    2SAPS  C318  263   5.101   6.152   8.860 -0.7846 -0.4048 -0.1275
    2SAPS  H18X  264   5.153   6.245   8.890  0.0999 -0.4788 -1.3345
    2SAPS  H18Y  265   5.103   6.160   8.749 -0.4684 -1.1303 -0.1796
    2SAPS  H18Z  266   5.174   6.075   8.894  1.5383  2.2174  1.1347
    3SAPS     N  267   5.491   0.397  10.890  0.3110 -0.3492  0.0314
    3SAPS   HN1  268   5.404   0.452  10.905 -0.0302 -0.1003 -2.4122
    3SAPS   HN2  269   5.495   0.385  10.786 -1.4805 -0.0591 -0.0968
    3SAPS   HN3  270   5.489   0.299  10.924  0.0825 -0.5444 -0.5276
    3SAPS   C12  271   5.605   0.466  10.936 -1.0177 -0.3476  0.0970
    3SAPS  H12A  272   5.593   0.488  11.041 -0.0466 -0.9916  0.3521
    3SAPS   C13  273   5.740   0.391  10.926  0.1415 -0.0792  0.4268
    3SAPS  O13A  274   5.740   0.264  10.905  0.4947 -0.0110  0.2529
    3SAPS  O13B  275   5.833   0.453  10.975 -0.2731 -0.2462 -0.0808
    3SAPS   C11  276   5.614   0.604  10.868 -0.0966 -0.4587  0.1787
    3SAPS  H11A  277   5.635   0.594  10.760  1.0240 -0.5911  0.3979
    3SAPS  H11B  278   5.699   0.661  10.913  0.0369  1.6781 -2.5450
    3SAPS     P  279   5.489   0.823  10.847  0.3656 -0.4602  0.0723
    3SAPS   O13  280   5.344   0.863  10.857 -0.6562  0.0910  0.4243
    3SAPS   O14  281   5.583   0.896  10.933  0.1353  0.3262 -0.5004
    3SAPS   O12  282   5.488   0.673  10.892  0.9697  0.4737  0.5137
    3SAPS   O11  283   5.528   0.835  10.694  0.7866 -0.0693  0.1790
    3SAPS    C1  284   5.449   0.760  10.603  0.0865 -0.0301 -0.1762
    3SAPS    HA  285   5.411   0.666  10.647  0.3123 -0.0738 -0.0716
    3SAPS    HB  286   5.360   0.818  10.572  0.3515 -0.3297 -1.5799
    3SAPS    C2  287   5.522   0.725  10.470 -0.0133  0.1295 -0.4523
    3SAPS    HS  288   5.594   0.650  10.509  0.2650  0.3495 -0.5390
    3SAPS   O21  289   5.600   0.837  10.430  0.8057 -0.3333 -0.3335
    3SAPS   C21  290   5.710   0.814  10.377 -0.8033 -0.1413 -0.2799
    3SAPS   O22  291   5.764   0.701  10.364 -0.0587 -0.1609 -0.5353
    3SAPS   C22  292   5.780   0.945  10.331  0.6074 -0.0114 -0.6325
    3SAPS   H2R  293   5.706   1.027  10.324  0.5152  0.3266  2.7909
    3SAPS   H2S  294   5.856   0.968  10.409  0.1474  1.6153 -0.6287
    3SAPS    C3  295   5.431   0.669  10.354  0.0529 -0.7946 -0.5718
    3SAPS    HX  296   5.360   0.749  10.324 -0.5151 -1.4363 -0.9619
    3SAPS    HY  297   5.365   0.586  10.387 -1.3635  0.1462 -0.9472
    3SAPS   O31  298   5.507   0.636  10.231 -0.1669  0.2238 -0.1052
    3SAPS   C31  299   5.563   0.510  10.237 -0.6611 -0.5229  0.2087
    3SAPS   O32  300   5.567   0.440  10.334 -0.3633  0.3844  0.0921
    3SAPS   C32  301   5.623   0.473  10.096 -0.3849 -0.3141 -0.1075
    3SAPS   H2X  302   5.721   0.524  10.086 -0.3794 -0.1981  0.5121
    3SAPS   H2Y  303   5.554   0.516  10.019 -1.5375 -2.7736 -0.5532
    3SAPS   C23  304   5.854   0.927  10.201 -0.6443 -0.7168  0.1571
    3SAPS   H3R  305   5.913   0.834  10.213 -1.9253 -1.9824 -2.4304
    3SAPS   H3S  306   5.933   1.005  10.198  0.1436 -1.5035  0.0549
    3SAPS   C24  307   5.774   0.927  10.068  0.3782  0.1379  0.9226
    3SAPS   H4R  308   5.701   0.844  10.073 -2.6804  2.5114 -1.0052
    3SAPS   H4S  309   5.842   0.896   9.986 -0.0062  2.0187 -0.1581
    3SAPS   C25  310   5.695   1.045  10.027  0.6458  0.2204  0.2537
    3SAPS   H5R  311   5.641   1.085  10.115  1.5261 -0.6296  1.2121
    3SAPS   C26  312   5.673   1.100   9.912  0.0728  0.1514 -0.2940
    3SAPS   H6R  313   5.612   1.192   9.909  0.9657  0.7413 -2.3375
    3SAPS   C27  314   5.739   1.067   9.778 -0.0447  0.0104  0.7496
    3SAPS   H7R  315   5.702   1.139   9.701  0.4931 -1.5172 -0.9976
    3SAPS   H7S  316   5.706   0.964   9.755  1.2804  0.0100 -1.4283
    3SAPS   C28  317   5.892   1.067   9.773  0.2307 -0.5217  0.3624
    3SAPS   H8R  318   5.946   1.040   9.865 -2.5458 -0.9372  1.9977
    3SAPS   C29  319   5.964   1.113   9.670  0.3600 -0.3706  0.4942
    3SAPS   H9R  320   6.072   1.103   9.684  0.0143 -0.0768  4.9030
    3SAPS  C210  321   5.914   1.176   9.540  0.5465  0.4925 -0.6257
    3SAPS  H10R  322   5.835   1.245   9.577  0.2497 -0.7537  1.1932
    3SAPS  H10S  323   5.870   1.101   9.471  1.4756  0.2884 -1.0134
    3SAPS  C211  324   6.015   1.248   9.450  0.4260 -0.7368 -0.1890
    3SAPS  H11R  325   6.069   1.186   9.377 -0.7977  0.4824 -2.2402
    3SAPS  C212  326   6.049   1.380   9.463 -0.2617  0.3306  0.6545
    3SAPS  H12R  327   6.125   1.427   9.400  0.0560 -2.4824 -1.2479
    3SAPS  C213  328   5.985   1.469   9.558 -0.4834  0.0511  0.2601
    3SAPS  H13R  329   6.031   1.450   9.658 -1.3120  2.8774  1.3049
    3SAPS  H13S  330   5.877   1.445   9.569 -0.3635  0.0103  1.5822
    3SAPS  C214  331   6.004   1.615   9.527 -0.6393 -0.2942 -0.4429
    3SAPS  H14R  332   5.908   1.658   9.494 -1.4499 -0.5894  1.3862
    3SAPS  C215  333   6.107   1.703   9.534 -0.5750  0.6341  0.0862
    3SAPS  H15R  334   6.086   1.805   9.500 -1.6824  0.5287  0.4409
    3SAPS  C216  335   6.240   1.665   9.599  0.0225 -0.3378  0.0568
    3SAPS  H16R  336   6.318   1.676   9.520  0.9373 -1.2917  0.8074
    3SAPS  H16S  337   6.239   1.564   9.646 -1.5149  0.1088  1.0573
    3SAPS  C217  338   6.284   1.756   9.722 -0.0146  0.2630  0.0615
    3SAPS  H17R  339   6.216   1.730   9.807  1.2607  1.0381  1.3670
    3SAPS  H17S  340   6.291   1.861   9.688  3.6191 -0.1265 -0.8241
    3SAPS  C218  341   6.434   1.723   9.762  0.4887 -0.2526 -0.1310
    3SAPS  H18R  342   6.491   1.700   9.669 -2.1630  0.6144 -2.0953
    3SAPS  H18S  343   6.450   1.640   9.834  3.0957 -0.1778 -0.5101
    3SAPS  C219  344   6.495   1.849   9.822  0.4059  0.5669  0.3006
    3SAPS  H19R  345   6.478   1.936   9.756 -0.7296  0.3144  0.2433
    3SAPS  H19S  346   6.605   1.836   9.832  0.1668 -3.8213 -0.7570
    3SAPS  C220  347   6.440   1.885   9.958  0.0100 -0.0805 -0.1538
    3SAPS  H20R  348   6.507   1.963   9.998 -1.0034 -0.2423  2.0859
    3SAPS  H20S  349   6.431   1.798  10.028  0.3447 -0.3684 -0.4657
    3SAPS  H20T  350   6.340   1.933   9.948 -0.0216  0.0231  0.5565
    3SAPS   C33  351   5.642   0.324  10.076 -0.1290  0.2615 -0.4762
    3SAPS   H3X  352   5.541   0.282  10.091 -0.9296  1.7186 -1.5374
    3SAPS   H3Y  353   5.702   0.272  10.154  1.0457  1.8035 -0.3093
    3SAPS   C34  354   5.679   0.287   9.932 -0.4738  0.2149 -0.3206
    3SAPS   H4X  355   5.781   0.330   9.919 -1.1920  1.4490 -2.2366
    3SAPS   H4Y  356   5.616   0.346   9.863 -0.8769 -0.9676 -0.9820
    3SAPS   C35  357   5.679   0.140   9.892 -0.1265  0.4016  0.3393
    3SAPS   H5X  358   5.575   0.101   9.887  0.0564  0.0522 -2.4679
    3SAPS   H5Y  359   5.735   0.072   9.959  0.0361  1.8159  1.6966
    3SAPS   C36  360   5.748   0.118   9.753  0.3446 -0.2139 -0.1131
    3SAPS   H6X  361   5.755   0.012   9.721 -0.9367 -0.9968  1.9466
    3SAPS   H6Y  362   5.848   0.167   9.752  0.2944 -0.1176 -0.4492
    3SAPS   C37  363   5.661   0.177   9.644 -0.0500 -0.4902 -0.4262
    3SAPS   H7X  364   5.704   0.279   9.640  2.8282 -1.5920  0.2514
    3SAPS   H7Y  365   5.558   0.194   9.683  0.8876  3.9721  0.6565
    3SAPS   C38  366   5.683   0.126   9.498 -0.1822 -0.0071  0.6088
    3SAPS   H8X  367   5.660   0.017   9.501 -0.0219 -0.2223 -2.5991
    3SAPS   H8Y  368   5.791   0.129   9.474 -0.4102  0.5502 -0.3888
    3SAPS   C39  369   5.599   0.203   9.387 -0.5251 -0.3282 -0.3542
    3SAPS   H9X  370   5.639   0.307   9.382 -1.1141 -0.0010  1.3030
    3SAPS   H9Y  371   5.490   0.199   9.408 -0.7319  0.8821 -1.1183
    3SAPS  C310  372   5.616   0.134   9.256 -0.2030 -0.1881 -0.5465
    3SAPS  H10X  373   5.591   0.026   9.257 -1.5018  0.0793  1.4147
    3SAPS  H10Y  374   5.723   0.146   9.227 -0.6566  1.0887 -1.8034
    3SAPS  C311  375   5.533   0.201   9.145 -0.2407  0.0767 -0.4887
    3SAPS  H11X  376   5.429   0.214   9.183  0.0017  0.7596 -0.0518
    3SAPS  H11Y  377   5.532   0.127   9.062 -1.2424 -1.2490  0.6603
    3SAPS  C312  378   5.591   0.343   9.100  0.2978  0.2676  0.9284
    3SAPS  H12X  379   5.699   0.334   9.127  0.6548  0.2553 -0.4167
    3SAPS  H12Y  380   5.562   0.428   9.165  3.6812  0.3984  2.4864
    3SAPS  C313  381   5.582   0.384   8.950 -0.0674 -0.3121 -0.0461
    3SAPS  H13X  382   5.479   0.358   8.918  0.5050 -2.0401 -0.5836
    3SAPS  H13Y  383   5.658   0.338   8.882 -0.2377  1.2486 -1.3649
    3SAPS  C314  384   5.592   0.537   8.941 -0.1043 -0.4550 -0.2262
    3SAPS  H14X  385   5.686   0.576   8.985 -1.0441 -1.5558  3.1154
    3SAPS  H14Y  386   5.508   0.583   8.998 -0.4200  0.1789 -1.1806
    3SAPS  C315  387   5.590   0.569   8.791  0.7583  0.6364 -0.7005
    3SAPS  H15X  388   5.498   0.529   8.743  0.5382 -0.3231  0.4782
    3SAPS  H15Y  389   5.681   0.521   8.748 -0.1166 -0.7077 -1.1031
    3SAPS  C316  390   5.597   0.717   8.765 -0.5066  0.1196  0.1579
    3SAPS  H16X  391   5.651   0.740   8.670  2.2954  1.3104  1.8967
    3SAPS  H16Y  392   5.683   0.758   8.822 -0.3882 -0.1768  0.1927
    3SAPS  C317  393   5.468   0.800   8.753 -0.6819 -0.0910 -0.7558
    3SAPS  H17X  394   5.439   0.823   8.858  1.1874 -1.2549  0.0666
    3SAPS  H17Y  395   5.385   0.748   8.701 -0.4175 -0.6499 -0.6216
    3SAPS  C318  396   5.502   0.933   8.684 -0.0023  0.0937 -0.0528
    3SAPS  H18X  397   5.420   1.008   8.691  0.3914  0.4919  0.2859
    3SAPS  H18Y  398   5.514   0.909   8.576  2.9620 -1.0761  0.4455
    3SAPS  H18Z  399   5.596   0.981   8.717  0.5144 -0.4935 -0.6452
    4SAPS     N  400   0.646   0.586  10.923 -0.6278  0.1933 -0.3036
    4SAPS   HN1  401   0.648   0.482  10.922 -0.3399  0.1694  1.1344
    4SAPS   HN2  402   0.651   0.625  11.019  2.7957  0.3541 -0.4209
    4SAPS   HN3  403   0.552   0.611  10.887 -0.0397  0.0194 -2.0601
    4SAPS   C12  404   0.758   0.658  10.844 -0.0247 -0.1574 -0.3735
    4SAPS  H12A  405   0.729   0.761  10.859 -0.7093 -0.6947  2.4518
    4SAPS   C13  406   0.900   0.629  10.899 -0.1890 -0.1822  0.6384
    4SAPS  O13A  407   0.919   0.568  11.005 -0.4107  0.4326  0.1528
    4SAPS  O13B  408   0.996   0.670  10.829 -0.1326  0.1991 -0.0768
    4SAPS   C11  409   0.751   0.622  10.693  0.1845 -0.3143 -0.6291
    4SAPS  H11A  410   0.787   0.519  10.671  2.5005 -0.3378  2.6722
    4SAPS  H11B  411   0.832   0.682  10.647  0.0061  1.2517  0.9941
    4SAPS     P  412   0.588   0.772  10.560  0.0918  0.6843 -0.1413
    4SAPS   O13  413   0.453   0.772  10.502  0.8211  0.1741  0.6088
    4SAPS   O14  414   0.606   0.885  10.651 -0.8551  0.2403 -0.6079
    4SAPS   O12  415   0.620   0.633  10.631 -0.5625  0.2701 -0.0157
    4SAPS   O11  416   0.691   0.774  10.446  0.3915 -0.6358  0.2753
    4SAPS    C1  417   0.696   0.667  10.353  0.1310  0.1528  0.3317
    4SAPS    HA  418   0.795   0.618  10.358  0.2948  0.3088 -1.0516
    4SAPS    HB  419   0.612   0.595  10.366 -0.0968  0.2868 -0.3606
    4SAPS    C2  420   0.699   0.739  10.202 -0.5094  0.4872 -0.3124
    4SAPS    HS  421   0.700   0.661  10.123  1.6098  0.4618 -0.3240
    4SAPS   O21  422   0.827   0.809  10.197 -0.2147  0.0779  0.1470
    4SAPS   C21  423   0.903   0.803  10.091 -0.0621 -0.0187  0.2700
    4SAPS   O22  424   0.878   0.732   9.994 -0.3615 -0.6958  0.0702
    4SAPS   C22  425   1.024   0.895  10.099  0.7417 -0.2549 -0.0433
    4SAPS   H2R  426   1.017   0.945  10.198 -1.4412 -2.0720  0.8074
    4SAPS   H2S  427   1.125   0.850  10.110  1.1202  0.4376 -0.5358
    4SAPS    C3  428   0.587   0.839  10.176  0.5717 -0.2101  0.1898
    4SAPS    HX  429   0.566   0.907  10.260  0.2288 -0.8651  0.6466
    4SAPS    HY  430   0.495   0.778  10.166 -0.5038  1.5998 -1.7043
    4SAPS   O31  431   0.607   0.925  10.061  0.0815 -0.7181  0.7454
    4SAPS   C31  432   0.602   0.872   9.938 -0.2681  0.5997 -0.3748
    4SAPS   O32  433   0.551   0.761   9.910  0.2377  0.5296  0.3656
    4SAPS   C32  434   0.662   0.966   9.832  0.2625  0.0874  1.0001
    4SAPS   H2X  435   0.769   0.989   9.852 -0.7268  4.4959  2.5030
    4SAPS   H2Y  436   0.606   1.062   9.832  1.0418  0.5884 -1.2204
    4SAPS   C23  437   1.027   0.998   9.984 -0.0574 -0.1954 -0.1715
    4SAPS   H3R  438   1.108   1.067  10.015 -0.0657  0.8330 -2.2668
    4SAPS   H3S  439   0.933   1.053   9.966  0.5954  0.3838 -2.0745
    4SAPS   C24  440   1.074   0.936   9.849  0.7301 -0.4802  0.3614
    4SAPS   H4R  441   0.988   0.880   9.805  0.8518 -1.3739  1.2349
    4SAPS   H4S  442   1.156   0.862   9.854  2.0359  1.0028  2.2923
    4SAPS   C25  443   1.099   1.045   9.749 -0.1273 -0.1600 -0.5227
    4SAPS   H5R  444   1.099   1.149   9.784  1.0489 -1.3988  3.8012
    4SAPS   C26  445   1.115   1.026   9.619 -0.0697 -0.1291 -0.4376
    4SAPS   H6R  446   1.136   1.114   9.556  1.8429 -1.1392 -1.2893
    4SAPS   C27  447   1.104   0.892   9.544  0.0282  0.3119  0.1494
    4SAPS   H7R  448   1.078   0.921   9.440 -0.6392 -0.4209  0.1000
    4SAPS   H7S  449   1.017   0.831   9.578 -1.3804  1.6034 -0.9925
    4SAPS   C28  450   1.224   0.811   9.579 -0.2556 -0.0485 -0.5970
    4SAPS   H8R  451   1.257   0.807   9.684 -0.3112  0.7759 -0.5453
    4SAPS   C29  452   1.313   0.753   9.498  0.6492  0.0597 -0.0711
    4SAPS   H9R  453   1.388   0.684   9.540 -0.1628 -0.2475  0.9149
    4SAPS  C210  454   1.321   0.734   9.347 -0.2089  0.2122  0.8685
    4SAPS  H10R  455   1.384   0.646   9.320 -1.4797 -0.6092  0.4940
    4SAPS  H10S  456   1.385   0.816   9.308 -1.9026  1.6220  0.9186
    4SAPS  C211  457   1.198   0.707   9.263  0.5413 -0.3956 -0.5108
    4SAPS  H11R  458   1.098   0.727   9.305  0.6768 -0.0220 -0.3603
    4SAPS  C212  459   1.196   0.655   9.146 -0.1512  0.2222  0.5306
    4SAPS  H12R  460   1.099   0.649   9.094 -0.3392 -0.4600  0.9417
    4SAPS  C213  461   1.312   0.616   9.053  0.2229 -0.1578 -0.1669
    4SAPS  H13R  462   1.274   0.534   8.989  0.9444 -0.8427  0.2600
    4SAPS  H13S  463   1.384   0.559   9.116 -0.2921 -0.8910 -0.2361
    4SAPS  C214  464   1.376   0.738   8.982 -0.2545  0.6705  0.3582
    4SAPS  H14R  465   1.375   0.832   9.039 -0.8879  0.3553  0.8690
    4SAPS  C215  466   1.457   0.723   8.868  0.4321 -0.3851 -0.3090
    4SAPS  H15R  467   1.497   0.814   8.822  0.8890  1.3636  3.1773
    4SAPS  C216  468   1.483   0.597   8.792 -0.0615  0.3914  0.5255
    4SAPS  H16R  469   1.505   0.514   8.862  2.2523  1.3972  1.0639
    4SAPS  H16S  470   1.581   0.607   8.740 -0.6570  0.5975 -0.5972
    4SAPS  C217  471   1.383   0.562   8.674  0.6805  0.0472  0.5432
    4SAPS  H17R  472   1.288   0.526   8.719 -0.1571  0.8435 -0.5343
    4SAPS  H17S  473   1.432   0.476   8.624 -1.1118  0.9385 -3.0477
    4SAPS  C218  474   1.365   0.681   8.569 -0.1486  0.2122 -0.3395
    4SAPS  H18R  475   1.473   0.696   8.548  0.5893 -1.0333  2.1684
    4SAPS  H18S  476   1.324   0.769   8.624  1.8213 -0.1157  1.8322
    4SAPS  C219  477   1.287   0.652   8.446  0.4411  0.0351  0.2097
    4SAPS  H19R  478   1.212   0.578   8.482  0.9174 -0.5432  0.0327
    4SAPS  H19S  479   1.363   0.594   8.389  1.8121  0.3634  1.6486
    4SAPS  C220  480   1.237   0.762   8.364  0.5172  0.1435 -0.1270
    4SAPS  H20R  481   1.193   0.717   8.272 -0.5881  2.2872 -0.7114
    4SAPS  H20S  482   1.316   0.827   8.322  0.1648 -0.9138 -2.6383
    4SAPS  H20T  483   1.153   0.815   8.413 -0.8343 -1.4982 -0.5782
    4SAPS   C33  484   0.631   0.914   9.685 -0.5840 -0.2233 -0.5750
    4SAPS   H3X  485   0.524   0.892   9.664 -0.6102 -0.3812 -0.2879
    4SAPS   H3Y  486   0.695   0.824   9.672  2.0561  1.4123  0.1509
    4SAPS   C34  487   0.685   1.022   9.579  0.9550  0.8900 -0.3795
    4SAPS   H4X  488   0.795   1.023   9.597  0.5087 -1.3955  3.6798
    4SAPS   H4Y  489   0.636   1.120   9.595 -0.2142 -0.0117  2.0906
    4SAPS   C35  490   0.656   0.978   9.439  0.3639  0.5277 -0.9214
    4SAPS   H5X  491   0.679   1.060   9.368  0.3535  1.6454  0.3175
    4SAPS   H5Y  492   0.546   0.968   9.426  0.4338  0.2439 -1.3354
    4SAPS   C36  493   0.717   0.839   9.390 -0.5043 -0.5399 -1.0146
    4SAPS   H6X  494   0.679   0.750   9.444 -1.3769 -0.0778 -0.8394
    4SAPS   H6Y  495   0.826   0.846   9.407 -0.4425  2.2766 -2.0694
    4SAPS   C37  496   0.693   0.819   9.238  0.3558  0.0808 -0.6398
    4SAPS   H7X  497   0.735   0.910   9.190 -0.3310  1.2785  0.9638
    4SAPS   H7Y  498   0.584   0.838   9.233  0.0648 -1.4709 -0.7865
    4SAPS   C38  499   0.734   0.686   9.173 -0.4993  0.2773  0.3115
    4SAPS   H8X  500   0.842   0.707   9.156 -0.2795 -1.5756 -0.8483
    4SAPS   H8Y  501   0.676   0.687   9.078 -2.4965 -1.4815  1.4266
    4SAPS   C39  502   0.707   0.551   9.246  0.1365 -0.1634  0.1809
    4SAPS   H9X  503   0.600   0.555   9.274  0.5752 -0.5202  2.0355
    4SAPS   H9Y  504   0.753   0.550   9.347  0.2240  2.6047  0.2509
    4SAPS  C310  505   0.760   0.429   9.168  0.3343 -0.0740 -0.1051
    4SAPS  H10X  506   0.871   0.421   9.165  0.5106  2.1111 -0.6673
    4SAPS  H10Y  507   0.746   0.457   9.062 -0.2634 -1.2186 -0.3430
    4SAPS  C311  508   0.681   0.296   9.201 -0.0988 -0.2815  0.1079
    4SAPS  H11X  509   0.574   0.315   9.181  0.0915 -0.7211 -1.4858
    4SAPS  H11Y  510   0.709   0.284   9.307  3.6903 -0.5504 -0.7725
    4SAPS  C312  511   0.722   0.178   9.112  0.3170 -0.5676  0.0827
    4SAPS  H12X  512   0.682   0.082   9.151 -0.0398 -0.8466 -0.9447
    4SAPS  H12Y  513   0.833   0.172   9.121  0.6959  1.3721 -2.2485
    4SAPS  C313  514   0.686   0.196   8.968  0.9261  0.5466  1.0313
    4SAPS  H13X  515   0.750   0.280   8.934  0.2485 -0.2015 -2.4166
    4SAPS  H13Y  516   0.578   0.221   8.956  0.9878  0.8646  1.1234
    4SAPS  C314  517   0.730   0.075   8.879  0.6778  1.1593  0.0576
    4SAPS  H14X  518   0.698  -0.018   8.930  0.5509  0.5931 -1.0276
    4SAPS  H14Y  519   0.839   0.062   8.860  0.6021 -0.7070  0.6522
    4SAPS  C315  520   0.652   0.060   8.747  0.5472 -0.1132  0.0323
    4SAPS  H15X  521   0.687   0.136   8.674  0.4005  0.6626  0.7613
    4SAPS  H15Y  522   0.545   0.080   8.772  0.6117 -1.2803  1.3559
    4SAPS  C316  523   0.647  -0.083   8.692 -0.2847 -0.1189 -0.7145
    4SAPS  H16X  524   0.591  -0.080   8.596 -0.5273  2.3554 -0.5403
    4SAPS  H16Y  525   0.594  -0.147   8.767  2.5798  0.0488  1.5983
    4SAPS  C317  526   0.786  -0.139   8.660 -0.4590 -0.3442 -0.3208
    4SAPS  H17X  527   0.768  -0.247   8.641 -1.9051 -0.2813  0.5673
    4SAPS  H17Y  528   0.841  -0.140   8.757  0.4272 -0.5370 -0.8074
    4SAPS  C318  529   0.865  -0.077   8.544 -0.0269 -0.0287  0.2047
    4SAPS  H18X  530   0.905   0.022   8.575 -1.0803  0.4718  0.0051
    4SAPS  H18Y  531   0.809  -0.060   8.449 -0.7923 -1.6499  0.3397
    4SAPS  H18Z  532   0.968  -0.102   8.512 -0.0416  1.1233 -0.8234
    5SAPS     N  533   5.588   1.217  10.859 -0.3562  0.2461 -0.3559
    5SAPS   HN1  534   5.582   1.115  10.878 -0.9206  0.7258  2.3342
    5SAPS   HN2  535   5.515   1.243  10.789 -0.4171  3.0240  0.6363
    5SAPS   HN3  536   5.683   1.234  10.821  1.5715 -2.3795  2.7220
    5SAPS   C12  537   5.565   1.311  10.972  0.4841  0.4764 -0.2624
    5SAPS  H12A  538   5.564   1.412  10.935 -1.4955  0.9617  0.9471
    5SAPS   C13  539   5.427   1.284  11.040  0.3933 -0.0314 -0.1002
    5SAPS  O13A  540   5.354   1.189  11.009  0.0257 -0.0128 -0.1159
    5SAPS  O13B  541   5.387   1.374  11.121 -0.0911  0.1015 -0.4570
    5SAPS   C11  542   5.682   1.293  11.086  0.3416 -0.4803  0.8549
    5SAPS  H11A  543   5.663   1.196  11.137  0.4518  0.5879  3.0661
    5SAPS  H11B  544   5.677   1.379  11.157 -2.5019  1.1739 -1.1688
    5SAPS     P  545   5.906   1.395  10.972 -0.1655 -0.2103  0.2364
    5SAPS   O13  546   5.864   1.525  11.027 -0.1298  0.3720 -0.8976
    5SAPS   O14  547   6.050   1.366  10.976  1.0203 -0.2745  0.1523
    5SAPS   O12  548   5.815   1.290  11.035  0.5123  0.5575 -0.2040
    5SAPS   O11  549   5.852   1.381  10.814  0.0562 -0.2489 -0.7724
    5SAPS    C1  550   5.803   1.500  10.757 -0.0948 -0.3954  0.0963
    5SAPS    HA  551   5.718   1.536  10.817 -0.9242 -3.8753  1.2328
    5SAPS    HB  552   5.880   1.580  10.746  0.1029 -0.6025 -0.0639
    5SAPS    C2  553   5.731   1.474  10.621  0.9378  0.3257  0.2747
    5SAPS    HS  554   5.676   1.378  10.629 -1.4785  1.3177 -2.3091
    5SAPS   O21  555   5.836   1.467  10.517 -0.2791 -0.3338  0.2300
    5SAPS   C21  556   5.789   1.427  10.402  0.3859 -0.4366  0.4425
    5SAPS   O22  557   5.676   1.391  10.380  0.0027  0.6639  1.0592
    5SAPS   C22  558   5.909   1.409  10.307 -0.7516  0.5763 -0.7479
    5SAPS   H2R  559   5.946   1.508  10.273 -1.7172  1.2582  0.1249
    5SAPS   H2S  560   5.993   1.372  10.370 -1.1516  0.3211 -0.3491
    5SAPS    C3  561   5.621   1.587  10.582  0.1019 -0.5874 -0.6378
    5SAPS    HX  562   5.574   1.638  10.669 -0.6196 -0.4122 -1.1192
    5SAPS    HY  563   5.529   1.545  10.537 -0.4877  0.7994 -0.7966
    5SAPS   O31  564   5.677   1.689  10.495  0.4430 -0.7341  0.0467
    5SAPS   C31  565   5.730   1.790  10.567  0.2600  0.3788  0.2292
    5SAPS   O32  566   5.742   1.790  10.689 -0.1240 -0.3347  0.2645
    5SAPS   C32  567   5.777   1.904  10.477 -0.3066 -0.6987 -1.0674
    5SAPS   H2X  568   5.853   1.867  10.405  0.8891 -1.3828  0.4974
    5SAPS   H2Y  569   5.837   1.962  10.550 -1.3983 -0.7063 -0.1345
    5SAPS   C23  570   5.871   1.309  10.197  0.5450  0.2921 -0.0608
    5SAPS   H3R  571   5.774   1.335  10.150  0.5827  2.5944  1.0187
    5SAPS   H3S  572   5.844   1.213  10.246 -0.6264  0.3609 -0.5336
    5SAPS   C24  573   5.982   1.286  10.099 -0.9151 -0.0366 -0.4783
    5SAPS   H4R  574   6.018   1.386  10.066  0.8407 -0.1959  0.7884
    5SAPS   H4S  575   5.934   1.223  10.021  1.2964 -1.3342 -0.8823
    5SAPS   C25  576   6.111   1.217  10.154  0.7456 -0.1615  0.0497
    5SAPS   H5R  577   6.098   1.108  10.166 -1.8252 -0.0409 -0.9779
    5SAPS   C26  578   6.232   1.269  10.176 -0.2266  0.1292  0.3137
    5SAPS   H6R  579   6.317   1.208  10.211  0.9698  0.9089 -1.1329
    5SAPS   C27  580   6.279   1.413  10.152 -0.6848  0.3843 -0.0992
    5SAPS   H7R  581   6.200   1.490  10.139 -1.7192 -0.8183 -1.2673
    5SAPS   H7S  582   6.331   1.429  10.055 -1.1983  2.3946 -0.0955
    5SAPS   C28  583   6.365   1.462  10.267  0.2468 -1.3894  0.9112
    5SAPS   H8R  584   6.321   1.440  10.366 -0.4302  0.6984  1.1242
    5SAPS   C29  585   6.490   1.520  10.261  0.7608 -0.0152  0.2947
    5SAPS   H9R  586   6.530   1.551  10.358  0.2974 -2.3339  1.2976
    5SAPS  C210  587   6.568   1.553  10.135  0.5756 -0.4446  0.2899
    5SAPS  H10R  588   6.590   1.662  10.129  0.3845 -0.4219 -0.0797
    5SAPS  H10S  589   6.502   1.533  10.047  2.8235 -1.1013 -1.3297
    5SAPS  C211  590   6.701   1.493  10.129  0.2554  0.6452 -0.5606
    5SAPS  H11R  591   6.756   1.484  10.224 -0.0116  1.1225 -0.3620
    5SAPS  C212  592   6.765   1.457  10.019  0.3544 -0.3410  0.5867
    5SAPS  H12R  593   6.861   1.406  10.034  0.8853  0.2322 -0.7078
    5SAPS  C213  594   6.714   1.460   9.876  0.2832 -0.3663  0.0900
    5SAPS  H13R  595   6.795   1.425   9.809  0.4944  1.8065 -0.8656
    5SAPS  H13S  596   6.686   1.564   9.848 -1.6078 -1.4940 -2.6092
    5SAPS  C214  597   6.591   1.367   9.858  0.2851  0.4361 -0.0323
    5SAPS  H14R  598   6.548   1.320   9.948  0.0190 -0.3086 -0.5403
    5SAPS  C215  599   6.531   1.347   9.743  0.4960 -0.0789  0.0254
    5SAPS  H15R  600   6.443   1.283   9.734  1.1024 -0.9454  0.0758
    5SAPS  C216  601   6.576   1.411   9.613  0.6824 -0.0953 -0.2584
    5SAPS  H16R  602   6.650   1.490   9.640 -0.0275  0.3716  0.3541
    5SAPS  H16S  603   6.494   1.461   9.558 -1.5099 -2.1381  0.9896
    5SAPS  C217  604   6.627   1.308   9.502 -0.1425  0.4827 -0.3392
    5SAPS  H17R  605   6.631   1.372   9.411  0.6202 -1.7710 -1.9737
    5SAPS  H17S  606   6.543   1.240   9.479  0.1113 -0.1622  0.5896
    5SAPS  C218  607   6.750   1.236   9.549  0.2970 -0.0084  0.0819
    5SAPS  H18R  608   6.837   1.301   9.570  1.0428 -0.4499 -1.4700
    5SAPS  H18S  609   6.717   1.185   9.642  0.2041  1.9414  1.1735
    5SAPS  C219  610   6.813   1.134   9.452  0.1239  0.1938 -0.6168
    5SAPS  H19R  611   6.737   1.054   9.434 -0.5969  1.0791 -1.6611
    5SAPS  H19S  612   6.893   1.083   9.510  0.3582 -1.4862 -2.3059
    5SAPS  C220  613   6.857   1.188   9.321 -0.2547  0.2796  0.5595
    5SAPS  H20R  614   6.935   1.266   9.331 -0.1573  0.1859  0.5352
    5SAPS  H20S  615   6.776   1.230   9.257  0.7721  2.8401  0.8351
    5SAPS  H20T  616   6.897   1.105   9.259  0.7214 -0.6875  2.4200
    5SAPS   C33  617   5.673   2.010  10.430  0.1993 -0.0952  0.1198
    5SAPS   H3X  618   5.733   2.098  10.398 -0.3124  0.0243 -0.5215
    5SAPS   H3Y  619   5.599   2.049  10.503 -0.9689  0.7309 -1.4491
    5SAPS   C34  620   5.587   1.964  10.310 -0.4908  0.1451 -0.0786
    5SAPS   H4X  621   5.516   1.884  10.341  1.0648 -1.8001 -1.3189
    5SAPS   H4Y  622   5.644   1.909  10.232  0.1033  1.1325 -0.3491
    5SAPS   C35  623   5.497   2.075  10.262  0.4062 -0.3857 -0.4449
    5SAPS   H5X  624   5.567   2.156  10.233 -1.6505  2.1161  1.1049
    5SAPS   H5Y  625   5.431   2.110  10.345  1.4267  0.5662 -0.0072
    5SAPS   C36  626   5.404   2.018  10.156  0.8909 -0.2801  0.6117
    5SAPS   H6X  627   5.311   2.077  10.167  1.2411  0.6031 -0.8962
    5SAPS   H6Y  628   5.388   1.913  10.190 -0.9151 -0.7369 -1.4189
    5SAPS   C37  629   5.462   2.000  10.017  0.6435  0.3778  0.0110
    5SAPS   H7X  630   5.541   1.921  10.024 -0.1833 -0.6540 -1.7120
    5SAPS   H7Y  631   5.505   2.098   9.987 -1.1710  1.2510  0.1305
    5SAPS   C38  632   5.359   1.953   9.919 -0.0313 -0.0619 -0.2263
    5SAPS   H8X  633   5.271   2.020   9.932  1.2993  1.7451 -0.0877
    5SAPS   H8Y  634   5.318   1.856   9.954  1.7211 -0.6966  0.1699
    5SAPS   C39  635   5.422   1.938   9.780 -0.1863 -0.0788  0.0506
    5SAPS   H9X  636   5.522   1.891   9.785  0.7480  1.5568 -1.9608
    5SAPS   H9Y  637   5.439   2.041   9.743 -0.4224 -0.3224 -0.7633
    5SAPS  C310  638   5.322   1.867   9.694 -0.0374 -0.1149  0.0466
    5SAPS  H10X  639   5.223   1.913   9.712 -1.1741 -1.7545 -1.6506
    5SAPS  H10Y  640   5.326   1.759   9.720  0.6051 -0.7906 -2.5122
    5SAPS  C311  641   5.353   1.886   9.546  0.3135 -0.4817  0.9906
    5SAPS  H11X  642   5.460   1.861   9.528 -0.3155 -1.8299 -1.2330
    5SAPS  H11Y  643   5.344   1.992   9.514  1.7811 -1.1348 -1.9245
    5SAPS  C312  644   5.265   1.805   9.442  0.0197 -0.4851  0.1415
    5SAPS  H12X  645   5.167   1.838   9.480  0.3289 -2.1323  2.6245
    5SAPS  H12Y  646   5.279   1.695   9.452 -0.8895 -0.6558 -0.3200
    5SAPS  C313  647   5.290   1.831   9.291  0.2372 -0.1976 -0.0368
    5SAPS  H13X  648   5.388   1.786   9.264  0.3059 -0.5906  0.8298
    5SAPS  H13Y  649   5.289   1.934   9.251  1.3775  0.0727  0.5944
    5SAPS  C314  650   5.178   1.751   9.210  0.0282 -0.2796  0.0384
    5SAPS  H14X  651   5.083   1.796   9.244 -0.6732 -3.6915  3.2562
    5SAPS  H14Y  652   5.172   1.646   9.247 -1.3262 -1.2275 -2.6057
    5SAPS  C315  653   5.193   1.757   9.056  0.2321  0.3113  0.1442
    5SAPS  H15X  654   5.283   1.702   9.021  0.6002  1.5009 -0.8498
    5SAPS  H15Y  655   5.203   1.863   9.026  1.1971  0.0230 -0.5892
    5SAPS  C316  656   5.061   1.726   8.987 -0.2916 -0.0090  0.0245
    5SAPS  H16X  657   4.983   1.770   9.052  1.4983  0.2409  2.1150
    5SAPS  H16Y  658   5.050   1.616   8.999 -0.9528  0.0287 -0.1992
    5SAPS  C317  659   5.049   1.757   8.840 -0.1059  0.2022  0.7140
    5SAPS  H17X  660   5.074   1.864   8.823 -0.9060  0.3622  0.4983
    5SAPS  H17Y  661   4.946   1.747   8.800 -0.1870  3.6297 -0.2944
    5SAPS  C318  662   5.136   1.673   8.740  0.3902  0.5030  0.1409
    5SAPS  H18X  663   5.242   1.657   8.767  0.8761  1.0618 -1.3208
    5SAPS  H18Y  664   5.137   1.706   8.634  0.4264  1.4504  0.4280
    5SAPS  H18Z  665   5.092   1.571   8.740 -0.0502  0.6873 -0.1067
    6SAPS     N  666   3.658   1.471  10.756 -0.2799 -0.4547 -0.2617
    6SAPS   HN1  667   3.629   1.545  10.824 -0.1925 -1.3009  0.7138
    6SAPS   HN2  668   3.749   1.496  10.712 -0.5997  0.7630 -0.2881
    6SAPS   HN3  669   3.581   1.449  10.691 -0.9783 -2.6194  1.1991
    6SAPS   C12  670   3.682   1.350  10.852 -0.3599 -0.3929 -0.1087
    6SAPS  H12A  671   3.769   1.372  10.913  0.9182  1.0284 -2.2872
    6SAPS   C13  672   3.580   1.349  10.965 -0.1055 -0.4286 -0.0464
    6SAPS  O13A  673   3.484   1.428  10.961  0.2173 -0.2574 -0.3696
    6SAPS  O13B  674   3.591   1.264  11.059  0.0463 -0.6224 -0.0742
    6SAPS   C11  675   3.680   1.217  10.775 -0.0511 -0.3779 -0.1097
    6SAPS  H11A  676   3.598   1.230  10.701  0.3514  1.0156 -0.3473
    6SAPS  H11B  677   3.661   1.129  10.839  0.1006 -0.3885 -0.0786
    6SAPS     P  678   3.926   1.129  10.735  0.0281  0.3163  0.0202
    6SAPS   O13  679   4.009   1.223  10.812  0.0443 -0.3038  0.3261
    6SAPS   O14  680   3.884   0.999  10.792  0.6321 -0.5734 -0.3649
    6SAPS   O12  681   3.794   1.201  10.691  0.0286  0.1614 -0.2319
    6SAPS   O11  682   3.992   1.122  10.592  0.3321 -0.0909 -0.2979
    6SAPS    C1  683   3.954   1.205  10.478  0.3905 -0.8475 -0.3522
    6SAPS    HA  684   3.972   1.146  10.386  1.4447 -1.4690  0.2330
    6SAPS    HB  685   3.844   1.225  10.474  0.5269  0.0097 -0.1253
    6SAPS    C2  686   4.033   1.343  10.481  0.2280  0.1985 -0.2209
    6SAPS    HS  687   3.988   1.411  10.557 -0.7419 -0.6259 -0.0394
    6SAPS   O21  688   4.012   1.394  10.349 -0.5877 -0.0476  0.0935
    6SAPS   C21  689   4.026   1.527  10.331 -0.1075  0.2868 -0.5008
    6SAPS   O22  690   4.056   1.599  10.423  0.5725  0.0079 -0.1723
    6SAPS   C22  691   3.977   1.568  10.193 -0.6184 -0.8545 -0.4380
    6SAPS   H2R  692   3.957   1.473  10.139  1.5299 -1.2003 -0.7232
    6SAPS   H2S  693   3.877   1.614  10.206  0.1851  0.8660 -0.0963
    6SAPS    C3  694   4.186   1.333  10.510 -0.3987  0.4246 -0.7963
    6SAPS    HX  695   4.206   1.282  10.607  2.8628  0.8699 -1.1062
    6SAPS    HY  696   4.236   1.430  10.531 -1.1009  0.0989  3.2645
    6SAPS   O31  697   4.261   1.249  10.421 -0.2682 -0.1141  0.0804
    6SAPS   C31  698   4.332   1.324  10.330  0.0739  0.3563  0.1258
    6SAPS   O32  699   4.323   1.444  10.319 -0.1118  0.6454  0.1852
    6SAPS   C32  700   4.414   1.234  10.246 -0.1367 -0.6265 -0.1846
    6SAPS   H2X  701   4.501   1.203  10.309  3.2744  4.0349 -2.0020
    6SAPS   H2Y  702   4.478   1.291  10.176  1.5706 -0.1566  1.6552
    6SAPS   C23  703   4.067   1.668  10.115  0.3228  0.5107  0.5412
    6SAPS   H3R  704   4.164   1.618  10.097 -0.4153 -0.7403 -0.1532
    6SAPS   H3S  705   4.084   1.749  10.188  2.4233  0.0668  0.6147
    6SAPS   C24  706   4.004   1.734   9.988 -0.4083  0.0226  0.3885
    6SAPS   H4R  707   4.078   1.811   9.957  0.3295 -0.0970  1.7517
    6SAPS   H4S  708   3.904   1.774  10.014  0.6521  0.8098  3.7268
    6SAPS   C25  709   3.997   1.642   9.869 -0.2278 -0.6408  0.3168
    6SAPS   H5R  710   3.958   1.543   9.896  0.2454 -1.4601 -1.8278
    6SAPS   C26  711   4.031   1.667   9.745  0.1838  0.2444  0.0375
    6SAPS   H6R  712   4.012   1.588   9.671  0.2264 -0.9195  1.2305
    6SAPS   C27  713   4.069   1.798   9.687 -0.1896  0.7109  0.3336
    6SAPS   H7R  714   4.117   1.777   9.589  0.1843 -2.1435  1.0379
    6SAPS   H7S  715   4.151   1.842   9.747 -0.5442  1.8797 -0.0093
    6SAPS   C28  716   3.962   1.904   9.693 -0.5320  0.1976 -0.2502
    6SAPS   H8R  717   3.914   1.919   9.791 -0.2027  2.1242 -0.3549
    6SAPS   C29  718   3.927   1.987   9.592 -0.1022 -0.3584 -0.3307
    6SAPS   H9R  719   3.866   2.077   9.607  2.6886  1.7729 -0.8929
    6SAPS  C210  720   3.979   1.996   9.449 -0.1448  0.5273  0.0947
    6SAPS  H10R  721   3.903   1.940   9.390 -2.4463  2.1875  1.3372
    6SAPS  H10S  722   4.079   1.950   9.434 -0.5782 -0.3056 -0.3050
    6SAPS  C211  723   3.997   2.140   9.406 -0.4174 -0.1770  0.3650
    6SAPS  H11R  724   4.023   2.210   9.487  0.9470  0.7466 -0.8202
    6SAPS  C212  725   3.974   2.189   9.284 -0.8027 -0.4293 -0.1512
    6SAPS  H12R  726   3.991   2.298   9.276 -2.3214 -0.2759 -1.9577
    6SAPS  C213  727   3.928   2.123   9.159  0.0054 -0.3596 -0.8351
    6SAPS  H13R  728   3.869   2.033   9.184  1.0000 -0.7000  0.3652
    6SAPS  H13S  729   4.008   2.062   9.112  0.5450  0.3094 -0.7990
    6SAPS  C214  730   3.850   2.215   9.066  0.0183  0.0689 -0.5007
    6SAPS  H14R  731   3.750   2.233   9.107 -0.9707 -0.4243 -2.5735
    6SAPS  C215  732   3.892   2.266   8.951 -0.7165 -0.3488 -0.6498
    6SAPS  H15R  733   3.825   2.329   8.892 -2.1079 -0.7478  0.4549
    6SAPS  C216  734   4.029   2.251   8.895  0.7019 -0.5261  0.2059
    6SAPS  H16R  735   4.093   2.201   8.970 -1.2311 -1.7782  1.1172
    6SAPS  H16S  736   4.065   2.351   8.862  2.2056 -1.4581 -1.1167
    6SAPS  C217  737   4.032   2.157   8.771  0.3273 -0.2120 -0.6642
    6SAPS  H17R  738   3.968   2.209   8.697  2.1035  2.5983 -0.3591
    6SAPS  H17S  739   3.980   2.062   8.796  0.5014 -0.4637 -1.2510
    6SAPS  C218  740   4.168   2.149   8.716 -0.0120  1.4374  0.0964
    6SAPS  H18R  741   4.233   2.092   8.785 -0.3403 -1.2386 -1.6443
    6SAPS  H18S  742   4.213   2.250   8.704 -0.0189  1.1164 -4.8932
    6SAPS  C219  743   4.159   2.085   8.577 -0.0407  0.2152  0.0426
    6SAPS  H19R  744   4.085   2.138   8.513 -0.8673 -2.2025 -1.1258
    6SAPS  H19S  745   4.115   1.985   8.596 -0.7852  0.8686  1.9262
    6SAPS  C220  746   4.290   2.071   8.503 -0.7845 -0.4718  0.4265
    6SAPS  H20R  747   4.375   2.052   8.572 -1.4469 -4.1768  0.4145
    6SAPS  H20S  748   4.310   2.166   8.448  0.3168 -1.3647 -0.7765
    6SAPS  H20T  749   4.297   1.986   8.432  2.9575 -1.9605  2.3643
    6SAPS   C33  750   4.347   1.119  10.167  0.3965 -0.2051 -0.4092
    6SAPS   H3X  751   4.285   1.059  10.237 -0.2248  0.7485 -0.1155
    6SAPS   H3Y  752   4.412   1.039  10.126 -0.5725 -0.7314 -0.9447
    6SAPS   C34  753   4.261   1.178  10.056 -1.0870  0.0549 -0.5664
    6SAPS   H4X  754   4.320   1.260  10.009  0.4861 -0.6153  0.1770
    6SAPS   H4Y  755   4.167   1.214  10.103 -0.3352  1.9285 -0.4197
    6SAPS   C35  756   4.224   1.092   9.931 -0.5420  0.0231 -0.2179
    6SAPS   H5X  757   4.157   1.012   9.969  0.1032 -0.3667  0.1418
    6SAPS   H5Y  758   4.312   1.033   9.896 -1.1182 -0.6201 -0.5870
    6SAPS   C36  759   4.163   1.170   9.822 -0.8163  0.0479 -0.1343
    6SAPS   H6X  760   4.230   1.253   9.791  0.7885 -0.4619  1.7940
    6SAPS   H6Y  761   4.064   1.202   9.861 -1.1147 -2.2458  1.1307
    6SAPS   C37  762   4.137   1.082   9.697 -0.5038  0.7621  0.0744
    6SAPS   H7X  763   4.099   0.980   9.716 -1.5110  0.5948 -2.4209
    6SAPS   H7Y  764   4.239   1.047   9.667 -0.6393 -2.5513  2.9561
    6SAPS   C38  765   4.042   1.139   9.589 -0.5460 -0.5542  0.2467
    6SAPS   H8X  766   3.940   1.150   9.632  0.2486 -0.8016  2.3132
    6SAPS   H8Y  767   4.046   1.068   9.503 -1.6973 -0.0810 -0.2337
    6SAPS   C39  768   4.089   1.277   9.523 -0.2945 -0.3750 -0.2996
    6SAPS   H9X  769   4.191   1.269   9.479 -0.3654  0.5395 -0.6471
    6SAPS   H9Y  770   4.095   1.356   9.601  3.9132  2.2093 -2.8430
    6SAPS  C310  771   4.005   1.344   9.417 -0.4361  0.2572 -0.0066
    6SAPS  H10X  772   3.899   1.347   9.450  0.3156  3.7714  2.6814
    6SAPS  H10Y  773   4.016   1.289   9.321 -0.8313  0.1862 -0.0143
    6SAPS  C311  774   4.055   1.487   9.388  0.0189 -0.8838 -0.0043
    6SAPS  H11X  775   4.166   1.483   9.381  0.0084 -0.4486 -0.4599
    6SAPS  H11Y  776   4.026   1.553   9.473  1.8291 -2.3881  1.8842
    6SAPS  C312  777   4.001   1.535   9.253 -0.2675 -0.6903  1.1896
    6SAPS  H12X  778   3.891   1.545   9.255 -0.2842  0.4836 -1.6593
    6SAPS  H12Y  779   4.022   1.461   9.173 -0.2748 -0.5782  1.0851
    6SAPS  C313  780   4.061   1.667   9.217 -0.2432 -0.1363 -0.3014
    6SAPS  H13X  781   4.170   1.660   9.233  0.0860  0.7534 -1.8912
    6SAPS  H13Y  782   4.026   1.745   9.288 -2.4722 -1.7559  0.5092
    6SAPS  C314  783   4.032   1.705   9.066  0.1377  0.2183 -0.8490
    6SAPS  H14X  784   4.027   1.815   9.048 -1.1903  0.6284  1.5178
    6SAPS  H14Y  785   3.928   1.670   9.052 -0.0011 -0.6417  1.7061
    6SAPS  C315  786   4.123   1.636   8.960 -0.3238  0.3655 -0.4513
    6SAPS  H15X  787   4.147   1.533   8.994  1.1792  1.4967  2.2684
    6SAPS  H15Y  788   4.218   1.689   8.985 -0.5323 -0.2692  1.9528
    6SAPS  C316  789   4.071   1.646   8.817  0.5422 -0.3074 -0.3217
    6SAPS  H16X  790   4.019   1.738   8.784 -1.4811 -2.0038 -2.1866
    6SAPS  H16Y  791   3.981   1.581   8.827 -0.5025  1.4616  4.5847
    6SAPS  C317  792   4.167   1.597   8.707 -0.3644 -0.0088 -0.8380
    6SAPS  H17X  793   4.239   1.681   8.698  0.5049 -0.7311 -0.6644
    6SAPS  H17Y  794   4.107   1.605   8.614  0.6167 -1.9020 -1.6796
    6SAPS  C318  795   4.238   1.463   8.725 -0.7207  0.1960 -0.3982
    6SAPS  H18X  796   4.165   1.384   8.752 -2.8020  1.8233 -1.0169
    6SAPS  H18Y  797   4.324   1.475   8.795  1.1440 -1.6169 -2.2300
    6SAPS  H18Z  798   4.287   1.432   8.630 -2.3574 -0.5187 -1.0329
    7SAPS     N  799   6.705   1.147  10.633  0.5472  0.3253 -0.4862
    7SAPS   HN1  800   6.639   1.204  10.690  1.2453  0.2056  0.4678
    7SAPS   HN2  801   6.783   1.212  10.612 -1.7506  2.8171 -1.8409
    7SAPS   HN3  802   6.666   1.108  10.545 -0.4749 -0.3545  0.2381
    7SAPS   C12  803   6.754   1.018  10.707 -0.2627 -0.0295  0.6960
    7SAPS  H12A  804   6.836   0.988  10.643  0.0233 -0.2872  1.1740
    7SAPS   C13  805   6.804   1.044  10.848  0.2781 -0.2517 -0.0148
    7SAPS  O13A  806   6.764   1.150  10.906  0.1678 -0.0105  0.5788
    7SAPS  O13B  807   6.855   0.951  10.916 -0.3322  0.0925 -0.0834
    7SAPS   C11  808   6.641   0.910  10.702  0.8443  0.2543  0.4915
    7SAPS  H11A  809   6.548   0.949  10.749 -0.2573 -2.1870  0.4883
    7SAPS  H11B  810   6.676   0.818  10.752  1.1326  0.5977  0.9353
    7SAPS     P  811   6.495   0.795  10.513  0.0535  0.0468 -0.4248
    7SAPS   O13  812   6.434   0.710  10.613  0.1595  0.2899  0.2843
    7SAPS   O14  813   6.403   0.869  10.427 -0.5161  0.3247  0.0102
    7SAPS   O12  814   6.614   0.888  10.566  0.3711 -0.2084  0.1080
    7SAPS   O11  815   6.571   0.692  10.419  0.3629  0.0553  0.0618
    7SAPS    C1  816   6.669   0.748  10.332  0.3173 -0.2607  0.5947
    7SAPS    HA  817   6.668   0.859  10.329 -0.6149 -0.2539  0.6923
    7SAPS    HB  818   6.764   0.706  10.371  1.2450  0.5990 -0.6568
    7SAPS    C2  819   6.631   0.692  10.191 -0.5260  0.2210  0.2917
    7SAPS    HS  820   6.705   0.738  10.121 -1.5748  1.4462 -0.0578
    7SAPS   O21  821   6.506   0.740  10.149  0.1454  0.0154  0.4770
    7SAPS   C21  822   6.490   0.864  10.121  0.4733  0.3253 -0.1989
    7SAPS   O22  823   6.576   0.948  10.116 -0.3292  0.0372 -0.2474
    7SAPS   C22  824   6.343   0.887  10.085 -0.2886  0.2754  0.0931
    7SAPS   H2R  825   6.283   0.822  10.152  0.3594 -0.5325 -0.1093
    7SAPS   H2S  826   6.325   0.995  10.105  0.4230  0.7292 -1.5375
    7SAPS    C3  827   6.640   0.535  10.194 -0.7110 -0.2243 -0.1167
    7SAPS    HX  828   6.565   0.500  10.268 -1.0834 -0.0802 -0.4203
    7SAPS    HY  829   6.740   0.505  10.231 -0.5984  0.7267  0.3991
    7SAPS   O31  830   6.606   0.484  10.064  0.1556 -0.6489 -0.2716
    7SAPS   C31  831   6.703   0.490   9.975  0.9101 -0.5370  0.1276
    7SAPS   O32  832   6.810   0.548   9.995 -0.4052  0.2216  0.0309
    7SAPS   C32  833   6.660   0.418   9.840 -0.4288 -0.3510  0.1613
    7SAPS   H2X  834   6.559   0.451   9.810  0.1385  0.3356 -1.0604
    7SAPS   H2Y  835   6.667   0.309   9.860  1.1232 -0.1476  0.8906
    7SAPS   C23  836   6.318   0.859   9.935 -0.3031  0.2164 -0.2194
    7SAPS   H3R  837   6.208   0.856   9.916 -0.2076 -0.6652 -0.6686
    7SAPS   H3S  838   6.347   0.753   9.923  2.5168  0.9657 -0.5787
    7SAPS   C24  839   6.387   0.964   9.834 -0.3104  0.0742  0.0884
    7SAPS   H4R  840   6.384   1.063   9.884 -1.2351  0.8045 -1.3202
    7SAPS   H4S  841   6.321   0.965   9.745  0.3052 -1.9965 -0.4637
    7SAPS   C25  842   6.530   0.944   9.790  0.7694 -0.4364  0.2592
    7SAPS   H5R  843   6.617   0.966   9.854  2.1943  1.3626 -2.1049
    7SAPS   C26  844   6.562   0.892   9.669  0.4641  0.0844 -0.0707
    7SAPS   H6R  845   6.667   0.892   9.636 -0.2448  0.8676 -2.6097
    7SAPS   C27  846   6.458   0.841   9.568  0.0639  0.0554 -0.4280
    7SAPS   H7R  847   6.425   0.927   9.506 -1.2398 -0.5555 -0.6186
    7SAPS   H7S  848   6.369   0.813   9.628  1.2178  0.3576  1.5153
    7SAPS   C28  849   6.505   0.719   9.496 -0.2267  0.3153  0.2822
    7SAPS   H8R  850   6.556   0.641   9.554  3.9277  1.6577 -1.2100
    7SAPS   C29  851   6.479   0.688   9.365  0.1583 -0.6062 -1.0836
    7SAPS   H9R  852   6.510   0.587   9.334  1.5320 -0.7075  0.4870
    7SAPS  C210  853   6.415   0.784   9.260 -0.1062 -0.2115 -1.1624
    7SAPS  H10R  854   6.324   0.831   9.303  1.5714  0.6579  1.6664
    7SAPS  H10S  855   6.400   0.728   9.165  0.5529 -0.3871 -1.1647
    7SAPS  C211  856   6.505   0.908   9.231 -0.4097  0.6456  0.4280
    7SAPS  H11R  857   6.532   0.951   9.329 -0.4816  2.9691 -0.5074
    7SAPS  C212  858   6.561   0.948   9.116 -0.0666 -0.2873 -0.1524
    7SAPS  H12R  859   6.629   1.035   9.114  0.5456 -0.7523 -1.9930
    7SAPS  C213  860   6.552   0.864   8.988  1.3443  0.1368  0.5752
    7SAPS  H13R  861   6.493   0.922   8.914 -0.9277 -2.8277 -0.1390
    7SAPS  H13S  862   6.496   0.768   8.993  1.0043  0.3383  0.7093
    7SAPS  C214  863   6.692   0.840   8.952 -0.0854 -0.4321 -0.4053
    7SAPS  H14R  864   6.737   0.935   8.921 -0.1922 -0.3899 -0.4312
    7SAPS  C215  865   6.770   0.733   8.940 -1.0670  0.1818 -0.0496
    7SAPS  H15R  866   6.870   0.762   8.904 -1.7097  2.8690  0.0907
    7SAPS  C216  867   6.736   0.590   8.975  0.0490 -0.0008  0.4794
    7SAPS  H16R  868   6.636   0.590   9.024 -0.6657 -1.2851 -0.9158
    7SAPS  H16S  869   6.810   0.543   9.043  1.0470 -1.5228 -1.5614
    7SAPS  C217  870   6.733   0.495   8.852  0.9869  1.0279  0.5800
    7SAPS  H17R  871   6.700   0.397   8.892 -1.7241  1.3981 -0.5269
    7SAPS  H17S  872   6.834   0.476   8.809 -0.3363  0.3430 -2.4492
    7SAPS  C218  873   6.633   0.543   8.747  0.1416  0.0727  0.2783
    7SAPS  H18R  874   6.676   0.633   8.700 -1.0024  0.9888  0.9184
    7SAPS  H18S  875   6.536   0.567   8.797 -1.0705 -1.0546 -1.4443
    7SAPS  C219  876   6.600   0.428   8.645 -0.4453  0.2458 -0.6220
    7SAPS  H19R  877   6.579   0.340   8.710 -2.3308  1.4898  0.5318
    7SAPS  H19S  878   6.695   0.427   8.586  1.2868  1.3280  1.9550
    7SAPS  C220  879   6.483   0.445   8.537 -0.0064  0.2309 -0.3697
    7SAPS  H20R  880   6.393   0.419   8.596 -0.0304 -1.7657 -1.2061
    7SAPS  H20S  881   6.496   0.385   8.445  0.5701  0.7205 -0.6161
    7SAPS  H20T  882   6.480   0.552   8.508 -1.7640  0.2759 -0.1321
    7SAPS   C33  883   6.754   0.456   9.716 -0.0467 -0.0247  0.1270
    7SAPS   H3X  884   6.860   0.441   9.746 -0.3659 -0.0936  1.2664
    7SAPS   H3Y  885   6.749   0.563   9.688 -0.0930 -0.3768 -1.3042
    7SAPS   C34  886   6.729   0.371   9.597  0.5485  0.0298  0.7800
    7SAPS   H4X  887   6.634   0.326   9.562  1.8582 -1.8881 -0.5415
    7SAPS   H4Y  888   6.787   0.282   9.632  1.9159 -0.4958 -2.4703
    7SAPS   C35  889   6.799   0.420   9.463  0.2927 -0.5724  0.0736
    7SAPS   H5X  890   6.908   0.440   9.477  0.3154 -1.8377  2.2347
    7SAPS   H5Y  891   6.747   0.517   9.451  2.7841  1.4008  3.2780
    7SAPS   C36  892   6.791   0.333   9.333  0.1909  0.0468 -0.1922
    7SAPS   H6X  893   6.851   0.243   9.360  1.4607  1.3658  1.6213
    7SAPS   H6Y  894   6.836   0.392   9.251 -2.0453 -0.5855 -1.9748
    7SAPS   C37  895   6.647   0.300   9.294  0.3816  0.2364 -0.0239
    7SAPS   H7X  896   6.593   0.396   9.290 -0.3844 -0.1765  0.1451
    7SAPS   H7Y  897   6.594   0.227   9.360 -1.0188  0.6061 -0.7005
    7SAPS   C38  898   6.642   0.258   9.148  0.0462  0.4898  0.9120
    7SAPS   H8X  899   6.712   0.173   9.132  0.1826  0.7455  0.0949
    7SAPS   H8Y  900   6.687   0.340   9.088  1.5128 -1.8038 -1.3311
    7SAPS   C39  901   6.499   0.229   9.096 -0.1263 -0.2030 -0.0639
    7SAPS   H9X  902   6.443   0.324   9.103  0.7725  0.3024  0.6217
    7SAPS   H9Y  903   6.451   0.152   9.161  0.2186 -1.7562 -1.5766
    7SAPS  C310  904   6.488   0.181   8.947  0.5496  0.4307 -0.2792
    7SAPS  H10X  905   6.481   0.070   8.951 -1.3081  0.5030 -0.6470
    7SAPS  H10Y  906   6.586   0.213   8.906  0.0690  1.9266 -0.3148
    7SAPS  C311  907   6.373   0.243   8.869  0.7702  0.4872 -0.2716
    7SAPS  H11X  908   6.395   0.352   8.859  1.3163  0.4511  0.4642
    7SAPS  H11Y  909   6.283   0.240   8.933  0.8653  0.5406 -0.1343
    7SAPS  C312  910   6.352   0.176   8.737 -0.0145 -0.8634 -0.6738
    7SAPS  H12X  911   6.447   0.189   8.680 -0.2306  0.8435 -0.7207
    7SAPS  H12Y  912   6.272   0.227   8.679 -0.2385  0.5054  0.7497
    7SAPS  C313  913   6.308   0.034   8.756  0.4155 -0.0308 -0.1287
    7SAPS  H13X  914   6.267   0.016   8.857 -1.9063  0.3532 -0.9583
    7SAPS  H13Y  915   6.394  -0.036   8.748  4.0749  4.1646 -2.2874
    7SAPS  C314  916   6.210  -0.009   8.650  0.8629 -0.1810 -0.0807
    7SAPS  H14X  917   6.262  -0.004   8.552  0.5529  1.9532 -0.1836
    7SAPS  H14Y  918   6.116   0.048   8.637 -0.9656 -2.3439  2.6004
    7SAPS  C315  919   6.175  -0.160   8.677  0.7343  0.7814 -0.5332
    7SAPS  H15X  920   6.127  -0.155   8.777  1.7055  4.3573 -0.0979
    7SAPS  H15Y  921   6.267  -0.218   8.699  0.2246  0.4537  0.8659
    7SAPS  C316  922   6.076  -0.209   8.573  0.3147  0.5949  0.0990
    7SAPS  H16X  923   6.110  -0.210   8.467 -1.1792  0.6364 -0.3974
    7SAPS  H16Y  924   5.994  -0.135   8.579  0.6786  1.0307 -0.1688
    7SAPS  C317  925   6.038  -0.353   8.596  0.2360 -0.6747 -0.1125
    7SAPS  H17X  926   6.126  -0.421   8.597 -1.4692 -3.0330  2.1103
    7SAPS  H17Y  927   5.980  -0.396   8.512  0.4227 -2.9089  0.8304
    7SAPS  C318  928   5.964  -0.377   8.729 -0.3092 -1.2958  0.9482
    7SAPS  H18X  929   5.947  -0.486   8.745 -0.5205 -1.1597  1.7224
    7SAPS  H18Y  930   5.863  -0.329   8.728  1.6413  3.3484 -1.0162
    7SAPS  H18Z  931   6.014  -0.331   8.817  1.8714  0.2486 -1.0083
    8SAPS     N  932   3.450   3.262  11.335 -0.4474 -0.2127  0.0480
    8SAPS   HN1  933   3.509   3.319  11.270 -0.2862 -1.3344 -0.8156
    8SAPS   HN2  934   3.468   3.300  11.430  0.0318  3.9633 -1.4993
    8SAPS   HN3  935   3.489   3.167  11.318 -1.0221 -0.5278  0.4581
    8SAPS   C12  936   3.313   3.279  11.280  0.3144  0.1454 -0.3129
    8SAPS  H12A  937   3.249   3.205  11.327 -0.5373  0.2589 -1.2482
    8SAPS   C13  938   3.251   3.419  11.299  0.8159 -0.4506  0.1193
    8SAPS  O13A  939   3.291   3.498  11.392 -0.2613 -0.1461  0.5442
    8SAPS  O13B  940   3.133   3.442  11.252 -0.5593  0.1448 -0.6677
    8SAPS   C11  941   3.317   3.244  11.125  0.0489  0.4771  0.0863
    8SAPS  H11A  942   3.382   3.324  11.083  0.9038  0.8347  1.9870
    8SAPS  H11B  943   3.216   3.262  11.082  0.5358  1.2856 -0.7667
    8SAPS     P  944   3.278   2.986  11.096  0.0195  0.0532 -0.6396
    8SAPS   O13  945   3.364   2.873  11.143  0.2828  0.5134 -0.0912
    8SAPS   O14  946   3.152   3.008  11.175  0.1651  0.3077 -0.2983
    8SAPS   O12  947   3.369   3.116  11.088  0.3576  0.1406 -0.0978
    8SAPS   O11  948   3.236   2.969  10.946 -0.0704 -0.1202 -0.6334
    8SAPS    C1  949   3.182   3.078  10.871 -0.3177  0.3581  0.5438
    8SAPS    HA  950   3.077   3.102  10.896 -0.1733  0.3042  1.2248
    8SAPS    HB  951   3.241   3.172  10.883  0.3417 -0.1471  1.4087
    8SAPS    C2  952   3.177   3.055  10.713  0.0893  0.4332 -0.5389
    8SAPS    HS  953   3.195   3.159  10.678  2.2389  0.9233  1.6958
    8SAPS   O21  954   3.042   3.001  10.678  0.2156 -0.1314 -0.4305
    8SAPS   C21  955   3.000   3.037  10.554  0.0030 -0.7686 -0.8321
    8SAPS   O22  956   3.055   3.125  10.487 -0.4052  0.0383 -0.6471
    8SAPS   C22  957   2.875   2.959  10.507 -0.1903 -0.0887  0.0752
    8SAPS   H2R  958   2.871   2.867  10.570 -0.4991 -1.2592 -1.5934
    8SAPS   H2S  959   2.785   3.018  10.535  0.2136  0.8993 -0.6588
    8SAPS    C3  960   3.296   2.967  10.668  1.2415 -0.5995  0.5994
    8SAPS    HX  961   3.293   2.867  10.716  0.7616 -1.4263 -1.0951
    8SAPS    HY  962   3.383   3.012  10.721  0.5134 -0.3619  1.6196
    8SAPS   O31  963   3.311   2.963  10.526  0.1399 -0.4201  0.3896
    8SAPS   C31  964   3.385   3.057  10.466  0.7007 -0.5105  0.4122
    8SAPS   O32  965   3.423   3.159  10.516  0.0761  0.3187 -0.1058
    8SAPS   C32  966   3.416   3.024  10.318  0.1107  0.5393 -0.6047
    8SAPS   H2X  967   3.382   2.919  10.306 -4.0999  1.6163  0.4142
    8SAPS   H2Y  968   3.527   3.030  10.305  0.0581  0.2784 -1.2267
    8SAPS   C23  969   2.884   2.920  10.359 -0.4075  0.5514 -0.1212
    8SAPS   H3R  970   2.936   2.822  10.353 -1.3698  0.1015 -1.7886
    8SAPS   H3S  971   2.946   2.997  10.309  1.4441 -0.8732 -0.1257
    8SAPS   C24  972   2.748   2.911  10.297  0.4500  0.4067  0.2471
    8SAPS   H4R  973   2.755   2.876  10.191  1.6558 -2.4893  1.1838
    8SAPS   H4S  974   2.712   3.015  10.287  1.3951  1.0687  2.9228
    8SAPS   C25  975   2.643   2.819  10.355  0.3411  0.2303 -1.3369
    8SAPS   H5R  976   2.678   2.745  10.429 -1.5342  1.0751  0.4919
    8SAPS   C26  977   2.511   2.822  10.325 -0.3800 -0.1483 -0.1207
    8SAPS   H6R  978   2.452   2.751  10.385 -0.8312  0.0521 -0.3172
    8SAPS   C27  979   2.443   2.913  10.225  1.0575 -0.6467 -0.4156
    8SAPS   H7R  980   2.514   2.932  10.141  0.5046  0.2351 -0.7032
    8SAPS   H7S  981   2.426   3.013  10.271 -0.0263 -0.6710 -0.7292
    8SAPS   C28  982   2.318   2.844  10.174 -0.3557 -0.7187  0.4606
    8SAPS   H8R  983   2.308   2.739  10.204 -1.0346 -0.6765  0.4011
    8SAPS   C29  984   2.240   2.897  10.080 -1.0879  0.3450  0.7354
    8SAPS   H9R  985   2.148   2.842  10.052 -0.6731  0.6321 -1.3849
    8SAPS  C210  986   2.256   3.038  10.019 -0.1255  0.5747 -0.6961
    8SAPS  H10R  987   2.350   3.044   9.960 -1.3535 -0.0692 -2.8174
    8SAPS  H10S  988   2.257   3.113  10.101  0.0472  0.0968 -0.2599
    8SAPS  C211  989   2.138   3.064   9.927 -0.1268 -0.1040 -0.9673
    8SAPS  H11R  990   2.075   3.148   9.961  0.4057 -1.1092  3.1198
    8SAPS  C212  991   2.127   3.019   9.802  0.1003  0.3763  0.3958
    8SAPS  H12R  992   2.041   3.049   9.741  1.3557  2.3554 -0.5080
    8SAPS  C213  993   2.219   2.912   9.733 -0.3849  0.3882  0.4297
    8SAPS  H13R  994   2.293   2.863   9.798 -1.8551 -0.3132  1.6439
    8SAPS  H13S  995   2.285   2.961   9.658 -1.8497  0.8246 -0.6245
    8SAPS  C214  996   2.128   2.820   9.663 -0.1993  0.2643  0.2327
    8SAPS  H14R  997   2.076   2.751   9.731  0.1909  1.6673  2.0241
    8SAPS  C215  998   2.105   2.810   9.535 -0.0653  0.6841 -0.7032
    8SAPS  H15R  999   2.037   2.733   9.494 -1.4554  2.2082 -1.3848
    8SAPS  C216 1000   2.181   2.895   9.438  0.2774 -0.3129 -0.0037
    8SAPS  H16R 1001   2.291   2.897   9.449  0.3231 -0.6451 -0.3622
    8SAPS  H16S 1002   2.145   2.999   9.452  0.5170 -0.4897  2.3351
    8SAPS  C217 1003   2.123   2.863   9.295 -0.0270  0.5990  0.2932
    8SAPS  H17R 1004   2.012   2.872   9.293 -0.3414 -2.3604  0.5240
    8SAPS  H17S 1005   2.143   2.754   9.287  0.6881  0.6714  0.9897
    8SAPS  C218 1006   2.183   2.941   9.174  0.2030 -0.4350  0.0618
    8SAPS  H18R 1007   2.294   2.941   9.169  0.1793  0.5331 -0.9565
    8SAPS  H18S 1008   2.142   3.045   9.173  1.9728  0.2974 -0.3564
    8SAPS  C219 1009   2.153   2.877   9.036  0.6156  0.6263  0.2131
    8SAPS  H19R 1010   2.206   2.780   9.042 -2.7758 -1.7768 -3.3182
    8SAPS  H19S 1011   2.192   2.936   8.950 -2.2357  0.3856 -1.3701
    8SAPS  C220 1012   2.009   2.831   9.000  0.3336  0.8799 -0.4963
    8SAPS  H20R 1013   2.003   2.796   8.895 -0.5459  2.1880 -0.9155
    8SAPS  H20S 1014   1.944   2.922   8.998  1.2823  1.5855 -0.0432
    8SAPS  H20T 1015   1.957   2.757   9.064  0.4191  0.1253 -1.2863
    8SAPS   C33 1016   3.352   3.117  10.208 -0.3150 -0.5422 -0.0804
    8SAPS   H3X 1017   3.419   3.206  10.204  0.3274 -0.9959  0.4543
    8SAPS   H3Y 1018   3.246   3.149  10.219  0.2629  1.0337  1.5479
    8SAPS   C34 1019   3.358   3.049  10.071 -0.6746 -0.0329 -0.4216
    8SAPS   H4X 1020   3.283   2.968  10.071 -0.6428 -0.0724  0.5202
    8SAPS   H4Y 1021   3.458   3.004  10.051 -1.2010 -0.4805 -2.1332
    8SAPS   C35 1022   3.318   3.123   9.941  0.3733  0.5204 -0.1173
    8SAPS   H5X 1023   3.225   3.177   9.971  0.0376 -0.4047  0.5420
    8SAPS   H5Y 1024   3.305   3.051   9.858  3.4801  1.6887 -1.7670
    8SAPS   C36 1025   3.419   3.226   9.893  0.4301  0.0597  0.1292
    8SAPS   H6X 1026   3.514   3.178   9.860 -0.4583 -0.6411 -1.5293
    8SAPS   H6Y 1027   3.443   3.302   9.970  0.5635 -1.2302  1.3930
    8SAPS   C37 1028   3.356   3.299   9.770 -0.2419 -0.0691 -0.2723
    8SAPS   H7X 1029   3.439   3.362   9.731 -0.3571 -1.0870 -2.2888
    8SAPS   H7Y 1030   3.270   3.360   9.807  0.6407  1.8047 -1.1713
    8SAPS   C38 1031   3.316   3.214   9.650  0.7562  0.0499  0.7512
    8SAPS   H8X 1032   3.217   3.165   9.659 -0.1353  1.1850 -1.7131
    8SAPS   H8Y 1033   3.395   3.139   9.631 -0.3001 -1.1571  1.0308
    8SAPS   C39 1034   3.291   3.291   9.519 -0.3194  0.3576 -0.2699
    8SAPS   H9X 1035   3.293   3.223   9.431 -1.5655 -2.4398  1.7144
    8SAPS   H9Y 1036   3.364   3.374   9.507 -0.6670  0.5018 -1.5457
    8SAPS  C310 1037   3.152   3.356   9.512  0.1502 -0.1003 -0.0671
    8SAPS  H10X 1038   3.144   3.416   9.605 -1.2828 -0.2910 -0.0488
    8SAPS  H10Y 1039   3.072   3.280   9.517 -1.3720  1.5388  2.9195
    8SAPS  C311 1040   3.139   3.456   9.389 -0.4920  0.5170 -0.0508
    8SAPS  H11X 1041   3.239   3.503   9.391  1.5054 -3.3908 -0.1608
    8SAPS  H11Y 1042   3.057   3.528   9.411 -1.5236 -1.4753  3.3021
    8SAPS  C312 1043   3.107   3.386   9.266  0.3541  0.0198  0.1347
    8SAPS  H12X 1044   3.012   3.328   9.270  0.6243 -0.3584  2.3634
    8SAPS  H12Y 1045   3.180   3.304   9.254  0.5733 -0.2259  2.7469
    8SAPS  C313 1046   3.126   3.478   9.141  0.0872  0.1295 -0.2139
    8SAPS  H13X 1047   3.227   3.461   9.099  0.5111  0.0611  0.8194
    8SAPS  H13Y 1048   3.132   3.582   9.180 -0.7161  0.4944 -1.0190
    8SAPS  C314 1049   3.025   3.447   9.032 -0.2437  0.0994 -0.1204
    8SAPS  H14X 1050   3.058   3.355   8.979  1.2315  0.1952  0.5603
    8SAPS  H14Y 1051   3.041   3.525   8.955 -1.1183  0.7221  0.3219
    8SAPS  C315 1052   2.872   3.449   9.060  0.0587 -0.5827 -0.5226
    8SAPS  H15X 1053   2.833   3.552   9.076 -2.0377 -1.7166  2.8688
    8SAPS  H15Y 1054   2.837   3.386   9.145  0.0336 -1.6597 -1.3081
    8SAPS  C316 1055   2.796   3.397   8.934 -0.3589  0.6257 -0.3641
    8SAPS  H16X 1056   2.687   3.413   8.946 -0.3041  0.9218 -0.2695
    8SAPS  H16Y 1057   2.817   3.287   8.931  0.1018  0.7144 -0.5270
    8SAPS  C317 1058   2.837   3.453   8.801  1.0608 -0.5178  0.2044
    8SAPS  H17X 1059   2.942   3.432   8.773  0.8454 -0.6078 -0.5659
    8SAPS  H17Y 1060   2.824   3.562   8.815  1.1500 -0.3901 -0.6304
    8SAPS  C318 1061   2.742   3.414   8.686 -0.2471 -0.5283 -0.3006
    8SAPS  H18X 1062   2.735   3.303   8.680 -1.2797 -0.6051  1.5269
    8SAPS  H18Y 1063   2.770   3.448   8.584  0.2074 -1.0595 -0.3598
    8SAPS  H18Z 1064   2.635   3.431   8.712  0.1189  0.2370  0.7943
    9SAPS     N 1065   6.490   5.064   6.167 -0.7868  0.4683  0.0334
    9SAPS   HN1 1066   6.502   5.010   6.255 -3.3815  1.0340  0.8207
    9SAPS   HN2 1067   6.391   5.044   6.147 -0.8749  0.7077  0.2193
    9SAPS   HN3 1068   6.557   5.020   6.101 -0.0684 -0.0492  1.0702
    9SAPS   C12 1069   6.515   5.212   6.173 -0.1854  0.4538  0.0305
    9SAPS  H12A 1070   6.558   5.247   6.081 -1.0993 -0.9399 -0.9579
    9SAPS   C13 1071   6.383   5.291   6.200 -0.3850 -0.8738  0.4727
    9SAPS  O13A 1072   6.274   5.233   6.178  0.0459 -0.0521 -0.5594
    9SAPS  O13B 1073   6.393   5.417   6.202 -0.0267 -0.2168 -0.0402
    9SAPS   C11 1074   6.613   5.244   6.297  0.1887 -0.1334  0.1833
    9SAPS  H11A 1075   6.551   5.211   6.383  0.1475 -0.1673  0.1412
    9SAPS  H11B 1076   6.641   5.351   6.304  2.2544 -0.3622 -2.7544
    9SAPS     P 1077   6.798   5.077   6.387  0.2824 -0.1669 -0.5836
    9SAPS   O13 1078   6.726   4.941   6.394  0.0847  0.0439  0.2080
    9SAPS   O14 1079   6.945   5.077   6.372 -0.2297  0.0534 -0.0211
    9SAPS   O12 1080   6.732   5.172   6.289 -0.0677  0.1834  0.1054
    9SAPS   O11 1081   6.762   5.155   6.515 -0.3429  0.1871 -0.4562
    9SAPS    C1 1082   6.843   5.259   6.562 -0.2304 -0.1744 -0.5392
    9SAPS    HA 1083   6.936   5.212   6.601 -0.1119  0.2173 -0.3383
    9SAPS    HB 1084   6.870   5.336   6.487  0.1795  0.1436 -0.0794
    9SAPS    C2 1085   6.769   5.335   6.683 -0.1004  0.1450  0.1704
    9SAPS    HS 1086   6.844   5.409   6.719  0.7162 -0.0954 -0.9865
    9SAPS   O21 1087   6.734   5.248   6.796 -0.7188  0.0596 -0.2470
    9SAPS   C21 1088   6.840   5.216   6.873  0.8036 -0.0508 -0.3908
    9SAPS   O22 1089   6.956   5.238   6.857  0.2761 -0.1950 -0.3116
    9SAPS   C22 1090   6.791   5.130   6.984 -0.1112 -1.0024 -0.7822
    9SAPS   H2R 1091   6.691   5.086   6.964 -0.3011 -1.0991  0.3230
    9SAPS   H2S 1092   6.856   5.039   6.980  0.2285 -0.7934 -0.1544
    9SAPS    C3 1093   6.641   5.404   6.624  0.2086 -0.7717 -0.6624
    9SAPS    HX 1094   6.573   5.316   6.619 -0.0192 -0.5709 -1.0503
    9SAPS    HY 1095   6.654   5.459   6.529  0.8894 -0.1965 -0.2426
    9SAPS   O31 1096   6.609   5.504   6.728 -0.2148 -0.2765 -0.9051
    9SAPS   C31 1097   6.480   5.519   6.752  0.9700 -0.5093  0.0643
    9SAPS   O32 1098   6.384   5.462   6.698 -0.0101  0.3281  0.2818
    9SAPS   C32 1099   6.452   5.623   6.855 -0.3372 -0.5361 -0.5286
    9SAPS   H2X 1100   6.392   5.706   6.811 -1.3458  0.8281  3.0912
    9SAPS   H2Y 1101   6.550   5.671   6.877  0.3955 -1.6329 -1.2858
    9SAPS   C23 1102   6.803   5.198   7.124  0.0947 -0.3052 -0.3375
    9SAPS   H3R 1103   6.823   5.307   7.120 -0.6909 -0.1309  0.2252
    9SAPS   H3S 1104   6.897   5.162   7.172  0.3814  1.1502  0.2449
    9SAPS   C24 1105   6.687   5.150   7.212 -0.1465  0.5145 -0.4852
    9SAPS   H4R 1106   6.716   5.044   7.226  0.0059  0.6687  0.3963
    9SAPS   H4S 1107   6.594   5.160   7.153 -0.5715  2.2798  0.4206
    9SAPS   C25 1108   6.689   5.220   7.344 -0.3344 -0.4481 -0.2085
    9SAPS   H5R 1109   6.668   5.328   7.337  1.5474 -0.0292 -0.0274
    9SAPS   C26 1110   6.713   5.164   7.465  0.1144  0.5192  0.0895
    9SAPS   H6R 1111   6.705   5.230   7.553  0.8963  2.1187 -0.9760
    9SAPS   C27 1112   6.729   5.011   7.492 -0.6563 -0.1520  0.2778
    9SAPS   H7R 1113   6.760   4.944   7.408  1.3967  0.0696  0.7984
    9SAPS   H7S 1114   6.635   4.970   7.534 -2.2443  0.6815 -2.2654
    9SAPS   C28 1115   6.845   4.994   7.589 -0.3245  0.2721 -0.3527
    9SAPS   H8R 1116   6.944   5.021   7.549 -1.0418 -0.5378 -2.8933
    9SAPS   C29 1117   6.841   4.937   7.709 -0.8540  0.1615 -0.1547
    9SAPS   H9R 1118   6.931   4.940   7.773 -1.7084 -1.3254  1.1719
    9SAPS  C210 1119   6.714   4.894   7.781  0.2023 -0.4994 -0.1432
    9SAPS  H10R 1120   6.650   4.830   7.716 -3.0465  1.9846  0.3540
    9SAPS  H10S 1121   6.649   4.982   7.797 -0.9149 -0.8043 -2.5381
    9SAPS  C211 1122   6.746   4.811   7.899 -0.1469 -0.9225 -0.0671
    9SAPS  H11R 1123   6.839   4.753   7.895  1.0992  0.9399  0.6151
    9SAPS  C212 1124   6.665   4.794   8.009 -0.0636 -0.3379 -0.5913
    9SAPS  H12R 1125   6.711   4.738   8.092  1.1819  0.4716 -0.7067
    9SAPS  C213 1126   6.531   4.854   8.035  0.2699  0.0136  0.0435
    9SAPS  H13R 1127   6.457   4.790   7.983  0.0851 -0.5195  0.9409
    9SAPS  H13S 1128   6.529   4.947   7.975 -1.5668 -1.6649 -2.7620
    9SAPS  C214 1129   6.499   4.879   8.182 -0.4987 -0.2748  0.5171
    9SAPS  H14R 1130   6.584   4.875   8.252  0.1763 -0.2731 -0.2981
    9SAPS  C215 1131   6.376   4.904   8.232  0.0941  0.0130  0.4776
    9SAPS  H15R 1132   6.367   4.934   8.337  0.2825 -2.2810  1.1926
    9SAPS  C216 1133   6.243   4.929   8.164  0.4894 -0.3032  0.4018
    9SAPS  H16R 1134   6.179   4.838   8.170  0.8770 -0.5310  1.3597
    9SAPS  H16S 1135   6.265   4.953   8.058 -0.5192 -0.7575  0.0810
    9SAPS  C217 1136   6.157   5.045   8.230 -0.1457  0.2187 -0.3557
    9SAPS  H17R 1137   6.098   5.085   8.144 -1.6094 -1.4799 -0.2187
    9SAPS  H17S 1138   6.220   5.124   8.274 -1.0479  1.1816 -0.7607
    9SAPS  C218 1139   6.053   5.002   8.339 -0.2285 -0.8527  0.4890
    9SAPS  H18R 1140   5.989   4.923   8.295  0.5841 -1.6875  0.7865
    9SAPS  H18S 1141   5.987   5.090   8.355  0.1921 -0.3180 -0.5539
    9SAPS  C219 1142   6.120   4.955   8.469  0.6619 -0.3037  0.3597
    9SAPS  H19R 1143   6.207   5.022   8.488  1.1254 -0.2265 -1.8434
    9SAPS  H19S 1144   6.158   4.853   8.449 -0.8446 -1.2244  1.8976
    9SAPS  C220 1145   6.026   4.943   8.586  0.0065 -0.0162  0.1068
    9SAPS  H20R 1146   5.974   5.040   8.596  1.8172  1.0804 -0.6140
    9SAPS  H20S 1147   6.083   4.920   8.678 -0.5324  0.1399  0.4824
    9SAPS  H20T 1148   5.958   4.855   8.597 -0.0981  0.2563  1.9511
    9SAPS   C33 1149   6.391   5.566   6.980  0.0026  0.6922  0.5115
    9SAPS   H3X 1150   6.473   5.499   7.016 -1.6511 -0.5554  2.1672
    9SAPS   H3Y 1151   6.304   5.503   6.949  1.1790  0.3269 -2.3440
    9SAPS   C34 1152   6.376   5.664   7.092  0.4113 -0.4426  0.2170
    9SAPS   H4X 1153   6.330   5.754   7.046 -1.6490 -1.5138  0.0822
    9SAPS   H4Y 1154   6.478   5.690   7.130  1.4132 -0.3133 -2.3702
    9SAPS   C35 1155   6.291   5.608   7.206 -0.2726 -0.1485 -0.3171
    9SAPS   H5X 1156   6.337   5.514   7.243  1.9223  1.4677  1.2991
    9SAPS   H5Y 1157   6.188   5.583   7.172 -0.1515  0.2519 -1.0005
    9SAPS   C36 1158   6.286   5.699   7.329 -0.1918  0.1664 -0.5195
    9SAPS   H6X 1159   6.260   5.803   7.299 -1.2379 -0.4579 -1.8842
    9SAPS   H6Y 1160   6.389   5.691   7.370  0.0858 -0.3883 -1.3009
    9SAPS   C37 1161   6.194   5.649   7.438 -1.0253 -0.8150 -0.2489
    9SAPS   H7X 1162   6.101   5.629   7.380 -0.7351 -0.7434 -0.7517
    9SAPS   H7Y 1163   6.168   5.725   7.515 -0.9857 -2.0443  0.9950
    9SAPS   C38 1164   6.256   5.530   7.519 -0.0020  0.2841 -0.0317
    9SAPS   H8X 1165   6.262   5.440   7.454  0.6380  0.6273 -0.4578
    9SAPS   H8Y 1166   6.182   5.499   7.597 -0.2093  3.1321  1.0189
    9SAPS   C39 1167   6.393   5.546   7.589 -0.1136  0.3549  0.4292
    9SAPS   H9X 1168   6.387   5.642   7.645  0.5098  1.0489 -0.6692
    9SAPS   H9Y 1169   6.469   5.560   7.510 -0.2892 -1.3190 -0.0913
    9SAPS  C310 1170   6.431   5.426   7.679  0.2084  0.6406  0.5156
    9SAPS  H10X 1171   6.404   5.331   7.627  2.2050  0.4824 -0.3209
    9SAPS  H10Y 1172   6.383   5.437   7.779  1.6847 -3.5137  1.9032
    9SAPS  C311 1173   6.578   5.425   7.719  0.4270  0.2885  0.7656
    9SAPS  H11X 1174   6.602   5.525   7.760 -0.0810  0.9172 -0.4109
    9SAPS  H11Y 1175   6.640   5.388   7.633  0.2153  0.0887  0.6978
    9SAPS  C312 1176   6.597   5.332   7.835 -0.3544  1.1943  0.1242
    9SAPS  H12X 1177   6.551   5.234   7.809 -0.7708  1.7647 -1.3655
    9SAPS  H12Y 1178   6.547   5.365   7.929 -1.0269  2.0440 -0.5274
    9SAPS  C313 1179   6.748   5.287   7.860  0.2017  0.1409 -0.4062
    9SAPS  H13X 1180   6.820   5.372   7.853 -0.5698  0.7138 -1.7097
    9SAPS  H13Y 1181   6.788   5.218   7.783 -2.1056 -2.1627  0.3203
    9SAPS  C314 1182   6.755   5.216   7.993  0.5028  0.2133 -0.0563
    9SAPS  H14X 1183   6.676   5.137   7.987  1.1486 -0.4731  0.3296
    9SAPS  H14Y 1184   6.723   5.280   8.078  2.6806  1.3271 -0.0183
    9SAPS  C315 1185   6.891   5.150   8.027  0.6491 -0.4119  0.3822
    9SAPS  H15X 1186   6.964   5.233   8.038 -0.9869  1.2000 -0.3702
    9SAPS  H15Y 1187   6.915   5.080   7.944 -0.9562  0.8628 -1.2113
    9SAPS  C316 1188   6.877   5.076   8.162  0.0196  0.4225 -0.5177
    9SAPS  H16X 1189   6.773   5.036   8.167  0.3804 -0.5880 -0.7808
    9SAPS  H16Y 1190   6.885   5.151   8.243 -0.4218  0.0422 -0.1113
    9SAPS  C317 1191   6.974   4.962   8.197 -0.2118 -0.0932 -0.2611
    9SAPS  H17X 1192   7.075   5.006   8.209 -0.1460 -0.2318 -0.3002
    9SAPS  H17Y 1193   6.983   4.887   8.115 -2.7233  0.1035 -0.7999
    9SAPS  C318 1194   6.945   4.892   8.328  0.7061  0.0457  0.0699
    9SAPS  H18X 1195   6.840   4.858   8.341  0.7748  0.1019  0.8273
    9SAPS  H18Y 1196   6.947   4.972   8.406 -1.4592  2.6263 -2.2627
    9SAPS  H18Z 1197   7.009   4.803   8.344 -1.6509 -1.3334  2.6069
   10SAPS     N 1198   6.126   3.046   6.570  0.2151  0.0540 -0.7240
   10SAPS   HN1 1199   6.120   3.065   6.672 -1.1991  1.6173 -1.0573
   10SAPS   HN2 1200   6.070   2.960   6.549 -0.5099  0.0976  0.8492
   10SAPS   HN3 1201   6.225   3.032   6.544  0.1038 -0.8882 -0.6955
   10SAPS   C12 1202   6.065   3.168   6.513  0.2938 -0.2733 -0.0163
   10SAPS  H12A 1203   6.035   3.139   6.413 -0.9877 -0.8423  0.5107
   10SAPS   C13 1204   5.924   3.206   6.571 -0.2668  0.2626 -0.1195
   10SAPS  O13A 1205   5.871   3.141   6.664 -0.3508 -0.2022 -0.1968
   10SAPS  O13B 1206   5.861   3.285   6.498  0.5914  0.0282 -0.1355
   10SAPS   C11 1207   6.156   3.291   6.529 -0.0122  0.4072 -0.2280
   10SAPS  H11A 1208   6.182   3.296   6.636 -2.4658 -1.6233  0.5930
   10SAPS  H11B 1209   6.097   3.379   6.496 -1.8738  0.4183  2.7702
   10SAPS     P 1210   6.374   3.384   6.420  0.3704  0.1450  0.2701
   10SAPS   O13 1211   6.491   3.335   6.348 -0.0746 -0.9089  0.1298
   10SAPS   O14 1212   6.293   3.487   6.348  0.1026 -0.1149  0.4158
   10SAPS   O12 1213   6.274   3.271   6.449  0.3123  0.4722 -0.7675
   10SAPS   O11 1214   6.409   3.424   6.567 -0.1892 -0.1802 -0.7957
   10SAPS    C1 1215   6.506   3.363   6.646 -0.2321 -0.8057 -0.6826
   10SAPS    HA 1216   6.568   3.291   6.588 -0.0148  0.1240 -1.6307
   10SAPS    HB 1217   6.575   3.447   6.671 -2.2606  0.7511 -0.0970
   10SAPS    C2 1218   6.457   3.313   6.786  0.6956  0.4253 -0.0294
   10SAPS    HS 1219   6.367   3.252   6.765  0.4641  0.2406  1.3895
   10SAPS   O21 1220   6.426   3.427   6.858  0.9217 -0.1505 -0.0534
   10SAPS   C21 1221   6.338   3.417   6.951  0.1455 -0.3940 -0.0903
   10SAPS   O22 1222   6.272   3.319   6.979  0.4162 -0.2241  0.2661
   10SAPS   C22 1223   6.343   3.553   7.015 -0.0480  0.2914 -0.3548
   10SAPS   H2R 1224   6.374   3.625   6.936  0.1201 -0.1587 -0.7008
   10SAPS   H2S 1225   6.246   3.579   7.064  0.0794  0.1886 -0.0403
   10SAPS    C3 1226   6.572   3.231   6.854  0.5844  0.5961 -0.9267
   10SAPS    HX 1227   6.659   3.301   6.850  1.3709 -0.3088 -0.2422
   10SAPS    HY 1228   6.604   3.144   6.794 -0.1778  1.4921 -2.7061
   10SAPS   O31 1229   6.544   3.199   6.990 -0.4250 -0.2093 -0.8160
   10SAPS   C31 1230   6.487   3.084   7.008  0.3559 -0.4269  1.2115
   10SAPS   O32 1231   6.437   3.014   6.916 -0.7763 -0.8197  0.3104
   10SAPS   C32 1232   6.485   3.059   7.152 -0.5867 -0.2552  0.0072
   10SAPS   H2X 1233   6.425   3.144   7.191 -0.4986  0.0165 -0.4366
   10SAPS   H2Y 1234   6.590   3.065   7.189 -0.3122 -0.3914 -0.7347
   10SAPS   C23 1235   6.438   3.570   7.126 -0.2757  0.3378  0.1528
   10SAPS   H3R 1236   6.448   3.680   7.139  2.1690  0.2288 -0.2311
   10SAPS   H3S 1237   6.542   3.547   7.094 -0.3453  1.0356 -0.6048
   10SAPS   C24 1238   6.408   3.492   7.250  0.0985  0.0983 -0.0072
   10SAPS   H4R 1239   6.391   3.390   7.207 -1.3581  1.4006 -2.8152
   10SAPS   H4S 1240   6.306   3.517   7.287 -0.8863 -2.2329 -0.9265
   10SAPS   C25 1241   6.519   3.479   7.352 -0.6461  0.5108 -0.0337
   10SAPS   H5R 1242   6.540   3.376   7.385  0.8752  0.9887  0.5812
   10SAPS   C26 1243   6.591   3.583   7.405 -0.1585 -0.0935  0.4305
   10SAPS   H6R 1244   6.642   3.556   7.499 -1.3715  0.5959  1.3140
   10SAPS   C27 1245   6.563   3.728   7.377  0.0400  0.7326 -0.0719
   10SAPS   H7R 1246   6.453   3.745   7.375  0.0373  0.9138 -3.3058
   10SAPS   H7S 1247   6.585   3.749   7.271 -1.2224  0.3308 -0.4340
   10SAPS   C28 1248   6.633   3.842   7.450 -0.8190  0.1730 -0.3638
   10SAPS   H8R 1249   6.718   3.886   7.395 -0.6399  1.7034  1.0542
   10SAPS   C29 1250   6.601   3.887   7.570  0.2475  0.3269 -0.0227
   10SAPS   H9R 1251   6.662   3.963   7.621 -1.1193  0.3593  1.6863
   10SAPS  C210 1252   6.494   3.839   7.664 -0.0019 -0.1735 -0.5808
   10SAPS  H10R 1253   6.568   3.797   7.736  0.8407 -0.3302 -1.5048
   10SAPS  H10S 1254   6.441   3.748   7.628  0.9550 -0.1498 -2.1380
   10SAPS  C211 1255   6.401   3.946   7.715  0.4346  1.3485 -0.1502
   10SAPS  H11R 1256   6.361   4.007   7.633 -0.3231  0.9331 -0.1073
   10SAPS  C212 1257   6.378   3.980   7.843 -0.3485 -0.1091 -0.7607
   10SAPS  H12R 1258   6.295   4.051   7.855  1.4997  2.1142 -0.4239
   10SAPS  C213 1259   6.440   3.908   7.963 -0.2298  0.2566  0.3438
   10SAPS  H13R 1260   6.550   3.905   7.944 -0.3673  2.6594 -1.2515
   10SAPS  H13S 1261   6.400   3.805   7.963  1.0601 -0.2698  0.3678
   10SAPS  C214 1262   6.410   3.964   8.098 -0.1662  0.2860 -0.5080
   10SAPS  H14R 1263   6.500   4.018   8.131 -0.2586 -0.3162  0.7928
   10SAPS  C215 1264   6.296   3.955   8.171 -0.2536 -0.0103  0.0008
   10SAPS  H15R 1265   6.292   4.003   8.271  0.4978 -0.1988  0.1326
   10SAPS  C216 1266   6.169   3.881   8.134  0.0219 -0.0470 -0.0075
   10SAPS  H16R 1267   6.194   3.802   8.060  3.0926  0.3530  0.5076
   10SAPS  H16S 1268   6.094   3.947   8.084  0.0204 -1.1655 -1.5460
   10SAPS  C217 1269   6.096   3.826   8.254 -0.3725  1.3038 -0.1333
   10SAPS  H17R 1270   6.162   3.754   8.307 -1.9014  0.4415  0.6571
   10SAPS  H17S 1271   6.005   3.769   8.225 -0.6800  1.2996  0.8316
   10SAPS  C218 1272   6.052   3.928   8.360 -0.3729  0.8000  0.2763
   10SAPS  H18R 1273   6.138   3.988   8.398 -1.3136  2.4604 -0.1456
   10SAPS  H18S 1274   6.009   3.859   8.436 -2.8113 -1.6256 -3.0326
   10SAPS  C219 1275   5.941   4.023   8.305  0.3632  0.0337 -1.0372
   10SAPS  H19R 1276   5.875   3.966   8.237  1.4480  0.4295 -2.4511
   10SAPS  H19S 1277   5.997   4.101   8.249  1.9556 -0.1620  0.2156
   10SAPS  C220 1278   5.869   4.090   8.428 -0.4273 -0.4057  0.2137
   10SAPS  H20R 1279   5.924   4.146   8.506 -0.6830 -0.2040  0.2494
   10SAPS  H20S 1280   5.805   4.022   8.488  1.5403 -1.2702  1.4381
   10SAPS  H20T 1281   5.792   4.161   8.392  0.9547  0.7293 -0.5964
   10SAPS   C33 1282   6.428   2.923   7.195  0.0215  0.0345 -0.1238
   10SAPS   H3X 1283   6.491   2.842   7.153  0.5867 -0.3328  1.3568
   10SAPS   H3Y 1284   6.323   2.911   7.159 -0.2086 -1.9297  1.0240
   10SAPS   C34 1285   6.436   2.909   7.350 -0.1179 -0.5317  0.1215
   10SAPS   H4X 1286   6.390   3.004   7.383 -0.9753 -0.0650 -2.1783
   10SAPS   H4Y 1287   6.543   2.905   7.380  0.5504  0.3912 -1.9232
   10SAPS   C35 1288   6.360   2.789   7.397 -0.5817 -0.5286 -1.1543
   10SAPS   H5X 1289   6.416   2.696   7.377 -0.9845 -1.1954  0.6457
   10SAPS   H5Y 1290   6.261   2.769   7.350 -1.3006 -2.8250  1.0592
   10SAPS   C36 1291   6.351   2.789   7.551 -0.5238  0.8307 -0.9205
   10SAPS   H6X 1292   6.329   2.891   7.589  1.6901  0.5547  1.3977
   10SAPS   H6Y 1293   6.446   2.764   7.604 -1.9289  0.8347  1.7303
   10SAPS   C37 1294   6.233   2.706   7.612 -0.3454  0.0419  0.0842
   10SAPS   H7X 1295   6.236   2.596   7.595  1.3237  0.2353 -1.1247
   10SAPS   H7Y 1296   6.134   2.721   7.564 -0.4360 -0.6112  0.0521
   10SAPS   C38 1297   6.221   2.734   7.763 -0.5103  0.0165  0.1914
   10SAPS   H8X 1298   6.130   2.682   7.800  0.4136 -1.5835  0.2728
   10SAPS   H8Y 1299   6.188   2.840   7.764 -0.1131  0.1439  0.1305
   10SAPS   C39 1300   6.351   2.706   7.850 -0.1346 -0.7675 -1.1864
   10SAPS   H9X 1301   6.435   2.776   7.833  0.5469 -1.4802 -0.8305
   10SAPS   H9Y 1302   6.386   2.601   7.840 -0.1457 -0.8723 -0.2412
   10SAPS  C310 1303   6.331   2.722   8.002 -0.3009 -0.6205 -0.5071
   10SAPS  H10X 1304   6.418   2.666   8.043  0.4716  0.2410 -0.9280
   10SAPS  H10Y 1305   6.238   2.674   8.040  0.3040  0.3296  2.3427
   10SAPS  C311 1306   6.342   2.872   8.046 -0.7348  0.0060  0.2277
   10SAPS  H11X 1307   6.239   2.912   8.036 -0.8196 -0.0031  1.0446
   10SAPS  H11Y 1308   6.413   2.919   7.974 -0.0241  0.9848  1.5162
   10SAPS  C312 1309   6.388   2.896   8.188  0.3387  0.0695 -0.5601
   10SAPS  H12X 1310   6.413   3.004   8.185  0.5232  0.1032  1.2131
   10SAPS  H12Y 1311   6.482   2.838   8.197 -0.8804 -2.0814 -0.9569
   10SAPS  C313 1312   6.286   2.864   8.297 -0.1741  0.0154  0.2453
   10SAPS  H13X 1313   6.333   2.900   8.391  0.1393  1.5424 -0.4672
   10SAPS  H13Y 1314   6.263   2.757   8.312 -1.0104  0.3471  1.4694
   10SAPS  C314 1315   6.151   2.939   8.277 -0.1823 -0.8121 -0.1229
   10SAPS  H14X 1316   6.092   2.907   8.188 -1.6286 -1.1191  0.9136
   10SAPS  H14Y 1317   6.162   3.049   8.271 -0.4278 -0.8678 -2.7243
   10SAPS  C315 1318   6.067   2.898   8.395 -0.3144 -0.2634 -0.4904
   10SAPS  H15X 1319   6.103   2.797   8.425  0.7370  0.1949 -0.1521
   10SAPS  H15Y 1320   5.958   2.897   8.373 -0.2231 -0.5737 -0.9421
   10SAPS  C316 1321   6.094   2.999   8.515  0.1722  0.4728  0.2813
   10SAPS  H16X 1322   6.090   3.100   8.467 -1.1136  1.1649  1.7606
   10SAPS  H16Y 1323   6.194   2.982   8.559  0.7528 -1.6682 -1.6383
   10SAPS  C317 1324   5.984   2.973   8.617  0.8209 -0.1533  0.1300
   10SAPS  H17X 1325   6.019   2.909   8.701 -1.0579  1.1199  1.9790
   10SAPS  H17Y 1326   5.902   2.926   8.559 -0.6938  0.4439  1.7049
   10SAPS  C318 1327   5.934   3.108   8.680 -0.2184 -0.0841 -0.6174
   10SAPS  H18X 1328   6.020   3.161   8.727 -0.9762  1.8256 -1.3106
   10SAPS  H18Y 1329   5.860   3.089   8.760  0.2820  1.0611  0.1483
   10SAPS  H18Z 1330   5.897   3.177   8.601 -0.2760  0.7457  0.1131
   11SAPS     N 1331   2.416   1.169   5.702 -0.5993  0.3090  0.0941
   11SAPS   HN1 1332   2.361   1.256   5.688 -1.4428 -0.4172 -1.3939
   11SAPS   HN2 1333   2.452   1.165   5.800 -3.8968  0.5174  1.4575
   11SAPS   HN3 1334   2.493   1.168   5.632 -0.0636  0.1705  0.6759
   11SAPS   C12 1335   2.322   1.052   5.679 -0.1774  0.2757 -0.0547
   11SAPS  H12A 1336   2.260   1.055   5.767  0.8579  2.0874  0.6628
   11SAPS   C13 1337   2.222   1.070   5.560 -0.2137  0.4921 -0.3209
   11SAPS  O13A 1338   2.209   1.191   5.517 -0.7694 -0.0339 -0.3615
   11SAPS  O13B 1339   2.131   0.988   5.531 -0.1385  0.5611  0.0063
   11SAPS   C11 1340   2.404   0.920   5.672 -0.8341 -0.0568 -0.4374
   11SAPS  H11A 1341   2.451   0.913   5.571 -0.2690  1.1181 -0.2638
   11SAPS  H11B 1342   2.333   0.834   5.668  1.0809 -1.7663  0.2908
   11SAPS     P 1343   2.571   0.766   5.789 -0.4873  0.2423  0.0016
   11SAPS   O13 1344   2.563   0.684   5.668 -0.0402  0.6747  0.5330
   11SAPS   O14 1345   2.705   0.781   5.858 -0.2745  0.0130  0.0522
   11SAPS   O12 1346   2.511   0.907   5.767  0.4761 -0.6437  0.2658
   11SAPS   O11 1347   2.470   0.688   5.884  0.3683 -0.5734  0.3112
   11SAPS    C1 1348   2.420   0.745   6.003 -0.0247  0.4394  0.1067
   11SAPS    HA 1349   2.405   0.670   6.084 -1.8432 -1.4453 -1.8473
   11SAPS    HB 1350   2.479   0.828   6.048 -0.8394  0.2650  1.5752
   11SAPS    C2 1351   2.269   0.793   5.983 -0.4287 -0.4267  0.5187
   11SAPS    HS 1352   2.292   0.891   5.936 -0.2176  0.0884  1.6635
   11SAPS   O21 1353   2.213   0.806   6.117  0.2827  0.2153 -0.8166
   11SAPS   C21 1354   2.260   0.918   6.188  0.7721 -0.2443 -0.1893
   11SAPS   O22 1355   2.349   0.989   6.142  0.3036  0.1393  0.3477
   11SAPS   C22 1356   2.184   0.941   6.314 -0.3847  0.2771 -0.2027
   11SAPS   H2R 1357   2.078   0.911   6.300  0.2156 -1.0588 -2.4453
   11SAPS   H2S 1358   2.215   0.874   6.397  0.4409  0.7439 -0.1210
   11SAPS    C3 1359   2.193   0.692   5.896 -0.1301 -0.0784 -0.1374
   11SAPS    HX 1360   2.237   0.698   5.794  0.3581  4.5534  0.1275
   11SAPS    HY 1361   2.091   0.735   5.888 -1.0692 -1.7693  1.8736
   11SAPS   O31 1362   2.197   0.554   5.944 -0.2573  0.2531  0.4280
   11SAPS   C31 1363   2.105   0.479   5.885  0.4614 -0.1753  0.6546
   11SAPS   O32 1364   2.035   0.514   5.789  1.1193  0.9157 -0.3164
   11SAPS   C32 1365   2.089   0.348   5.967 -0.4736 -0.5512  0.7140
   11SAPS   H2X 1366   2.173   0.329   6.037 -0.8689  1.1806  1.6943
   11SAPS   H2Y 1367   2.083   0.263   5.896 -0.8749 -0.7019  0.9258
   11SAPS   C23 1368   2.195   1.094   6.360  0.0792  0.5157 -0.0849
   11SAPS   H3R 1369   2.160   1.170   6.288 -1.8695  0.0543  0.3172
   11SAPS   H3S 1370   2.300   1.113   6.393  0.0831  1.7694 -0.7516
   11SAPS   C24 1371   2.098   1.102   6.484 -0.7892 -0.3655 -0.2541
   11SAPS   H4R 1372   2.120   1.033   6.569 -1.5132 -1.8180 -1.1991
   11SAPS   H4S 1373   1.999   1.067   6.449 -0.7541  0.1900 -0.9180
   11SAPS   C25 1374   2.089   1.248   6.523 -0.0830  0.3830  0.5497
   11SAPS   H5R 1375   2.018   1.315   6.473  2.5411  2.8394 -0.1360
   11SAPS   C26 1376   2.171   1.301   6.618 -0.0712  0.0725  0.2515
   11SAPS   H6R 1377   2.141   1.401   6.654  0.8483  0.3733  0.2101
   11SAPS   C27 1378   2.277   1.240   6.704 -0.0345  0.3045  0.3551
   11SAPS   H7R 1379   2.298   1.135   6.676 -2.3114 -0.6449  1.8655
   11SAPS   H7S 1380   2.232   1.222   6.804 -0.7438  2.6998  0.5486
   11SAPS   C28 1381   2.399   1.324   6.732  0.1287 -0.0825 -0.0288
   11SAPS   H8R 1382   2.406   1.413   6.668 -1.5935  0.1280  0.0396
   11SAPS   C29 1383   2.496   1.302   6.818 -0.3312 -0.3541 -0.0620
   11SAPS   H9R 1384   2.578   1.376   6.825  1.6868 -2.5253  0.7112
   11SAPS  C210 1385   2.502   1.193   6.918  0.3636 -0.2041  0.5152
   11SAPS  H10R 1386   2.423   1.116   6.911  0.8059 -0.6710  0.5602
   11SAPS  H10S 1387   2.491   1.235   7.020 -1.0567 -0.2104  0.3840
   11SAPS  C211 1388   2.647   1.138   6.915  0.0247  0.2185  0.7292
   11SAPS  H11R 1389   2.696   1.168   6.821  0.1855  0.3519  0.8536
   11SAPS  C212 1390   2.704   1.063   7.016 -0.3050  0.1366  0.1102
   11SAPS  H12R 1391   2.808   1.031   6.997 -0.2613  0.0110  0.5446
   11SAPS  C213 1392   2.632   1.016   7.139  0.5428  0.6046 -0.0959
   11SAPS  H13R 1393   2.522   1.020   7.120  0.4640 -1.3460 -0.2104
   11SAPS  H13S 1394   2.654   1.070   7.234  1.7744 -2.0875  1.2499
   11SAPS  C214 1395   2.652   0.867   7.153 -0.3766  0.7915 -0.1195
   11SAPS  H14R 1396   2.684   0.812   7.063 -1.2358 -0.4123  0.2729
   11SAPS  C215 1397   2.637   0.798   7.266 -0.6771  0.6898  0.5793
   11SAPS  H15R 1398   2.638   0.688   7.256 -2.7843  0.5433  1.3963
   11SAPS  C216 1399   2.598   0.834   7.404  0.1412  0.0397 -0.0755
   11SAPS  H16R 1400   2.489   0.821   7.421  0.0882  0.4012 -0.1146
   11SAPS  H16S 1401   2.619   0.943   7.412  0.6749  0.4574 -4.6465
   11SAPS  C217 1402   2.679   0.773   7.509 -0.3267 -0.5825  0.0813
   11SAPS  H17R 1403   2.786   0.798   7.493 -0.6276  2.6815  2.1507
   11SAPS  H17S 1404   2.674   0.662   7.509  0.6137 -0.6351 -0.7700
   11SAPS  C218 1405   2.640   0.825   7.656 -0.2177  0.3232 -0.1055
   11SAPS  H18R 1406   2.704   0.775   7.732 -0.3591 -0.7252 -0.6523
   11SAPS  H18S 1407   2.536   0.796   7.684 -0.0831  1.0690  1.2151
   11SAPS  C219 1408   2.670   0.974   7.686 -0.1930  0.3659 -0.1508
   11SAPS  H19R 1409   2.616   1.027   7.605 -3.0282  1.2452  2.1414
   11SAPS  H19S 1410   2.780   0.987   7.676  0.0320 -1.3459 -0.2625
   11SAPS  C220 1411   2.607   1.023   7.815 -0.0635  0.5854 -0.6950
   11SAPS  H20R 1412   2.500   0.999   7.831  0.1497  0.5880  0.8520
   11SAPS  H20S 1413   2.635   1.130   7.816  3.1420 -0.1128  1.7025
   11SAPS  H20T 1414   2.666   0.984   7.901  0.6887  3.2637  0.1037
   11SAPS   C33 1415   1.956   0.336   6.043 -0.0228  0.0500  0.4839
   11SAPS   H3X 1416   1.961   0.241   6.099 -0.2915  0.8065  1.8264
   11SAPS   H3Y 1417   1.874   0.336   5.967 -0.9637  1.2770  1.4549
   11SAPS   C34 1418   1.933   0.456   6.142 -0.1854 -0.3542 -0.5961
   11SAPS   H4X 1419   1.832   0.432   6.181 -0.9933 -1.0607 -2.9182
   11SAPS   H4Y 1420   1.925   0.552   6.087  0.4063  0.9264  1.4701
   11SAPS   C35 1421   2.031   0.467   6.257 -0.3893 -0.0478 -0.2031
   11SAPS   H5X 1422   2.137   0.448   6.232 -0.3417 -2.8548  1.6352
   11SAPS   H5Y 1423   1.999   0.411   6.348 -0.8474  0.4485 -0.0558
   11SAPS   C36 1424   2.026   0.607   6.319  0.2518  0.3950 -0.8596
   11SAPS   H6X 1425   2.041   0.697   6.257 -1.6642  1.9565  0.8004
   11SAPS   H6Y 1426   2.112   0.607   6.390  0.5068  0.1515 -1.1664
   11SAPS   C37 1427   1.901   0.634   6.410  0.9128  0.8503  0.4209
   11SAPS   H7X 1428   1.908   0.554   6.488 -0.7588  0.4196  0.1779
   11SAPS   H7Y 1429   1.810   0.613   6.349  2.2725 -0.2644 -1.3150
   11SAPS   C38 1430   1.900   0.769   6.480 -0.4179 -0.1668 -0.5757
   11SAPS   H8X 1431   1.865   0.856   6.420  1.3270 -0.5632 -2.2596
   11SAPS   H8Y 1432   2.003   0.784   6.520 -1.0354 -0.3121  1.1644
   11SAPS   C39 1433   1.826   0.767   6.611  0.4623 -0.2244  0.1352
   11SAPS   H9X 1434   1.876   0.703   6.687  0.5547 -0.0013  0.2633
   11SAPS   H9Y 1435   1.723   0.727   6.598  0.2435  0.5710 -0.7144
   11SAPS  C310 1436   1.818   0.905   6.674 -0.5121 -0.5393  0.7221
   11SAPS  H10X 1437   1.753   0.971   6.611  1.0355 -1.5184 -2.0895
   11SAPS  H10Y 1438   1.918   0.952   6.679 -1.2888  1.3066 -0.1715
   11SAPS  C311 1439   1.750   0.908   6.810  0.2114  0.1548 -0.1543
   11SAPS  H11X 1440   1.656   0.849   6.802 -0.5663  1.4890 -1.4145
   11SAPS  H11Y 1441   1.725   1.009   6.850  1.4838 -0.7549  3.3251
   11SAPS  C312 1442   1.843   0.869   6.921 -0.0291 -0.1105  0.4014
   11SAPS  H12X 1443   1.946   0.905   6.905 -0.2742  1.0977  1.3480
   11SAPS  H12Y 1444   1.860   0.759   6.917 -2.0557 -0.6895  3.5785
   11SAPS  C313 1445   1.778   0.914   7.056 -0.4420  0.0574  0.3324
   11SAPS  H13X 1446   1.688   0.851   7.073 -2.7655  3.0368 -0.1670
   11SAPS  H13Y 1447   1.739   1.018   7.058 -0.6424 -0.0298  1.0077
   11SAPS  C314 1448   1.878   0.899   7.168 -1.0355 -0.3370 -0.4615
   11SAPS  H14X 1449   1.945   0.987   7.164  0.2493 -1.2167  0.5730
   11SAPS  H14Y 1450   1.943   0.811   7.147  1.8673  1.8756 -1.4441
   11SAPS  C315 1451   1.809   0.887   7.301  0.5177  0.2060  0.3179
   11SAPS  H15X 1452   1.755   0.791   7.311 -1.9860  1.2736 -1.7925
   11SAPS  H15Y 1453   1.727   0.962   7.297 -0.2423 -0.6594 -2.4572
   11SAPS  C316 1454   1.904   0.895   7.419 -0.6106  0.3209 -0.3203
   11SAPS  H16X 1455   1.994   0.957   7.395 -0.5681  0.2823 -0.2602
   11SAPS  H16Y 1456   1.940   0.794   7.446  0.5946  0.9569  0.5758
   11SAPS  C317 1457   1.846   0.961   7.547 -0.2231  0.5759 -0.7131
   11SAPS  H17X 1458   1.769   0.887   7.577 -0.3473  0.8278 -0.4094
   11SAPS  H17Y 1459   1.807   1.061   7.519  1.3572  1.4555  0.1035
   11SAPS  C318 1460   1.954   0.978   7.655  0.9239  0.2323 -0.2964
   11SAPS  H18X 1461   1.906   0.974   7.755 -0.6567 -0.5506 -1.0452
   11SAPS  H18Y 1462   2.000   1.078   7.640  0.1428  0.8248  1.1008
   11SAPS  H18Z 1463   2.027   0.897   7.630  0.6401  0.3478 -1.5802
   12SAPS     N 1464   2.889   1.556   5.733 -0.6097 -0.2592  0.1803
   12SAPS   HN1 1465   2.821   1.633   5.724 -1.6337 -1.0787  0.7269
   12SAPS   HN2 1466   2.942   1.554   5.643  0.6999 -1.2714  0.9201
   12SAPS   HN3 1467   2.847   1.465   5.763  0.0020 -0.9778 -1.0409
   12SAPS   C12 1468   2.975   1.606   5.843 -0.5767 -0.0489  0.4146
   12SAPS  H12A 1469   3.034   1.521   5.874 -1.0178 -0.1715  0.9218
   12SAPS   C13 1470   3.070   1.720   5.810 -0.0868 -0.6240  0.0723
   12SAPS  O13A 1471   3.057   1.774   5.699  0.4314  0.1013 -0.5832
   12SAPS  O13B 1472   3.134   1.776   5.904  0.2425 -0.2015  0.6212
   12SAPS   C11 1473   2.894   1.651   5.960 -0.1974  0.3128 -0.1449
   12SAPS  H11A 1474   2.958   1.683   6.045 -0.1679  1.2624 -0.5108
   12SAPS  H11B 1475   2.841   1.565   6.005  0.4513  0.0738  0.1714
   12SAPS     P 1476   2.659   1.763   5.992  0.3455 -0.7006  0.3026
   12SAPS   O13 1477   2.575   1.861   5.923 -0.1842 -0.1627  0.1138
   12SAPS   O14 1478   2.596   1.630   6.015 -0.3092 -0.3062 -0.4966
   12SAPS   O12 1479   2.800   1.757   5.932  0.1318  0.1444  0.2558
   12SAPS   O11 1480   2.689   1.829   6.132  0.3354 -0.2619 -0.2970
   12SAPS    C1 1481   2.715   1.748   6.244 -1.0243 -0.6459  0.2039
   12SAPS    HA 1482   2.683   1.643   6.226 -1.1823 -0.3238 -1.5187
   12SAPS    HB 1483   2.826   1.748   6.247 -0.9525 -0.2480 -1.4812
   12SAPS    C2 1484   2.648   1.786   6.376  0.1588 -0.5718  0.3113
   12SAPS    HS 1485   2.538   1.794   6.366  0.0377  0.0397  1.8079
   12SAPS   O21 1486   2.705   1.912   6.416 -0.3041  0.0092  0.0567
   12SAPS   C21 1487   2.641   2.024   6.373  1.3611 -0.1931  0.2822
   12SAPS   O22 1488   2.550   2.028   6.292 -0.1670  0.4104  0.0853
   12SAPS   C22 1489   2.691   2.144   6.446  0.4388  0.1831 -0.3156
   12SAPS   H2R 1490   2.780   2.103   6.499 -1.2335 -0.7320  1.9310
   12SAPS   H2S 1491   2.705   2.224   6.371  1.5195  0.5971  0.2976
   12SAPS    C3 1492   2.674   1.676   6.492 -0.4311 -0.4205 -0.2390
   12SAPS    HX 1493   2.785   1.674   6.494 -0.3714  0.8459 -1.1463
   12SAPS    HY 1494   2.637   1.583   6.445 -1.8339  0.0928 -0.2001
   12SAPS   O31 1495   2.620   1.697   6.620 -0.2540 -0.7673 -0.6122
   12SAPS   C31 1496   2.493   1.693   6.619 -0.4371 -0.4936  0.2486
   12SAPS   O32 1497   2.423   1.648   6.528  0.0939 -0.0972  0.1331
   12SAPS   C32 1498   2.437   1.747   6.746  0.4976  0.1586 -0.2945
   12SAPS   H2X 1499   2.469   1.853   6.756  0.5190  0.0892  0.4798
   12SAPS   H2Y 1500   2.482   1.683   6.825  1.9935  0.9959 -0.4495
   12SAPS   C23 1501   2.602   2.187   6.566 -0.0874  0.5064 -0.0308
   12SAPS   H3R 1502   2.495   2.164   6.547  0.3287 -0.4850 -1.2434
   12SAPS   H3S 1503   2.608   2.298   6.560  0.5870  0.4163 -1.3801
   12SAPS   C24 1504   2.638   2.137   6.710  0.3535  0.2778  0.0465
   12SAPS   H4R 1505   2.741   2.168   6.740 -0.1240  1.7431  0.2552
   12SAPS   H4S 1506   2.640   2.026   6.711  2.0982  0.2640 -0.9485
   12SAPS   C25 1507   2.533   2.195   6.801 -0.4547 -0.4148  0.3979
   12SAPS   H5R 1508   2.476   2.277   6.755 -0.5467  0.3726  1.8718
   12SAPS   C26 1509   2.500   2.143   6.920 -0.0019 -0.2611 -0.2763
   12SAPS   H6R 1510   2.428   2.206   6.975  0.9421 -2.0145  3.2270
   12SAPS   C27 1511   2.555   2.030   6.998 -0.1862  0.2858 -0.4821
   12SAPS   H7R 1512   2.640   2.077   7.053  2.3452 -1.8404 -2.2896
   12SAPS   H7S 1513   2.599   1.951   6.933 -2.5455 -1.7964  0.3172
   12SAPS   C28 1514   2.454   1.973   7.096  0.1859 -0.2748 -0.2716
   12SAPS   H8R 1515   2.370   1.923   7.047  0.0438  0.4452 -0.7804
   12SAPS   C29 1516   2.469   1.970   7.233 -0.8764 -0.7712 -0.0190
   12SAPS   H9R 1517   2.405   1.909   7.298  1.4091 -1.4448  1.7458
   12SAPS  C210 1518   2.584   2.026   7.315 -0.0527  0.8455 -0.4598
   12SAPS  H10R 1519   2.559   2.076   7.410  3.5449  3.2805 -0.5684
   12SAPS  H10S 1520   2.635   2.106   7.257 -0.5225  1.2479 -0.3256
   12SAPS  C211 1521   2.686   1.916   7.348  1.3543  0.8474  0.1309
   12SAPS  H11R 1522   2.747   1.887   7.261  1.3820  1.5852 -0.1065
   12SAPS  C212 1523   2.715   1.851   7.464 -1.2337 -0.5497  0.4249
   12SAPS  H12R 1524   2.786   1.768   7.454  0.9838  1.3790 -0.8919
   12SAPS  C213 1525   2.656   1.875   7.605  0.0372  0.2060  0.2874
   12SAPS  H13R 1526   2.638   1.985   7.610 -0.5997  0.1444 -0.3193
   12SAPS  H13S 1527   2.723   1.841   7.686 -0.6580 -1.5540  0.1781
   12SAPS  C214 1528   2.527   1.794   7.615  0.6830 -0.5654  0.5201
   12SAPS  H14R 1529   2.447   1.835   7.552  0.4634 -0.6579  0.7352
   12SAPS  C215 1530   2.510   1.677   7.680 -0.0753  0.4878  0.0957
   12SAPS  H15R 1531   2.413   1.625   7.687  0.7388 -1.2204 -0.6791
   12SAPS  C216 1532   2.630   1.604   7.741  0.5163 -0.0778  0.2095
   12SAPS  H16R 1533   2.722   1.620   7.680 -0.7682  0.9937 -1.5457
   12SAPS  H16S 1534   2.611   1.495   7.742 -2.3868  0.3442  0.6587
   12SAPS  C217 1535   2.642   1.633   7.891  0.0732 -0.3191  0.5228
   12SAPS  H17R 1536   2.650   1.742   7.908  0.5915 -0.4444  1.1426
   12SAPS  H17S 1537   2.738   1.590   7.928  1.3297 -0.1537 -2.3269
   12SAPS  C218 1538   2.529   1.582   7.973  0.6674 -0.7525  0.3542
   12SAPS  H18R 1539   2.507   1.474   7.970 -0.6972 -0.5226  1.2004
   12SAPS  H18S 1540   2.435   1.636   7.950  1.1450 -0.2973 -0.5820
   12SAPS  C219 1541   2.552   1.601   8.124 -0.0290 -0.4961  0.2348
   12SAPS  H19R 1542   2.458   1.568   8.174 -0.3339 -0.9770 -0.6375
   12SAPS  H19S 1543   2.580   1.708   8.133  4.2254 -1.2257 -1.8025
   12SAPS  C220 1544   2.652   1.500   8.180  0.4489 -0.1670  0.1709
   12SAPS  H20R 1545   2.612   1.400   8.153  0.5455  0.3871 -2.2149
   12SAPS  H20S 1546   2.676   1.515   8.288  1.2955  1.2394 -0.1854
   12SAPS  H20T 1547   2.746   1.496   8.122 -0.5134 -1.0260 -1.3910
   12SAPS   C33 1548   2.285   1.740   6.726  0.1619 -0.2995  0.8310
   12SAPS   H3X 1549   2.260   1.633   6.710 -1.3807  0.0156  1.0213
   12SAPS   H3Y 1550   2.253   1.791   6.633 -2.8282 -1.5314  1.0655
   12SAPS   C34 1551   2.207   1.778   6.857  0.1690 -0.6843  0.3665
   12SAPS   H4X 1552   2.098   1.781   6.833  0.4901  0.2885 -1.1556
   12SAPS   H4Y 1553   2.236   1.882   6.885  0.0005 -0.7501  0.7914
   12SAPS   C35 1554   2.228   1.678   6.967 -0.1197  0.0636 -0.0424
   12SAPS   H5X 1555   2.337   1.659   6.981  0.1124  1.2088 -0.2535
   12SAPS   H5Y 1556   2.168   1.588   6.939 -0.2889  0.3297 -0.5408
   12SAPS   C36 1557   2.158   1.732   7.093  0.0186 -0.1290 -0.5252
   12SAPS   H6X 1558   2.052   1.738   7.058 -0.0457  1.9626 -0.1171
   12SAPS   H6Y 1559   2.183   1.834   7.129  0.7360 -1.1282  2.0620
   12SAPS   C37 1560   2.174   1.632   7.207  0.0012  0.4750  0.1388
   12SAPS   H7X 1561   2.277   1.630   7.249  0.4589 -1.8086 -0.9342
   12SAPS   H7Y 1562   2.157   1.526   7.176 -1.6251  0.2394  1.6989
   12SAPS   C38 1563   2.072   1.669   7.310  0.1269 -0.5960 -0.5230
   12SAPS   H8X 1564   1.972   1.643   7.271 -0.5656  0.2112  0.6321
   12SAPS   H8Y 1565   2.073   1.780   7.314 -0.1580 -0.5609 -1.2992
   12SAPS   C39 1566   2.102   1.597   7.440  0.1610  0.1103  0.2876
   12SAPS   H9X 1567   2.210   1.588   7.467  1.2815  0.1123 -3.6829
   12SAPS   H9Y 1568   2.074   1.490   7.431  0.3269  0.0009  1.0096
   12SAPS  C310 1569   2.014   1.654   7.553 -0.0339 -0.4439  0.7780
   12SAPS  H10X 1570   1.905   1.646   7.529  0.2788 -2.0092 -0.2487
   12SAPS  H10Y 1571   2.029   1.764   7.552 -3.1816  0.1488 -2.4051
   12SAPS  C311 1572   2.043   1.608   7.699  0.1112  0.5132 -0.5489
   12SAPS  H11X 1573   2.148   1.630   7.728 -0.3486  1.7374  0.3268
   12SAPS  H11Y 1574   2.022   1.499   7.702  1.1588  0.3180  0.9067
   12SAPS  C312 1575   1.936   1.662   7.797 -0.5036 -0.0260 -0.1087
   12SAPS  H12X 1576   1.840   1.614   7.767 -0.9360  0.0100  1.1592
   12SAPS  H12Y 1577   1.916   1.771   7.797 -1.2993 -0.1600  0.9505
   12SAPS  C313 1578   1.970   1.612   7.942 -0.4842 -0.7957 -0.8824
   12SAPS  H13X 1579   2.067   1.653   7.977 -2.0718 -0.4269  3.7540
   12SAPS  H13Y 1580   1.970   1.501   7.936 -1.9599 -0.7811 -1.6865
   12SAPS  C314 1581   1.860   1.658   8.035  0.2527 -0.3922  0.2234
   12SAPS  H14X 1582   1.769   1.599   8.013  0.5942 -0.4479 -1.1131
   12SAPS  H14Y 1583   1.841   1.764   8.008  1.3956  0.1593  1.4593
   12SAPS  C315 1584   1.896   1.650   8.182  0.6134  0.3126 -0.5489
   12SAPS  H15X 1585   1.809   1.689   8.240  0.1601  0.0606 -1.0542
   12SAPS  H15Y 1586   1.986   1.706   8.215  1.5615 -1.3171 -0.2732
   12SAPS  C316 1587   1.927   1.505   8.220 -0.2956 -0.3516  0.6691
   12SAPS  H16X 1588   2.019   1.468   8.169 -1.2300 -4.3862  1.5631
   12SAPS  H16Y 1589   1.853   1.426   8.194 -0.3556 -0.4120  1.0309
   12SAPS  C317 1590   1.952   1.471   8.366 -0.2895 -0.0059 -0.0642
   12SAPS  H17X 1591   1.976   1.364   8.377 -3.4069 -0.8056 -0.0619
   12SAPS  H17Y 1592   1.858   1.486   8.424  2.0251  3.5493  3.3055
   12SAPS  C318 1593   2.065   1.549   8.425  0.1087  0.7226 -0.4353
   12SAPS  H18X 1594   2.082   1.514   8.529  1.4971  0.5788 -0.6943
   12SAPS  H18Y 1595   2.049   1.659   8.425 -2.7153  0.3899 -0.0209
   12SAPS  H18Z 1596   2.160   1.510   8.384  0.5544  1.7088 -0.3800
   13SAPS     N 1597   1.593   6.141   5.894  0.3348 -0.7266 -0.1388
   13SAPS   HN1 1598   1.535   6.141   5.808  2.9018 -0.1819 -1.9679
   13SAPS   HN2 1599   1.609   6.241   5.919  1.3440 -1.3991  2.1210
   13SAPS   HN3 1600   1.689   6.112   5.870  0.8927  1.6437 -1.0548
   13SAPS   C12 1601   1.545   6.060   6.005 -0.7353  0.1739 -0.2296
   13SAPS  H12A 1602   1.622   6.077   6.079  0.7302 -0.1515 -1.6012
   13SAPS   C13 1603   1.405   6.086   6.055  0.4824 -0.7081  0.7937
   13SAPS  O13A 1604   1.342   6.187   6.022 -0.1800 -0.8747  0.0535
   13SAPS  O13B 1605   1.373   6.019   6.155 -0.1109 -0.7320  0.0768
   13SAPS   C11 1606   1.553   5.909   5.958 -0.8132  0.7351 -0.5684
   13SAPS  H11A 1607   1.485   5.889   5.873 -0.2337  0.7565 -1.0426
   13SAPS  H11B 1608   1.507   5.843   6.035  2.0659 -4.1899 -2.5559
   13SAPS     P 1609   1.760   5.757   6.009 -0.0632  0.1659 -0.1775
   13SAPS   O13 1610   1.668   5.635   6.004  0.3254 -0.0120 -0.0650
   13SAPS   O14 1611   1.898   5.734   5.951  0.4550 -0.0106  0.1696
   13SAPS   O12 1612   1.690   5.871   5.932  0.2419  0.2273 -0.0892
   13SAPS   O11 1613   1.769   5.801   6.164  0.0271 -0.4875 -0.0769
   13SAPS    C1 1614   1.846   5.927   6.189 -0.2115  0.1354 -0.2346
   13SAPS    HA 1615   1.928   5.937   6.115  0.5006  1.1015  0.6551
   13SAPS    HB 1616   1.782   6.017   6.176 -1.1702 -0.6302 -0.9825
   13SAPS    C2 1617   1.895   5.937   6.334  0.7046  0.6210  0.5706
   13SAPS    HS 1618   1.927   5.834   6.361  1.9777  1.2391  1.5368
   13SAPS   O21 1619   1.787   5.987   6.407  0.2345 -0.8401  0.0710
   13SAPS   C21 1620   1.780   5.922   6.523 -0.0697 -0.7501  0.1364
   13SAPS   O22 1621   1.839   5.817   6.555 -0.0888 -0.8473  0.7343
   13SAPS   C22 1622   1.668   5.990   6.613 -0.2849 -0.7262 -0.8443
   13SAPS   H2R 1623   1.698   6.097   6.613 -2.3770 -0.1107 -0.4481
   13SAPS   H2S 1624   1.573   5.991   6.555 -0.6315  1.6047 -0.3360
   13SAPS    C3 1625   2.019   6.031   6.355  0.1845 -0.1353 -0.0076
   13SAPS    HX 1626   1.978   6.128   6.322  0.9467 -0.0711 -0.7865
   13SAPS    HY 1627   2.101   6.018   6.282 -1.8933  0.7779 -2.6594
   13SAPS   O31 1628   2.063   6.029   6.489  0.0500 -0.1999 -0.5120
   13SAPS   C31 1629   2.140   5.921   6.527 -0.1081  0.6998 -0.3560
   13SAPS   O32 1630   2.174   5.834   6.448  0.3381  0.4293  0.0218
   13SAPS   C32 1631   2.196   5.937   6.664 -0.2846 -0.4075  0.1091
   13SAPS   H2X 1632   2.298   5.975   6.642 -0.7725  0.1219 -1.3800
   13SAPS   H2Y 1633   2.199   5.842   6.721 -1.1605  0.8849  2.4362
   13SAPS   C23 1634   1.633   5.944   6.756  0.0502  0.0932  0.4877
   13SAPS   H3R 1635   1.718   5.889   6.802  2.6981  0.5841 -3.3041
   13SAPS   H3S 1636   1.547   5.875   6.744 -0.6487  1.2160 -1.5583
   13SAPS   C24 1637   1.580   6.059   6.843 -0.2173 -0.0919  0.0298
   13SAPS   H4R 1638   1.527   6.021   6.933 -1.5107 -0.2188 -0.7571
   13SAPS   H4S 1639   1.505   6.114   6.782 -1.4428  1.1808  2.5371
   13SAPS   C25 1640   1.688   6.156   6.884 -0.0237 -0.2652 -0.3458
   13SAPS   H5R 1641   1.709   6.236   6.812 -1.3716  1.8176  1.4253
   13SAPS   C26 1642   1.748   6.159   7.005 -0.2705  0.1180 -0.4997
   13SAPS   H6R 1643   1.828   6.233   7.018 -1.5754  1.6273 -0.7308
   13SAPS   C27 1644   1.739   6.052   7.109  0.8116 -0.9019 -0.1890
   13SAPS   H7R 1645   1.837   6.001   7.122  1.8790  1.0490 -0.1969
   13SAPS   H7S 1646   1.672   5.969   7.081 -0.4462 -0.7569  2.1352
   13SAPS   C28 1647   1.684   6.110   7.237 -0.3349 -0.2163 -0.7070
   13SAPS   H8R 1648   1.614   6.195   7.242  0.6608  0.5668  0.7352
   13SAPS   C29 1649   1.729   6.069   7.355 -0.2111  0.0788 -0.7840
   13SAPS   H9R 1650   1.683   6.110   7.446  0.7775 -0.5646  0.0227
   13SAPS  C210 1651   1.828   5.953   7.386 -0.3725  0.0528  0.0965
   13SAPS  H10R 1652   1.862   5.894   7.298 -1.5057 -0.2718 -0.1416
   13SAPS  H10S 1653   1.774   5.884   7.455  1.5508 -1.5402  0.1034
   13SAPS  C211 1654   1.953   6.016   7.444  0.2107 -0.1568  0.0556
   13SAPS  H11R 1655   1.995   6.098   7.384 -2.8115  0.9456 -0.7334
   13SAPS  C212 1656   2.023   5.983   7.557  0.6788  0.1842 -0.1517
   13SAPS  H12R 1657   2.084   6.061   7.605 -0.6757  0.8760  0.4797
   13SAPS  C213 1658   1.964   5.883   7.656  0.0744  0.3285  0.0769
   13SAPS  H13R 1659   1.998   5.785   7.616 -0.6820 -0.9428  2.3663
   13SAPS  H13S 1660   1.853   5.892   7.658  0.1622  1.5579  0.3398
   13SAPS  C214 1661   2.024   5.893   7.795 -0.1159  0.1029  0.2574
   13SAPS  H14R 1662   2.096   5.816   7.827  0.3699  0.4864  0.0965
   13SAPS  C215 1663   1.985   5.985   7.886 -0.3638  0.3584 -0.4011
   13SAPS  H15R 1664   2.039   5.986   7.982  2.3924  0.9615 -1.8425
   13SAPS  C216 1665   1.888   6.089   7.855  0.6638  0.5689  0.3960
   13SAPS  H16R 1666   1.809   6.045   7.790  1.6950  0.3754 -0.7730
   13SAPS  H16S 1667   1.924   6.178   7.799 -1.4947  2.9043  2.4969
   13SAPS  C217 1668   1.824   6.144   7.979 -0.1644  0.2200  0.2056
   13SAPS  H17R 1669   1.887   6.181   8.063 -1.0299 -0.0938  1.0064
   13SAPS  H17S 1670   1.773   6.061   8.031  0.5132 -0.3822 -0.0803
   13SAPS  C218 1671   1.729   6.256   7.939  0.3179  0.0177 -0.1134
   13SAPS  H18R 1672   1.640   6.219   7.883  0.6583  0.4460 -0.9558
   13SAPS  H18S 1673   1.784   6.319   7.866  0.5724  0.0808  0.1327
   13SAPS  C219 1674   1.691   6.348   8.057 -0.4297  0.3435  0.2862
   13SAPS  H19R 1675   1.784   6.381   8.109  0.1480  1.2389 -1.2471
   13SAPS  H19S 1676   1.630   6.287   8.127 -1.2710  1.7765  0.8401
   13SAPS  C220 1677   1.622   6.484   8.011 -0.5429  0.2394 -0.4588
   13SAPS  H20R 1678   1.584   6.543   8.097 -0.5768 -0.7421  0.2124
   13SAPS  H20S 1679   1.533   6.446   7.956 -0.0722 -1.6714  0.0159
   13SAPS  H20T 1680   1.697   6.551   7.963  0.9167  0.6370  2.2080
   13SAPS   C33 1681   2.132   6.059   6.735  0.2247  0.4950 -0.7764
   13SAPS   H3X 1682   2.024   6.038   6.743  0.1936  0.2674 -1.6685
   13SAPS   H3Y 1683   2.138   6.155   6.678  1.3459  1.1957  0.4512
   13SAPS   C34 1684   2.194   6.070   6.883 -0.1055  0.2780  0.7709
   13SAPS   H4X 1685   2.305   6.080   6.876 -0.2831  1.5187 -1.1363
   13SAPS   H4Y 1686   2.154   5.980   6.934  0.7818 -0.6783 -0.1632
   13SAPS   C35 1687   2.160   6.211   6.951 -0.2287  0.6570 -0.0172
   13SAPS   H5X 1688   2.070   6.257   6.905 -0.1604  0.7943 -0.0137
   13SAPS   H5Y 1689   2.245   6.281   6.939  1.1115 -0.9306 -0.1916
   13SAPS   C36 1690   2.143   6.201   7.099  0.3234  0.0015  0.2856
   13SAPS   H6X 1691   2.073   6.117   7.122  0.1953 -0.4569 -1.5434
   13SAPS   H6Y 1692   2.106   6.299   7.136 -1.3101 -0.3197 -0.3844
   13SAPS   C37 1693   2.283   6.165   7.167 -0.0332  0.1319  0.3035
   13SAPS   H7X 1694   2.360   6.222   7.110  0.0757  2.2092  2.3632
   13SAPS   H7Y 1695   2.294   6.055   7.156 -0.6082 -0.0631  1.5278
   13SAPS   C38 1696   2.299   6.199   7.315  0.7435  0.0950  0.0719
   13SAPS   H8X 1697   2.201   6.164   7.355  1.1449 -1.6080 -0.3826
   13SAPS   H8Y 1698   2.296   6.309   7.327  0.3744  0.3581 -2.0691
   13SAPS   C39 1699   2.430   6.142   7.376 -0.0485  0.3382  0.0623
   13SAPS   H9X 1700   2.508   6.219   7.358 -1.6997  2.4142  1.2065
   13SAPS   H9Y 1701   2.444   6.040   7.335  1.2237  0.2198  0.7547
   13SAPS  C310 1702   2.424   6.139   7.527  0.3099 -0.3602  0.0874
   13SAPS  H10X 1703   2.330   6.193   7.551  1.3185  2.5487 -1.8439
   13SAPS  H10Y 1704   2.510   6.198   7.566  0.0069  0.6625 -0.7512
   13SAPS  C311 1705   2.429   6.008   7.595  0.1626 -0.6520 -0.3344
   13SAPS  H11X 1706   2.530   5.962   7.590 -0.3527 -1.7674 -0.7040
   13SAPS  H11Y 1707   2.365   5.934   7.543 -0.0107 -0.8197  0.1078
   13SAPS  C312 1708   2.400   6.010   7.744  0.7984  0.2442  0.0358
   13SAPS  H12X 1709   2.302   6.054   7.773  1.2015 -0.8012  3.3806
   13SAPS  H12Y 1710   2.480   6.069   7.794 -0.1010 -0.3420  2.2805
   13SAPS  C313 1711   2.405   5.860   7.804 -0.3335 -0.5502  0.1073
   13SAPS  H13X 1712   2.488   5.815   7.745  1.0633  2.3943 -0.3679
   13SAPS  H13Y 1713   2.307   5.813   7.780 -0.4659  1.2011 -3.3865
   13SAPS  C314 1714   2.437   5.860   7.948  0.1960  0.5927 -0.4092
   13SAPS  H14X 1715   2.546   5.882   7.956  0.3861 -0.5883  0.7042
   13SAPS  H14Y 1716   2.434   5.752   7.973  0.8530  0.7120  0.2378
   13SAPS  C315 1717   2.348   5.945   8.039 -0.8978 -0.0431  1.0895
   13SAPS  H15X 1718   2.251   5.891   8.032 -1.2170  0.6405  0.0184
   13SAPS  H15Y 1719   2.316   6.044   8.000 -0.5647 -0.1661  0.4804
   13SAPS  C316 1720   2.388   5.957   8.185 -0.3861 -0.1756  1.4218
   13SAPS  H16X 1721   2.415   5.855   8.221 -2.0328 -1.4290 -0.6309
   13SAPS  H16Y 1722   2.297   5.990   8.239 -0.3461 -1.4110  2.2857
   13SAPS  C317 1723   2.517   6.039   8.213  0.2409 -0.5705 -0.0320
   13SAPS  H17X 1724   2.487   6.139   8.177 -0.9208 -1.1574 -0.7505
   13SAPS  H17Y 1725   2.600   6.017   8.143  1.2063  1.8445  0.2517
   13SAPS  C318 1726   2.580   6.026   8.356 -0.0749  0.3184 -0.0757
   13SAPS  H18X 1727   2.503   6.031   8.436 -0.0699 -1.7667  0.0983
   13SAPS  H18Y 1728   2.659   6.099   8.384  0.6751 -0.3067 -0.5378
   13SAPS  H18Z 1729   2.627   5.926   8.361 -1.2846 -0.2426  0.5447
   14SAPS     N 1730   1.203   1.227   5.471  0.2375 -0.1389  0.1925
   14SAPS   HN1 1731   1.299   1.257   5.445  0.7384 -0.4927  1.5658
   14SAPS   HN2 1732   1.202   1.126   5.448  1.0473  0.1444 -1.2204
   14SAPS   HN3 1733   1.125   1.270   5.417 -2.8109 -3.2118  1.8028
   14SAPS   C12 1734   1.198   1.244   5.622  0.2870 -0.0092 -0.4504
   14SAPS  H12A 1735   1.205   1.350   5.642  2.0036 -0.2757  0.4819
   14SAPS   C13 1736   1.068   1.195   5.694 -0.9010 -0.1089  0.2019
   14SAPS  O13A 1737   0.971   1.155   5.625 -0.4209  0.4247 -0.0560
   14SAPS  O13B 1738   1.067   1.186   5.819  0.2012  0.2042  0.0029
   14SAPS   C11 1739   1.327   1.177   5.682 -0.4572  0.4828  0.1842
   14SAPS  H11A 1740   1.327   1.076   5.636 -0.4290  0.7038 -0.3034
   14SAPS  H11B 1741   1.320   1.177   5.793  0.5619  0.4724  0.2614
   14SAPS     P 1742   1.503   1.370   5.730 -0.0377 -0.1371 -0.2893
   14SAPS   O13 1743   1.631   1.410   5.670  0.5688  0.4360  0.1255
   14SAPS   O14 1744   1.409   1.481   5.754 -0.4050 -0.0523 -0.5954
   14SAPS   O12 1745   1.441   1.253   5.646 -0.1797 -0.2470  0.5005
   14SAPS   O11 1746   1.536   1.303   5.862 -0.4014 -0.3762  0.5771
   14SAPS    C1 1747   1.609   1.177   5.870  0.6499  1.1288 -0.5571
   14SAPS    HA 1748   1.542   1.091   5.848  0.3507  1.3075 -0.3546
   14SAPS    HB 1749   1.687   1.168   5.792  1.1315 -1.3464  0.1267
   14SAPS    C2 1750   1.656   1.157   6.013 -0.3315  0.3949 -0.0746
   14SAPS    HS 1751   1.751   1.212   6.028  0.0843  0.1973 -1.7935
   14SAPS   O21 1752   1.662   1.015   6.034  0.2063 -0.0517 -0.1726
   14SAPS   C21 1753   1.751   0.965   6.111 -0.9245 -0.1359 -0.1295
   14SAPS   O22 1754   1.845   1.021   6.168 -0.3528  0.1326  0.4627
   14SAPS   C22 1755   1.737   0.808   6.112  0.5760 -0.7115 -0.5584
   14SAPS   H2R 1756   1.774   0.774   6.013  1.0386  0.0682 -0.6557
   14SAPS   H2S 1757   1.804   0.769   6.191 -1.3252  0.7057  1.9199
   14SAPS    C3 1758   1.540   1.207   6.112 -0.7851  0.8071 -0.4209
   14SAPS    HX 1759   1.446   1.154   6.088  0.9125 -2.4881 -0.3193
   14SAPS    HY 1760   1.524   1.317   6.103 -1.8624  0.6913 -0.0068
   14SAPS   O31 1761   1.581   1.170   6.248 -0.4487  0.8499  0.4141
   14SAPS   C31 1762   1.646   1.265   6.316  0.2891 -0.0484  0.4889
   14SAPS   O32 1763   1.691   1.366   6.270 -0.2619 -0.4280  0.9133
   14SAPS   C32 1764   1.676   1.213   6.454 -0.1136  0.9417  0.4807
   14SAPS   H2X 1765   1.772   1.159   6.466  0.9335  2.6111 -0.0970
   14SAPS   H2Y 1766   1.595   1.146   6.488  0.9730  0.5218  2.3964
   14SAPS   C23 1767   1.594   0.765   6.143  0.2138 -0.3629  0.1117
   14SAPS   H3R 1768   1.587   0.666   6.092  0.5169 -0.8580  1.0055
   14SAPS   H3S 1769   1.517   0.831   6.098  1.1114  0.4664 -0.2347
   14SAPS   C24 1770   1.560   0.768   6.292  0.0322  0.4414 -0.4930
   14SAPS   H4R 1771   1.589   0.868   6.332 -0.2154  0.0377  0.7126
   14SAPS   H4S 1772   1.632   0.703   6.346 -0.2266 -1.0292 -1.8378
   14SAPS   C25 1773   1.418   0.722   6.331 -0.2389  0.3554  0.2505
   14SAPS   H5R 1774   1.385   0.630   6.282 -0.6577  1.3899 -1.5078
   14SAPS   C26 1775   1.331   0.779   6.412  0.9360 -0.3349 -0.0978
   14SAPS   H6R 1776   1.238   0.724   6.436 -0.8342  2.8115  0.7246
   14SAPS   C27 1777   1.360   0.908   6.486 -0.7472 -0.9415 -0.1534
   14SAPS   H7R 1778   1.411   0.981   6.419  1.7001 -2.0494  0.3752
   14SAPS   H7S 1779   1.437   0.881   6.562 -0.9136 -0.9740  0.0030
   14SAPS   C28 1780   1.244   0.975   6.543  0.2333 -0.4553  0.3754
   14SAPS   H8R 1781   1.197   1.041   6.468 -0.7447 -0.3637  1.0432
   14SAPS   C29 1782   1.206   0.986   6.672 -0.2620  0.1387 -0.0968
   14SAPS   H9R 1783   1.118   1.048   6.698  0.5929  1.4016 -0.1386
   14SAPS  C210 1784   1.278   0.919   6.794  0.0529  0.1086 -0.4890
   14SAPS  H10R 1785   1.344   0.836   6.760 -0.0562 -0.4288  0.5588
   14SAPS  H10S 1786   1.204   0.864   6.858  0.8474 -0.0481  0.3185
   14SAPS  C211 1787   1.349   1.022   6.876 -0.3672 -0.3938  0.7019
   14SAPS  H11R 1788   1.381   1.112   6.822 -0.2611 -1.0516 -0.3435
   14SAPS  C212 1789   1.359   1.014   7.002  0.3849  0.3322 -0.1789
   14SAPS  H12R 1790   1.425   1.084   7.056  0.3036 -1.3669  2.2706
   14SAPS  C213 1791   1.311   0.903   7.094 -0.4233 -0.2376  0.4886
   14SAPS  H13R 1792   1.398   0.844   7.131 -0.9179 -1.0569  0.3845
   14SAPS  H13S 1793   1.258   0.818   7.045  0.5394 -1.7265  1.8892
   14SAPS  C214 1794   1.230   0.957   7.204  0.1299  0.2030 -0.2429
   14SAPS  H14R 1795   1.123   0.965   7.181  0.3420  1.8697 -0.7783
   14SAPS  C215 1796   1.262   0.989   7.331  0.4810 -0.4669  0.8178
   14SAPS  H15R 1797   1.181   1.034   7.390  0.8252  1.8479 -0.3795
   14SAPS  C216 1798   1.401   0.991   7.388 -0.0309  0.7029 -0.3002
   14SAPS  H16R 1799   1.406   1.084   7.449  1.3118 -0.1990  1.0367
   14SAPS  H16S 1800   1.473   0.979   7.304 -2.0948  1.0006 -2.2043
   14SAPS  C217 1801   1.437   0.865   7.461  0.4831  0.6428 -0.5062
   14SAPS  H17R 1802   1.513   0.896   7.536 -0.0144  0.9502 -0.1143
   14SAPS  H17S 1803   1.483   0.789   7.395  0.6111 -0.2087  0.5334
   14SAPS  C218 1804   1.328   0.792   7.540 -0.0156 -0.8623 -0.0141
   14SAPS  H18R 1805   1.252   0.747   7.473  0.6202 -1.7835 -0.1342
   14SAPS  H18S 1806   1.276   0.872   7.597  0.6548  0.5945 -1.3506
   14SAPS  C219 1807   1.384   0.694   7.651  0.9785  0.6805  0.1976
   14SAPS  H19R 1808   1.460   0.745   7.713 -0.0019  1.8622  0.4785
   14SAPS  H19S 1809   1.416   0.595   7.612  1.7679  0.7726  0.6022
   14SAPS  C220 1810   1.274   0.671   7.756 -0.9972  0.3908  0.2242
   14SAPS  H20R 1811   1.311   0.633   7.854 -0.9866 -0.9366 -0.2806
   14SAPS  H20S 1812   1.202   0.590   7.734 -0.1546 -0.9798  2.2867
   14SAPS  H20T 1813   1.225   0.769   7.774  1.0693  1.6476 -0.5805
   14SAPS   C33 1814   1.662   1.329   6.554 -1.1421  0.4113  0.2273
   14SAPS   H3X 1815   1.565   1.384   6.557 -0.9971  0.7298 -0.7341
   14SAPS   H3Y 1816   1.741   1.402   6.528  0.4056 -0.1953  2.8432
   14SAPS   C34 1817   1.692   1.282   6.694  0.1920  0.1211  0.2990
   14SAPS   H4X 1818   1.789   1.231   6.682  1.4438  1.8271  2.4885
   14SAPS   H4Y 1819   1.611   1.213   6.726  1.6325 -1.0022  1.6507
   14SAPS   C35 1820   1.712   1.399   6.795  0.1132 -0.4383 -0.3261
   14SAPS   H5X 1821   1.618   1.455   6.813  0.1034 -0.2924 -0.8122
   14SAPS   H5Y 1822   1.784   1.478   6.767 -0.3623  0.5767  1.2390
   14SAPS   C36 1823   1.764   1.346   6.938 -0.1344  0.3875  0.1050
   14SAPS   H6X 1824   1.702   1.257   6.963  0.6808  0.2956  1.9251
   14SAPS   H6Y 1825   1.752   1.428   7.011  1.0724  0.7527 -0.0871
   14SAPS   C37 1826   1.913   1.307   6.942  0.4051 -0.0512  0.1231
   14SAPS   H7X 1827   1.976   1.387   6.898 -1.3040  0.2589 -1.9464
   14SAPS   H7Y 1828   1.934   1.207   6.897  0.7726  0.5442 -1.0834
   14SAPS   C38 1829   1.959   1.281   7.092  0.4751  0.0397  0.7557
   14SAPS   H8X 1830   1.884   1.218   7.145  0.7806  0.0123  1.1626
   14SAPS   H8Y 1831   1.938   1.376   7.146  0.1887 -0.2711  1.1917
   14SAPS   C39 1832   2.104   1.230   7.116 -0.2611  0.0171 -0.8912
   14SAPS   H9X 1833   2.182   1.304   7.086 -0.1871 -0.3018 -1.5096
   14SAPS   H9Y 1834   2.106   1.139   7.053  1.6902 -0.6188  0.0150
   14SAPS  C310 1835   2.122   1.210   7.272 -0.0086 -0.9441 -0.0696
   14SAPS  H10X 1836   2.032   1.170   7.324  0.7349 -0.9966  1.2204
   14SAPS  H10Y 1837   2.141   1.311   7.314  2.4223 -1.1762 -0.4547
   14SAPS  C311 1838   2.249   1.126   7.314  0.5345 -0.3173  0.3293
   14SAPS  H11X 1839   2.342   1.148   7.256  0.0302  0.0928 -0.3382
   14SAPS  H11Y 1840   2.217   1.022   7.292 -2.0798  0.2020  1.3684
   14SAPS  C312 1841   2.269   1.123   7.467  0.0188 -0.2808 -0.0613
   14SAPS  H12X 1842   2.332   1.033   7.484 -2.5629 -2.2465 -0.2131
   14SAPS  H12Y 1843   2.180   1.111   7.532 -0.4776  0.5781 -0.5656
   14SAPS  C313 1844   2.333   1.257   7.516 -0.0151 -0.6914  0.0248
   14SAPS  H13X 1845   2.318   1.338   7.441  0.0493  0.1038  0.8533
   14SAPS  H13Y 1846   2.441   1.237   7.529 -0.0694 -1.4445 -0.6331
   14SAPS  C314 1847   2.264   1.295   7.650  0.1084 -0.3965 -0.3479
   14SAPS  H14X 1848   2.155   1.304   7.637  0.1810 -1.5659 -2.1976
   14SAPS  H14Y 1849   2.289   1.400   7.678  0.1465  0.7959 -4.2558
   14SAPS  C315 1850   2.307   1.210   7.771 -0.1197  0.0926 -0.2235
   14SAPS  H15X 1851   2.417   1.199   7.768 -0.0585 -0.0729  1.6946
   14SAPS  H15Y 1852   2.275   1.105   7.751  1.0743 -0.1076 -1.2083
   14SAPS  C316 1853   2.254   1.263   7.905 -0.9401  0.4453 -0.4946
   14SAPS  H16X 1854   2.265   1.373   7.897 -1.1859  0.5591  0.6231
   14SAPS  H16Y 1855   2.310   1.219   7.990 -1.9842 -1.9370 -0.9463
   14SAPS  C317 1856   2.115   1.226   7.945 -0.5483 -0.1216 -0.2300
   14SAPS  H17X 1857   2.047   1.238   7.858  0.5249  2.6234 -0.8054
   14SAPS  H17Y 1858   2.079   1.298   8.021  0.6338 -1.2885  1.5390
   14SAPS  C318 1859   2.102   1.085   8.006 -0.0457  0.1930  0.0646
   14SAPS  H18X 1860   2.134   1.002   7.939  2.0673  0.0471  1.1646
   14SAPS  H18Y 1861   1.994   1.067   8.022  0.0539 -1.1047 -0.5820
   14SAPS  H18Z 1862   2.161   1.069   8.099  0.8974  1.7853 -0.2184
   15SAPS     N 1863   3.102   0.205   5.687  0.0584 -0.1386 -0.1599
   15SAPS   HN1 1864   3.145   0.300   5.685  3.4849 -1.5193 -2.0831
   15SAPS   HN2 1865   3.102   0.183   5.789  0.1634 -1.4506 -0.4178
   15SAPS   HN3 1866   3.171   0.137   5.648  1.5790  0.9233  0.5818
   15SAPS   C12 1867   2.967   0.200   5.631  0.3804 -0.7948 -0.4734
   15SAPS  H12A 1868   2.968   0.272   5.550  0.3402 -0.9065 -0.5727
   15SAPS   C13 1869   2.913   0.076   5.567  0.5954  0.3335 -0.0882
   15SAPS  O13A 1870   2.992  -0.020   5.554 -0.0510  0.0361 -0.3988
   15SAPS  O13B 1871   2.794   0.062   5.542 -0.3124 -0.0020  0.3997
   15SAPS   C11 1872   2.871   0.235   5.747  0.3290 -0.5373 -0.8548
   15SAPS  H11A 1873   2.862   0.161   5.830 -2.2617  1.9605  1.2996
   15SAPS  H11B 1874   2.770   0.241   5.701  1.3370 -0.5848 -3.2397
   15SAPS     P 1875   2.892   0.402   5.957 -0.0220 -0.0612  0.1049
   15SAPS   O13 1876   3.028   0.378   6.006 -1.0496  0.3814 -0.2448
   15SAPS   O14 1877   2.840   0.539   5.977 -0.7000 -0.1187  0.1580
   15SAPS   O12 1878   2.899   0.363   5.805  0.3823  0.3149 -0.2714
   15SAPS   O11 1879   2.801   0.293   6.021 -0.3167  0.4062 -0.2875
   15SAPS    C1 1880   2.657   0.292   6.026 -0.6330  0.3070 -0.1557
   15SAPS    HA 1881   2.617   0.377   5.967 -1.4076 -0.1953 -0.3694
   15SAPS    HB 1882   2.612   0.193   6.003 -1.4026  0.6856 -0.2964
   15SAPS    C2 1883   2.612   0.319   6.176 -0.1341 -0.2165  0.2554
   15SAPS    HS 1884   2.677   0.399   6.218  0.8505 -0.5170 -0.6786
   15SAPS   O21 1885   2.611   0.196   6.251  0.5523 -0.7029  0.9101
   15SAPS   C21 1886   2.718   0.168   6.322  0.0127 -0.2582 -0.3405
   15SAPS   O22 1887   2.821   0.233   6.324  0.2086  0.4213 -0.2722
   15SAPS   C22 1888   2.694   0.031   6.391  0.0485 -0.8451  1.2173
   15SAPS   H2R 1889   2.586   0.024   6.418 -0.1214  4.0448  2.7225
   15SAPS   H2S 1890   2.717  -0.050   6.318 -3.7141 -1.2015  0.1674
   15SAPS    C3 1891   2.465   0.366   6.180 -0.6105  0.5216  0.3976
   15SAPS    HX 1892   2.411   0.275   6.145  1.0941 -1.5019  2.6706
   15SAPS    HY 1893   2.438   0.452   6.115 -1.4831 -0.1788 -0.1952
   15SAPS   O31 1894   2.426   0.397   6.317  0.3745 -0.0341  0.1646
   15SAPS   C31 1895   2.365   0.305   6.394  0.5004 -0.4203  0.7539
   15SAPS   O32 1896   2.340   0.191   6.358  0.7645  0.3016  0.8329
   15SAPS   C32 1897   2.332   0.365   6.531 -0.6262  0.6112 -0.2090
   15SAPS   H2X 1898   2.309   0.472   6.516  0.1251  1.0032  1.2466
   15SAPS   H2Y 1899   2.421   0.364   6.597 -0.9082 -1.0264  0.2051
   15SAPS   C23 1900   2.775   0.028   6.523  0.2424 -0.0047  0.2091
   15SAPS   H3R 1901   2.884   0.047   6.510 -0.0672  2.4404  0.6873
   15SAPS   H3S 1902   2.761  -0.075   6.562  1.3437 -0.0266  0.5929
   15SAPS   C24 1903   2.720   0.123   6.633 -0.4048 -0.2912  0.8514
   15SAPS   H4R 1904   2.717   0.224   6.587 -0.3515 -0.8430 -0.4134
   15SAPS   H4S 1905   2.788   0.119   6.721 -1.7279  2.2188  2.0940
   15SAPS   C25 1906   2.579   0.096   6.672  0.4171  0.4958  0.7143
   15SAPS   H5R 1907   2.504   0.072   6.594 -0.5053  0.5943  1.5452
   15SAPS   C26 1908   2.520   0.104   6.793 -0.0562 -0.0241 -0.1006
   15SAPS   H6R 1909   2.416   0.072   6.802  0.7232 -2.8605 -0.2206
   15SAPS   C27 1910   2.597   0.126   6.925 -0.1497  0.7145  0.9201
   15SAPS   H7R 1911   2.702   0.089   6.916 -1.0348 -1.5609 -1.1694
   15SAPS   H7S 1912   2.544   0.072   7.007 -2.2852  1.9208  0.3984
   15SAPS   C28 1913   2.595   0.273   6.953  0.1166 -0.7928 -0.3642
   15SAPS   H8R 1914   2.627   0.341   6.873  0.6110 -2.5202 -1.7003
   15SAPS   C29 1915   2.564   0.323   7.079  0.9860  0.5621  0.0948
   15SAPS   H9R 1916   2.581   0.430   7.099 -0.2266  0.4304  1.9787
   15SAPS  C210 1917   2.527   0.250   7.204 -0.1075  0.3736 -0.0546
   15SAPS  H10R 1918   2.425   0.209   7.186  0.3542 -0.4352 -0.8809
   15SAPS  H10S 1919   2.502   0.328   7.280 -0.7851  2.5879 -2.4196
   15SAPS  C211 1920   2.621   0.146   7.266  0.4742  0.7922  0.1661
   15SAPS  H11R 1921   2.687   0.087   7.200  0.8248 -0.2140  1.3723
   15SAPS  C212 1922   2.613   0.102   7.395  0.0986  0.1167  0.2397
   15SAPS  H12R 1923   2.695   0.032   7.416  0.4050  0.6704  0.9258
   15SAPS  C213 1924   2.519   0.147   7.507 -0.2223 -1.0392 -0.6267
   15SAPS  H13R 1925   2.502   0.061   7.575 -3.4985 -0.4808 -0.5737
   15SAPS  H13S 1926   2.419   0.172   7.465  0.3113  1.2384 -0.7133
   15SAPS  C214 1927   2.565   0.263   7.589  0.1198 -0.4186 -0.5158
   15SAPS  H14R 1928   2.510   0.358   7.579  2.8609  1.7803  2.8775
   15SAPS  C215 1929   2.676   0.272   7.660 -0.1071 -0.7944  0.3249
   15SAPS  H15R 1930   2.701   0.353   7.730 -0.7363  0.3001 -0.6885
   15SAPS  C216 1931   2.761   0.154   7.684 -0.6407 -0.4486  0.2206
   15SAPS  H16R 1932   2.855   0.166   7.625 -0.7508 -0.7139 -0.0119
   15SAPS  H16S 1933   2.723   0.055   7.651  1.4003 -1.5729  1.0788
   15SAPS  C217 1934   2.789   0.125   7.836 -0.6661 -0.2234  0.1391
   15SAPS  H17R 1935   2.863   0.045   7.855  2.0405  2.0961  0.0257
   15SAPS  H17S 1936   2.692   0.096   7.882 -0.2693 -2.4686 -0.3284
   15SAPS  C218 1937   2.861   0.232   7.912  0.5429 -0.2939 -0.7076
   15SAPS  H18R 1938   2.812   0.331   7.905  1.5804  0.5062  1.9984
   15SAPS  H18S 1939   2.969   0.237   7.886  1.8389  2.0625  4.0077
   15SAPS  C219 1940   2.877   0.210   8.068 -0.6027 -0.5658  0.0228
   15SAPS  H19R 1941   2.876   0.100   8.087 -0.4069 -0.7765 -1.1189
   15SAPS  H19S 1942   2.789   0.249   8.124 -0.0537 -0.5514  0.9072
   15SAPS  C220 1943   2.992   0.279   8.132 -0.5907  0.5264  0.1943
   15SAPS  H20R 1944   2.969   0.388   8.129 -2.0278  0.2457 -2.9090
   15SAPS  H20S 1945   3.085   0.263   8.074 -1.5915 -1.9460 -0.8689
   15SAPS  H20T 1946   3.014   0.255   8.238 -0.5049 -1.6969 -0.2836
   15SAPS   C33 1947   2.211   0.297   6.585  1.2298 -1.3831 -0.0729
   15SAPS   H3X 1948   2.244   0.217   6.655 -0.2054 -1.1052  0.9791
   15SAPS   H3Y 1949   2.143   0.252   6.510 -0.1405  0.1370  0.1891
   15SAPS   C34 1950   2.116   0.388   6.676 -0.3653 -0.7003 -0.5078
   15SAPS   H4X 1951   2.094   0.480   6.618  0.0234 -0.2863 -0.0010
   15SAPS   H4Y 1952   2.180   0.431   6.756 -1.9693  0.5694  0.1380
   15SAPS   C35 1953   1.991   0.318   6.724  0.1884 -0.1672  0.4143
   15SAPS   H5X 1954   1.945   0.259   6.641 -1.0183  0.7838  0.4009
   15SAPS   H5Y 1955   1.925   0.402   6.751  0.2644 -0.0593  0.2649
   15SAPS   C36 1956   2.009   0.244   6.857  0.4495  0.1232  0.1318
   15SAPS   H6X 1957   2.070   0.151   6.848 -0.0139 -0.0036 -3.9655
   15SAPS   H6Y 1958   1.908   0.209   6.888 -0.0168 -0.7757 -2.1560
   15SAPS   C37 1959   2.045   0.333   6.975  0.2015 -0.5030  0.4080
   15SAPS   H7X 1960   1.991   0.430   6.972  1.1784  0.0681  0.6129
   15SAPS   H7Y 1961   2.153   0.354   6.959  0.2454  2.3382  3.4871
   15SAPS   C38 1962   2.027   0.270   7.117 -0.9036 -0.7574  0.6378
   15SAPS   H8X 1963   1.923   0.246   7.145 -2.9097  3.8422 -1.8175
   15SAPS   H8Y 1964   2.080   0.345   7.180  1.1762 -2.1190  0.5952
   15SAPS   C39 1965   2.122   0.155   7.141 -0.0119  0.3122 -0.1867
   15SAPS   H9X 1966   2.222   0.169   7.094  0.6513 -2.0477  0.3720
   15SAPS   H9Y 1967   2.074   0.063   7.102 -1.8133  0.6665  1.0778
   15SAPS  C310 1968   2.150   0.133   7.297 -0.1876 -0.7846  0.2451
   15SAPS  H10X 1969   2.181   0.224   7.354  0.2450 -0.7105 -0.1000
   15SAPS  H10Y 1970   2.227   0.055   7.314  0.5685  0.3983  2.7401
   15SAPS  C311 1971   2.025   0.072   7.367  0.2433  0.3877  0.1527
   15SAPS  H11X 1972   2.005  -0.014   7.300 -0.3170 -0.7356  1.7186
   15SAPS  H11Y 1973   1.935   0.137   7.364  0.0496  0.3043  2.3518
   15SAPS  C312 1974   2.045   0.026   7.505 -0.2739 -0.1368 -0.0710
   15SAPS  H12X 1975   2.133  -0.042   7.501  0.6793  0.9195  1.6353
   15SAPS  H12Y 1976   1.963  -0.038   7.543  0.2421  0.1306  1.5624
   15SAPS  C313 1977   2.101   0.131   7.603  0.2282 -0.2343 -0.4544
   15SAPS  H13X 1978   2.021   0.193   7.648  1.3388 -0.0014  1.2813
   15SAPS  H13Y 1979   2.173   0.203   7.557 -0.2055  0.0626 -0.6804
   15SAPS  C314 1980   2.186   0.066   7.715  0.3123 -0.5689 -0.1080
   15SAPS  H14X 1981   2.281   0.029   7.671  1.1676  1.2096  0.1574
   15SAPS  H14Y 1982   2.134  -0.021   7.760  1.0139 -0.4755  0.9147
   15SAPS  C315 1983   2.219   0.162   7.826  0.1618 -0.1574  0.5150
   15SAPS  H15X 1984   2.123   0.197   7.868  1.0153  0.4026  2.0532
   15SAPS  H15Y 1985   2.263   0.253   7.781 -1.7000  0.8300  0.6063
   15SAPS  C316 1986   2.304   0.107   7.935 -0.6637  0.1770 -0.0256
   15SAPS  H16X 1987   2.389   0.046   7.899 -0.0248 -0.0050  1.6952
   15SAPS  H16Y 1988   2.243   0.042   8.000 -0.1740  1.8448  2.2381
   15SAPS  C317 1989   2.344   0.212   8.033  0.1867 -0.5919  0.1021
   15SAPS  H17X 1990   2.246   0.243   8.074  0.5813  0.5320  0.2209
   15SAPS  H17Y 1991   2.385   0.296   7.973  0.4566 -0.8286 -0.0472
   15SAPS  C318 1992   2.444   0.172   8.148 -0.1026  0.9251  0.5005
   15SAPS  H18X 1993   2.411   0.073   8.189  1.8622  0.1461  0.2848
   15SAPS  H18Y 1994   2.463   0.255   8.219  4.6897 -0.4698  1.2093
   15SAPS  H18Z 1995   2.532   0.139   8.091 -0.9864  1.0067 -0.9550
   16SAPS     N 1996   3.367   2.686   6.302 -0.1745  0.7412 -0.1080
   16SAPS   HN1 1997   3.287   2.724   6.356  1.3505 -0.1683  3.0083
   16SAPS   HN2 1998   3.336   2.595   6.261 -0.3776  1.4297 -1.5746
   16SAPS   HN3 1999   3.436   2.666   6.377 -1.0255  0.4329  0.6057
   16SAPS   C12 2000   3.401   2.786   6.197 -0.0045  0.0004  0.5332
   16SAPS  H12A 2001   3.493   2.753   6.151  0.9934  1.3280  1.4849
   16SAPS   C13 2002   3.296   2.815   6.093  0.3462  0.4509 -0.5899
   16SAPS  O13A 2003   3.173   2.795   6.125  0.4280 -0.2460 -0.0366
   16SAPS  O13B 2004   3.323   2.894   5.996  0.3543  0.0671 -0.5203
   16SAPS   C11 2005   3.440   2.918   6.277  1.2122 -0.0258 -0.2728
   16SAPS  H11A 2006   3.361   2.959   6.345  0.4463  0.8753 -1.6458
   16SAPS  H11B 2007   3.452   2.996   6.199 -0.0277  0.3819 -0.0936
   16SAPS     P 2008   3.594   2.998   6.475  0.3736 -0.3438 -0.1886
   16SAPS   O13 2009   3.716   2.946   6.544 -0.3357 -0.7301  0.4365
   16SAPS   O14 2010   3.596   3.138   6.414  0.2900 -0.2610  0.4607
   16SAPS   O12 2011   3.562   2.903   6.356  0.7248 -0.0762  0.0277
   16SAPS   O11 2012   3.468   2.976   6.573 -0.0434  0.2033  1.0045
   16SAPS    C1 2013   3.475   2.861   6.661  0.4085 -0.2363 -0.3721
   16SAPS    HA 2014   3.385   2.797   6.651 -2.5980  3.6493 -0.3418
   16SAPS    HB 2015   3.561   2.795   6.639 -0.8629 -2.1222  0.0630
   16SAPS    C2 2016   3.489   2.890   6.809  0.4865 -0.2548  1.1014
   16SAPS    HS 2017   3.417   2.968   6.842 -0.3485  0.8680 -2.8208
   16SAPS   O21 2018   3.626   2.929   6.828 -0.4593 -0.3827 -0.2494
   16SAPS   C21 2019   3.659   3.062   6.822 -0.1727 -0.0862  0.5308
   16SAPS   O22 2020   3.593   3.158   6.799  0.4408  0.2097  0.2610
   16SAPS   C22 2021   3.803   3.074   6.886  0.2098  0.1412  0.4034
   16SAPS   H2R 2022   3.867   3.023   6.810 -1.8733 -1.9721 -0.0686
   16SAPS   H2S 2023   3.819   3.183   6.896 -1.3147  0.5015 -0.7558
   16SAPS    C3 2024   3.469   2.762   6.896 -0.3212  0.9019  1.0070
   16SAPS    HX 2025   3.488   2.789   7.002 -1.4614  0.8388  1.2402
   16SAPS    HY 2026   3.548   2.693   6.858 -0.6653  1.3825 -0.6923
   16SAPS   O31 2027   3.338   2.704   6.878  0.3032  0.0137 -0.0922
   16SAPS   C31 2028   3.254   2.767   6.962 -0.3481  0.2048 -0.5561
   16SAPS   O32 2029   3.275   2.864   7.035 -1.0711 -0.1645 -0.0152
   16SAPS   C32 2030   3.112   2.713   6.931  0.2589  0.2373 -0.1971
   16SAPS   H2X 2031   3.112   2.602   6.925  0.6817  0.2402 -0.2566
   16SAPS   H2Y 2032   3.084   2.752   6.830 -0.1197  0.7824  0.1130
   16SAPS   C23 2033   3.809   3.004   7.026 -0.5358  0.2479 -0.4015
   16SAPS   H3R 2034   3.911   2.979   7.062 -0.1602 -0.1455 -1.6866
   16SAPS   H3S 2035   3.766   2.902   7.018  0.5343 -0.7723  4.0144
   16SAPS   C24 2036   3.729   3.066   7.135  0.2423 -0.4181 -0.6862
   16SAPS   H4R 2037   3.711   3.173   7.113 -1.4580 -0.5458 -0.1194
   16SAPS   H4S 2038   3.798   3.064   7.223 -0.3655 -1.9399 -0.2189
   16SAPS   C25 2039   3.600   2.998   7.170  0.1037 -0.0542  0.5782
   16SAPS   H5R 2040   3.530   2.981   7.087 -0.3452  0.1026  0.9224
   16SAPS   C26 2041   3.540   2.959   7.285  0.5789  0.9065 -0.4347
   16SAPS   H6R 2042   3.436   2.925   7.282  0.4562  0.8700  1.8975
   16SAPS   C27 2043   3.597   2.966   7.423 -0.2881 -0.2938  0.1046
   16SAPS   H7R 2044   3.556   3.060   7.467  1.5064  0.6850 -0.1865
   16SAPS   H7S 2045   3.708   2.977   7.419 -0.2317 -0.9617 -0.1824
   16SAPS   C28 2046   3.552   2.860   7.518  0.3349  0.3971  0.3234
   16SAPS   H8R 2047   3.496   2.774   7.477  0.3949  1.3326 -1.8285
   16SAPS   C29 2048   3.594   2.853   7.649 -0.2106  0.3405  0.4628
   16SAPS   H9R 2049   3.560   2.770   7.714  1.7474  1.1196  2.6373
   16SAPS  C210 2050   3.678   2.950   7.731 -0.2106 -0.0231  0.6617
   16SAPS  H10R 2051   3.717   3.030   7.664 -1.0889 -0.4577 -0.3878
   16SAPS  H10S 2052   3.769   2.895   7.763 -0.4379 -1.6732 -1.3411
   16SAPS  C211 2053   3.607   3.016   7.849  0.4405  0.0193 -0.1459
   16SAPS  H11R 2054   3.595   3.124   7.831  0.8077  0.0202 -0.3934
   16SAPS  C212 2055   3.563   2.953   7.961  0.5776  0.0791  0.1368
   16SAPS  H12R 2056   3.522   3.019   8.039  3.1179  1.7949  0.1221
   16SAPS  C213 2057   3.563   2.802   7.992  0.6386 -0.0202  0.1200
   16SAPS  H13R 2058   3.552   2.745   7.897 -2.0959  2.5508 -1.2916
   16SAPS  H13S 2059   3.476   2.792   8.061 -1.2288  2.5294 -1.6568
   16SAPS  C214 2060   3.691   2.768   8.063 -0.2219  0.6228 -0.3079
   16SAPS  H14R 2061   3.783   2.805   8.016  1.9183 -0.7761  2.5011
   16SAPS  C215 2062   3.694   2.703   8.176 -0.0519 -0.4747 -0.2666
   16SAPS  H15R 2063   3.793   2.668   8.212  0.3149 -0.5120 -1.2820
   16SAPS  C216 2064   3.580   2.640   8.251  0.7386  0.2406  0.8809
   16SAPS  H16R 2065   3.551   2.548   8.195  1.0547  1.9252 -2.3057
   16SAPS  H16S 2066   3.495   2.712   8.249  1.8502  1.5838  0.3394
   16SAPS  C217 2067   3.606   2.619   8.401 -0.6961  0.1967 -0.0867
   16SAPS  H17R 2068   3.598   2.718   8.452 -0.9845 -0.6500  1.5924
   16SAPS  H17S 2069   3.702   2.569   8.427 -1.6157 -1.9919 -0.6988
   16SAPS  C218 2070   3.505   2.519   8.460 -0.1591  0.3000 -0.0036
   16SAPS  H18R 2071   3.532   2.421   8.413 -2.0384 -0.6356  0.7566
   16SAPS  H18S 2072   3.403   2.536   8.418 -1.7088 -0.4775  3.1342
   16SAPS  C219 2073   3.492   2.497   8.612 -0.4775  0.1777  0.0081
   16SAPS  H19R 2074   3.385   2.511   8.637 -0.0367 -0.9809  3.0933
   16SAPS  H19S 2075   3.536   2.589   8.657 -3.3696  0.2895  3.0109
   16SAPS  C220 2076   3.544   2.368   8.678  0.0781 -0.1603  0.4782
   16SAPS  H20R 2077   3.529   2.354   8.787 -3.3193  1.0290  0.2795
   16SAPS  H20S 2078   3.649   2.354   8.644  0.5415  1.7490  1.0307
   16SAPS  H20T 2079   3.477   2.286   8.644 -0.8557  0.9635 -0.5242
   16SAPS   C33 2080   3.005   2.757   7.031 -0.5011  0.4635  0.9632
   16SAPS   H3X 2081   2.906   2.736   6.987 -1.0593  2.4199  1.2251
   16SAPS   H3Y 2082   3.005   2.867   7.044  0.7285  1.1680 -3.3041
   16SAPS   C34 2083   3.019   2.685   7.171 -0.7767  0.2803  0.6509
   16SAPS   H4X 2084   3.106   2.734   7.222 -1.0573 -0.6506  2.0773
   16SAPS   H4Y 2085   3.055   2.581   7.156  1.1458  0.5962  2.5552
   16SAPS   C35 2086   2.888   2.701   7.248  0.4561 -0.2365 -0.1226
   16SAPS   H5X 2087   2.805   2.656   7.189  0.6725 -0.0285 -0.5870
   16SAPS   H5Y 2088   2.866   2.810   7.247  1.3128 -0.0617 -1.0966
   16SAPS   C36 2089   2.892   2.654   7.391  0.2863  0.8340  0.6122
   16SAPS   H6X 2090   2.972   2.698   7.453  0.5485 -0.2249  1.0475
   16SAPS   H6Y 2091   2.912   2.545   7.382  0.4737  1.0607 -3.6872
   16SAPS   C37 2092   2.770   2.675   7.486  0.1168  0.5454 -0.3698
   16SAPS   H7X 2093   2.682   2.622   7.443 -0.5361  0.2249  1.3047
   16SAPS   H7Y 2094   2.753   2.784   7.495  1.4995  0.6292  1.7954
   16SAPS   C38 2095   2.799   2.617   7.624  0.1304 -0.2964  0.3905
   16SAPS   H8X 2096   2.904   2.639   7.653  0.0939  2.5528 -1.2384
   16SAPS   H8Y 2097   2.782   2.508   7.606  0.0824 -0.2825  0.3520
   16SAPS   C39 2098   2.713   2.673   7.745 -0.2680 -0.2884  0.4335
   16SAPS   H9X 2099   2.605   2.659   7.725  0.2738 -1.1852 -2.4036
   16SAPS   H9Y 2100   2.738   2.780   7.762 -0.5272 -0.1633  0.0426
   16SAPS  C310 2101   2.750   2.591   7.873  0.0865 -0.7639  0.1277
   16SAPS  H10X 2102   2.854   2.627   7.887  0.2380 -0.9521 -0.4620
   16SAPS  H10Y 2103   2.741   2.484   7.843 -0.6161 -0.3688 -1.1518
   16SAPS  C311 2104   2.676   2.618   8.000 -0.3320  0.2148  0.2095
   16SAPS  H11X 2105   2.731   2.579   8.088  2.9965  0.0038 -1.8056
   16SAPS  H11Y 2106   2.570   2.585   7.989 -1.0737  2.6398 -0.8366
   16SAPS  C312 2107   2.650   2.766   8.030  1.0277 -0.4419  0.5094
   16SAPS  H12X 2108   2.584   2.806   7.950 -0.4989 -2.0814  0.8894
   16SAPS  H12Y 2109   2.743   2.827   8.029  0.0859  1.1297 -2.0459
   16SAPS  C313 2110   2.565   2.773   8.160 -0.1773  0.0199 -0.2353
   16SAPS  H13X 2111   2.486   2.695   8.158 -0.9259  0.7570 -0.2017
   16SAPS  H13Y 2112   2.509   2.869   8.170  3.2911  1.9996  2.8624
   16SAPS  C314 2113   2.636   2.755   8.296  0.5157 -0.2967  0.1798
   16SAPS  H14X 2114   2.733   2.810   8.286 -0.1298  0.6488 -1.1421
   16SAPS  H14Y 2115   2.660   2.647   8.308 -0.6083 -0.5785  0.0080
   16SAPS  C315 2116   2.563   2.826   8.407  0.0797  0.1272 -0.6190
   16SAPS  H15X 2117   2.547   2.934   8.383 -0.7340  0.3360  0.8012
   16SAPS  H15Y 2118   2.627   2.830   8.498 -0.8401 -1.8376  0.1479
   16SAPS  C316 2119   2.427   2.758   8.439  0.0308 -0.3010  0.8467
   16SAPS  H16X 2120   2.357   2.763   8.354  2.3401  2.1876 -1.0698
   16SAPS  H16Y 2121   2.384   2.824   8.518  0.8009 -0.6419  1.5733
   16SAPS  C317 2122   2.434   2.614   8.491  0.7275  0.1548  0.4096
   16SAPS  H17X 2123   2.500   2.596   8.579  0.8751 -0.7051  0.1342
   16SAPS  H17Y 2124   2.478   2.563   8.402 -2.0598  0.4232 -1.2510
   16SAPS  C318 2125   2.293   2.561   8.512  0.0300  0.8150  0.9313
   16SAPS  H18X 2126   2.225   2.578   8.425 -2.5288  0.0467  2.6854
   16SAPS  H18Y 2127   2.237   2.602   8.599 -3.9313  0.1762 -1.0602
   16SAPS  H18Z 2128   2.290   2.451   8.529 -1.2965  0.6866  0.0695
   17SAPC     N 2129   1.648   6.448  10.516 -0.0855 -0.0896  0.8318
   17SAPC   C12 2130   1.595   6.538  10.399 -0.2636 -0.1368 -0.3609
   17SAPC  H12A 2131   1.502   6.496  10.365  0.7126 -1.7818 -1.1330
   17SAPC  H12B 2132   1.666   6.533  10.318  2.2854  0.2720  1.6778
   17SAPC   C13 2133   1.780   6.502  10.562 -0.4970 -0.4616 -0.7424
   17SAPC  H13A 2134   1.829   6.442  10.638  0.1127  0.0843 -0.6962
   17SAPC  H13B 2135   1.855   6.499  10.484  0.1210  0.2372 -0.1880
   17SAPC  H13C 2136   1.770   6.606  10.587  0.6256 -0.3463 -0.7036
   17SAPC   C14 2137   1.551   6.447  10.625  0.3071  0.0429  0.5469
   17SAPC  H14A 2138   1.456   6.415  10.585  2.5030 -2.9559 -2.8336
   17SAPC  H14B 2139   1.594   6.385  10.702 -0.0707 -1.6013 -0.5343
   17SAPC  H14C 2140   1.545   6.544  10.674 -2.2765 -0.8826  2.3037
   17SAPC   C15 2141   1.665   6.307  10.469  0.0089  0.6333 -0.0737
   17SAPC  H15A 2142   1.732   6.295  10.385  1.2302 -0.2126  0.9762
   17SAPC  H15B 2143   1.715   6.248  10.545  0.3290  0.2798 -0.5554
   17SAPC  H15C 2144   1.567   6.266  10.449 -1.1708  2.8431  0.8135
   17SAPC   C11 2145   1.562   6.684  10.425 -0.8612 -0.6340 -0.5584
   17SAPC  H11A 2146   1.481   6.692  10.501  0.8824  2.5468  1.1994
   17SAPC  H11B 2147   1.525   6.722  10.328 -1.0774  1.1620  0.1852
   17SAPC     P 2148   1.706   6.891  10.366 -0.6702  0.1227 -0.0167
   17SAPC   O13 2149   1.590   6.980  10.388  0.2535  0.2597 -0.4830
   17SAPC   O14 2150   1.844   6.938  10.397 -0.2993  0.0699  0.2666
   17SAPC   O12 2151   1.680   6.765  10.457 -0.1762  0.0354  0.2494
   17SAPC   O11 2152   1.701   6.834  10.215 -0.3592  0.1564  0.0236
   17SAPC    C1 2153   1.804   6.750  10.172 -0.9167  0.3929  0.5757
   17SAPC    HA 2154   1.862   6.706  10.257 -1.7554  1.5830  1.7998
   17SAPC    HB 2155   1.757   6.661  10.125  2.8636 -1.1740 -0.6631
   17SAPC    C2 2156   1.905   6.805  10.067 -0.0150 -0.7351  0.3406
   17SAPC    HS 2157   1.970   6.876  10.122 -0.8533  1.9394 -1.9234
   17SAPC   O21 2158   1.823   6.878   9.976 -0.0458  0.0203  0.0653
   17SAPC   C21 2159   1.884   6.973   9.914 -0.4449 -0.7167  1.0033
   17SAPC   O22 2160   1.999   7.009   9.939 -0.7793  0.0972 -0.2715
   17SAPC   C22 2161   1.787   7.027   9.816  0.3997  0.6021  0.4000
   17SAPC   H2R 2162   1.748   6.937   9.764 -1.2297  0.9520  0.9780
   17SAPC   H2S 2163   1.696   7.071   9.862  0.1677 -0.1234  0.6465
   17SAPC    C3 2164   1.984   6.682  10.007  0.4967  0.1303  0.2678
   17SAPC    HX 2165   1.909   6.606   9.977  1.5002 -0.3464 -1.1079
   17SAPC    HY 2166   2.052   6.645  10.087  0.7502  1.2271  0.5835
   17SAPC   O31 2167   2.057   6.713   9.881 -0.1095 -0.1092  0.0936
   17SAPC   C31 2168   2.186   6.737   9.888 -0.1247 -0.1960  0.2764
   17SAPC   O32 2169   2.261   6.689   9.969  0.4447 -0.5843 -0.0329
   17SAPC   C32 2170   2.227   6.805   9.755 -0.2400 -0.5291  0.4057
   17SAPC   H2X 2171   2.202   6.912   9.773  0.7907  0.0876 -1.5550
   17SAPC   H2Y 2172   2.177   6.750   9.673  0.7327  2.1771 -2.1557
   17SAPC   C23 2173   1.852   7.124   9.724  0.5637 -0.3311 -0.1435
   17SAPC   H3R 2174   1.926   7.190   9.774  0.2632 -1.2692  1.6310
   17SAPC   H3S 2175   1.774   7.184   9.673  0.6376 -0.7949 -0.8166
   17SAPC   C24 2176   1.933   7.054   9.616  0.5898 -0.8278 -0.3009
   17SAPC   H4R 2177   1.855   6.985   9.578 -1.9402  2.1148 -0.9295
   17SAPC   H4S 2178   2.012   6.992   9.662  0.4270 -0.7750  0.0541
   17SAPC   C25 2179   1.981   7.146   9.499  0.2814 -0.8357  0.2727
   17SAPC   H5R 2180   2.071   7.206   9.519 -0.5336  0.8089 -0.7449
   17SAPC   C26 2181   1.919   7.161   9.376  0.3760 -0.0184 -0.2294
   17SAPC   H6R 2182   1.966   7.221   9.297  0.3591  1.1991  0.6409
   17SAPC   C27 2183   1.789   7.099   9.332 -0.5764  0.3633 -0.2707
   17SAPC   H7R 2184   1.718   7.106   9.417 -0.3756 -0.2358 -0.0493
   17SAPC   H7S 2185   1.808   6.990   9.326 -0.0055  0.5031 -1.3631
   17SAPC   C28 2186   1.727   7.154   9.209  0.2393 -0.2422  0.0369
   17SAPC   H8R 2187   1.639   7.219   9.217  0.9546  0.9333 -1.3134
   17SAPC   C29 2188   1.759   7.126   9.084  0.0735 -0.1587 -0.0355
   17SAPC   H9R 2189   1.694   7.165   9.005 -0.3228  1.7455  1.1769
   17SAPC  C210 2190   1.879   7.041   9.040 -0.4343 -0.2459  0.6913
   17SAPC  H10R 2191   1.856   6.976   8.953 -3.0776  3.4024 -1.6044
   17SAPC  H10S 2192   1.941   6.980   9.110  0.8646 -0.3504 -0.5092
   17SAPC  C211 2193   1.979   7.151   9.003 -0.4937  0.5234  0.0096
   17SAPC  H11R 2194   2.022   7.210   9.086 -1.6771  0.8617  0.3969
   17SAPC  C212 2195   2.014   7.183   8.878  0.1048  0.0118  0.3126
   17SAPC  H12R 2196   2.081   7.268   8.857 -0.5461  0.0580 -1.7123
   17SAPC  C213 2197   1.961   7.118   8.753 -0.0372  0.2611  0.2928
   17SAPC  H13R 2198   1.921   7.015   8.767  0.5513  0.2510  2.3527
   17SAPC  H13S 2199   2.052   7.096   8.693 -1.3378 -4.2603 -0.3671
   17SAPC  C214 2200   1.857   7.195   8.680  0.1716  0.1809  0.4505
   17SAPC  H14R 2201   1.766   7.208   8.742  0.1627  1.5184  0.2031
   17SAPC  C215 2202   1.868   7.265   8.564 -0.2167  0.5416  0.7377
   17SAPC  H15R 2203   1.771   7.310   8.539 -1.2319 -2.2689 -0.8382
   17SAPC  C216 2204   1.993   7.273   8.478 -0.4803 -0.0178 -0.1563
   17SAPC  H16R 2205   2.046   7.176   8.464 -0.0887  0.4370 -2.0691
   17SAPC  H16S 2206   2.065   7.347   8.518 -1.5388 -0.0367  1.9011
   17SAPC  C217 2207   1.954   7.318   8.338 -0.0928 -0.2904  0.7146
   17SAPC  H17R 2208   1.906   7.418   8.345 -3.3476 -1.7585  0.9883
   17SAPC  H17S 2209   1.870   7.262   8.292  0.5709 -0.6086 -0.1388
   17SAPC  C218 2210   2.077   7.322   8.236 -0.2584 -0.3730  0.1236
   17SAPC  H18R 2211   2.103   7.217   8.210 -0.8868 -0.0230 -2.1307
   17SAPC  H18S 2212   2.168   7.378   8.266  0.4967 -0.6590 -1.4804
   17SAPC  C219 2213   2.038   7.394   8.098 -0.1892  0.3111  0.4099
   17SAPC  H19R 2214   1.936   7.357   8.074 -0.0976  0.7411 -0.7283
   17SAPC  H19S 2215   2.111   7.365   8.019 -0.9501  0.5288 -0.3876
   17SAPC  C220 2216   2.047   7.550   8.121  0.4466 -0.2504  0.0730
   17SAPC  H20R 2217   2.148   7.576   8.159  0.9532  0.3009 -1.5340
   17SAPC  H20S 2218   1.976   7.577   8.202  1.1198 -2.2449  1.3972
   17SAPC  H20T 2219   2.023   7.604   8.026  0.3842 -0.8581 -0.2620
   17SAPC   C33 2220   2.384   6.798   9.744 -0.2828  0.0859  0.2082
   17SAPC   H3X 2221   2.417   6.692   9.738 -0.9983 -0.1478  0.3169
   17SAPC   H3Y 2222   2.430   6.838   9.837  0.5589 -1.3244  0.4263
   17SAPC   C34 2223   2.443   6.868   9.616 -0.0364  0.1549 -0.4013
   17SAPC   H4X 2224   2.548   6.830   9.614  0.1122  0.5878 -1.0873
   17SAPC   H4Y 2225   2.439   6.977   9.632  0.8273  0.1034  0.1974
   17SAPC   C35 2226   2.375   6.838   9.484  0.6618  0.0595 -0.4069
   17SAPC   H5X 2227   2.339   6.733   9.486  0.9551 -0.0528 -0.8806
   17SAPC   H5Y 2228   2.456   6.834   9.408  0.9191  0.8265 -0.1795
   17SAPC   C36 2229   2.283   6.943   9.433  0.5978  0.1681  0.6287
   17SAPC   H6X 2230   2.327   7.044   9.448  2.8349 -0.6579  0.0560
   17SAPC   H6Y 2231   2.186   6.944   9.488  0.0693  0.9598 -0.3041
   17SAPC   C37 2232   2.245   6.901   9.283 -0.0262  0.5848  0.5101
   17SAPC   H7X 2233   2.171   6.981   9.259 -1.2215 -0.5522  0.2822
   17SAPC   H7Y 2234   2.186   6.808   9.292 -3.1466  2.4785  1.3134
   17SAPC   C38 2235   2.349   6.896   9.176 -0.4953  0.3642  0.2848
   17SAPC   H8X 2236   2.300   6.892   9.077  0.1691 -0.0491 -0.0336
   17SAPC   H8Y 2237   2.398   6.797   9.190 -4.1809 -1.7214 -0.4962
   17SAPC   C39 2238   2.445   7.011   9.181  0.6875  0.8656 -0.6249
   17SAPC   H9X 2239   2.520   7.006   9.263 -0.4417 -1.8895  0.3536
   17SAPC   H9Y 2240   2.396   7.109   9.200 -1.2314 -0.4230  1.6701
   17SAPC  C310 2241   2.524   7.017   9.053  0.6540 -0.5692  0.8682
   17SAPC  H10X 2242   2.580   7.113   9.051 -0.4136  0.1296 -2.1381
   17SAPC  H10Y 2243   2.459   7.011   8.963  1.5893 -2.6632  0.2677
   17SAPC  C311 2244   2.625   6.907   9.045  0.3922  0.1409  0.1371
   17SAPC  H11X 2245   2.572   6.812   9.023 -1.8474  1.7730 -2.1926
   17SAPC  H11Y 2246   2.673   6.897   9.145  0.3057 -2.6735 -0.0316
   17SAPC  C312 2247   2.730   6.917   8.929 -0.2269 -0.7479 -0.6825
   17SAPC  H12X 2248   2.807   6.842   8.957  0.5145  0.2875  0.1576
   17SAPC  H12Y 2249   2.777   7.017   8.941  0.8655 -1.3922  0.7056
   17SAPC  C313 2250   2.671   6.890   8.790 -0.0015  0.4539 -0.0307
   17SAPC  H13X 2251   2.584   6.959   8.778  0.6043  1.1943 -0.2063
   17SAPC  H13Y 2252   2.633   6.786   8.797  1.3209 -0.0818 -0.4619
   17SAPC  C314 2253   2.776   6.900   8.681  0.4675  0.8538  0.3921
   17SAPC  H14X 2254   2.865   6.837   8.705  0.8768  1.3108  0.0975
   17SAPC  H14Y 2255   2.827   6.999   8.681  0.1803  1.0094 -0.3343
   17SAPC  C315 2256   2.714   6.878   8.542  0.0376  0.2559 -0.7457
   17SAPC  H15X 2257   2.648   6.960   8.506  0.3826  0.2029 -1.5253
   17SAPC  H15Y 2258   2.658   6.782   8.545  1.6755 -0.7263 -0.5348
   17SAPC  C316 2259   2.819   6.865   8.430 -0.4591 -0.1829 -0.3052
   17SAPC  H16X 2260   2.911   6.821   8.473 -0.7679 -0.1385  0.4257
   17SAPC  H16Y 2261   2.839   6.971   8.404 -0.9685 -0.0539 -0.1902
   17SAPC  C317 2262   2.774   6.798   8.304  0.2196  0.6419 -0.3536
   17SAPC  H17X 2263   2.858   6.795   8.231  0.2690 -2.6607 -0.3021
   17SAPC  H17Y 2264   2.690   6.859   8.262  0.5204  3.5836  2.8615
   17SAPC  C318 2265   2.733   6.653   8.320  0.1019  0.1606 -0.5717
   17SAPC  H18X 2266   2.823   6.591   8.337  0.0844 -0.0468 -1.2007
   17SAPC  H18Y 2267   2.669   6.651   8.411  0.4269 -0.5584 -0.3507
   17SAPC  H18Z 2268   2.673   6.615   8.234 -1.1611 -0.8300  0.6782
   18SAPC     N 2269   2.355   6.813  10.813 -0.0824 -0.2207  0.0965
   18SAPC   C12 2270   2.337   6.807  10.661  0.1769 -0.7391  0.0469
   18SAPC  H12A 2271   2.378   6.899  10.623  0.7039 -1.5072 -1.3127
   18SAPC  H12B 2272   2.231   6.795  10.643 -0.2447  0.6751  1.3125
   18SAPC   C13 2273   2.501   6.817  10.835 -0.6353  0.6643 -0.1673
   18SAPC  H13A 2274   2.524   6.796  10.938 -1.4463  2.4141  0.4159
   18SAPC  H13B 2275   2.549   6.745  10.770 -0.1945  0.1769  0.6919
   18SAPC  H13C 2276   2.545   6.912  10.807  0.7479  0.5298  1.4452
   18SAPC   C14 2277   2.304   6.945  10.870 -0.1739  0.0813  0.2898
   18SAPC  H14A 2278   2.299   6.946  10.978 -3.5561 -0.5743  0.2462
   18SAPC  H14B 2279   2.373   7.012  10.822 -0.0338 -0.9739 -1.0522
   18SAPC  H14C 2280   2.208   6.963  10.823 -0.2663  0.6294  0.6894
   18SAPC   C15 2281   2.292   6.705  10.882  0.0461  0.1085 -0.4568
   18SAPC  H15A 2282   2.331   6.701  10.983  1.0690 -0.4170 -0.8598
   18SAPC  H15B 2283   2.186   6.726  10.887 -0.3607 -1.5683 -1.2964
   18SAPC  H15C 2284   2.300   6.617  10.820 -2.5956  0.2212 -1.0732
   18SAPC   C11 2285   2.379   6.682  10.583 -0.1877  0.2536  0.3233
   18SAPC  H11A 2286   2.490   6.675  10.589 -0.1298  1.2616  0.7441
   18SAPC  H11B 2287   2.353   6.703  10.477 -0.2330  0.2811  0.3400
   18SAPC     P 2288   2.168   6.528  10.586  0.2430 -0.0448  0.5457
   18SAPC   O13 2289   2.105   6.453  10.691  0.4559  0.7225  0.0704
   18SAPC   O14 2290   2.093   6.653  10.548  0.1980  0.3362 -0.5351
   18SAPC   O12 2291   2.319   6.567  10.627  0.4048  0.0177  0.2222
   18SAPC   O11 2292   2.197   6.442  10.455  0.0097  0.4529 -0.0860
   18SAPC    C1 2293   2.301   6.347  10.453  0.5987  0.2972  0.3796
   18SAPC    HA 2294   2.384   6.378  10.386 -0.5573  1.3194 -0.6358
   18SAPC    HB 2295   2.342   6.324  10.554  0.1452 -1.2101  0.2435
   18SAPC    C2 2296   2.249   6.216  10.400 -0.4887 -0.2009  0.6931
   18SAPC    HS 2297   2.338   6.150  10.404  0.7299  1.2559 -0.8385
   18SAPC   O21 2298   2.203   6.243  10.265  0.4769 -0.1110 -0.6950
   18SAPC   C21 2299   2.289   6.241  10.164 -0.0315  0.0601  0.1072
   18SAPC   O22 2300   2.405   6.207  10.173 -0.3871  0.2282 -0.1145
   18SAPC   C22 2301   2.213   6.301  10.036  0.1709  1.2187  0.1022
   18SAPC   H2R 2302   2.130   6.232  10.009 -0.1431  1.9046 -0.7473
   18SAPC   H2S 2303   2.165   6.393  10.076 -1.6971  0.2691  0.1394
   18SAPC    C3 2304   2.135   6.152  10.481 -0.6237 -0.1894  0.7435
   18SAPC    HX 2305   2.058   6.230  10.501 -1.0796  0.1063 -1.8633
   18SAPC    HY 2306   2.183   6.120  10.576  2.4824  1.0165 -0.2819
   18SAPC   O31 2307   2.083   6.037  10.407 -0.2748  0.1963  0.1388
   18SAPC   C31 2308   1.970   6.065  10.331  0.1980 -0.1987 -0.2173
   18SAPC   O32 2309   1.923   6.176  10.318 -0.3351 -0.2492  0.1443
   18SAPC   C32 2310   1.912   5.937  10.285 -0.1408 -0.1728 -0.7571
   18SAPC   H2X 2311   1.817   5.922  10.340 -0.3709  0.0341 -1.0993
   18SAPC   H2Y 2312   1.971   5.846  10.311  1.5102  0.9089 -0.5348
   18SAPC   C23 2313   2.294   6.334   9.911  0.2690 -0.2998  0.1575
   18SAPC   H3R 2314   2.354   6.246   9.879  1.0460  0.2642  0.0277
   18SAPC   H3S 2315   2.362   6.421   9.927  1.2767 -0.9915 -0.2674
   18SAPC   C24 2316   2.212   6.363   9.786  0.3238 -0.4732  0.0305
   18SAPC   H4R 2317   2.269   6.416   9.707 -1.3938 -1.7187 -2.1564
   18SAPC   H4S 2318   2.131   6.429   9.825  1.7981  2.0029 -0.8574
   18SAPC   C25 2319   2.152   6.239   9.729 -0.1616  0.0770  0.6333
   18SAPC   H5R 2320   2.081   6.181   9.789 -1.0139  1.7713  1.3373
   18SAPC   C26 2321   2.174   6.197   9.602  0.6020 -0.0619  0.0756
   18SAPC   H6R 2322   2.119   6.111   9.560  1.1325 -0.5044  0.2843
   18SAPC   C27 2323   2.264   6.266   9.500  0.4092  0.1653  0.5766
   18SAPC   H7R 2324   2.269   6.200   9.411  2.4506 -2.5167  2.5441
   18SAPC   H7S 2325   2.372   6.286   9.519  0.3453  3.4626 -1.6835
   18SAPC   C28 2326   2.202   6.397   9.452 -0.6273 -0.2568  0.3018
   18SAPC   H8R 2327   2.103   6.415   9.497 -1.0456 -2.8667  0.5609
   18SAPC   C29 2328   2.250   6.484   9.360  1.0128  1.0015 -0.2115
   18SAPC   H9R 2329   2.194   6.576   9.336  0.8738  1.3338  1.2537
   18SAPC  C210 2330   2.382   6.462   9.285  0.3808 -0.1322  0.5062
   18SAPC  H10R 2331   2.456   6.409   9.349  1.0519  0.0337 -0.1252
   18SAPC  H10S 2332   2.427   6.563   9.269  3.6249 -1.1500  2.3378
   18SAPC  C211 2333   2.360   6.385   9.154 -0.4176  0.0360 -0.1307
   18SAPC  H11R 2334   2.336   6.280   9.176 -1.5929  0.3162  0.0145
   18SAPC  C212 2335   2.386   6.434   9.031 -0.0612 -0.0261  0.3943
   18SAPC  H12R 2336   2.368   6.372   8.942 -0.9786 -1.4714  1.5401
   18SAPC  C213 2337   2.440   6.572   8.998  0.0002  0.3057  0.4766
   18SAPC  H13R 2338   2.526   6.605   9.060  0.3907  0.8193 -0.3190
   18SAPC  H13S 2339   2.361   6.648   9.015  0.1754  0.3602  1.0570
   18SAPC  C214 2340   2.487   6.567   8.854  0.4212 -1.0025  0.9638
   18SAPC  H14R 2341   2.596   6.575   8.838 -0.1289  2.0006 -2.7143
   18SAPC  C215 2342   2.412   6.589   8.738  1.0150  0.1481 -0.0718
   18SAPC  H15R 2343   2.456   6.575   8.638 -1.2870 -1.0524 -0.9922
   18SAPC  C216 2344   2.260   6.612   8.728 -0.8064 -0.6090  0.3675
   18SAPC  H16R 2345   2.215   6.595   8.828  1.1603  1.4250  1.6928
   18SAPC  H16S 2346   2.219   6.559   8.639  1.0977  0.3599 -1.1550
   18SAPC  C217 2347   2.233   6.760   8.685 -0.1071 -0.5119 -0.4428
   18SAPC  H17R 2348   2.249   6.828   8.771  2.5457  2.2423 -2.8705
   18SAPC  H17S 2349   2.128   6.784   8.657 -0.5201 -2.2333 -0.4921
   18SAPC  C218 2350   2.322   6.819   8.570 -0.5913 -0.7510  0.0767
   18SAPC  H18R 2351   2.299   6.762   8.477  0.2196 -0.4746 -0.3003
   18SAPC  H18S 2352   2.429   6.815   8.597  0.3072  1.4998 -2.6395
   18SAPC  C219 2353   2.290   6.966   8.548 -1.0412  0.5912  0.1351
   18SAPC  H19R 2354   2.185   6.968   8.513 -1.0216  0.7890  0.0900
   18SAPC  H19S 2355   2.356   6.999   8.464 -3.0176 -1.0372 -2.2126
   18SAPC  C220 2356   2.309   7.077   8.652 -0.0486  0.2736 -0.0821
   18SAPC  H20R 2357   2.416   7.108   8.652  0.1054 -0.2415 -1.0874
   18SAPC  H20S 2358   2.284   7.041   8.754  0.2892  0.3748  0.0388
   18SAPC  H20T 2359   2.250   7.166   8.622  0.0319  0.7301  1.0325
   18SAPC   C33 2360   1.873   5.938  10.136  0.0257  0.3512 -0.5452
   18SAPC   H3X 2361   1.812   6.028  10.118  0.9655  0.8301 -1.4967
   18SAPC   H3Y 2362   1.808   5.851  10.115 -0.8326  0.8490  0.0004
   18SAPC   C34 2363   1.984   5.948  10.028  0.4451 -0.5202 -0.0411
   18SAPC   H4X 2364   2.043   5.854  10.020 -1.7289 -1.8839 -1.0495
   18SAPC   H4Y 2365   2.048   6.035  10.053 -0.9300  0.2949  0.7956
   18SAPC   C35 2366   1.921   5.939   9.885  0.2199 -0.3475  0.0706
   18SAPC   H5X 2367   1.870   6.035   9.860  2.1803  0.0466 -2.8504
   18SAPC   H5Y 2368   1.839   5.863   9.892 -0.2530  0.2765  1.6262
   18SAPC   C36 2369   2.017   5.891   9.778 -0.3896 -0.7142 -0.7210
   18SAPC   H6X 2370   2.042   5.790   9.814 -0.4410  0.4004  2.7366
   18SAPC   H6Y 2371   2.114   5.945   9.782 -1.4108  1.1065  1.9343
   18SAPC   C37 2372   1.965   5.886   9.642  0.1550 -0.7037  0.5919
   18SAPC   H7X 2373   1.929   5.987   9.613  0.4687 -0.0766  2.2738
   18SAPC   H7Y 2374   1.869   5.830   9.642 -1.3639  1.5356 -3.3494
   18SAPC   C38 2375   2.059   5.808   9.548  0.0342  0.4727  0.6016
   18SAPC   H8X 2376   2.056   5.705   9.589  0.8103 -0.8685 -2.3982
   18SAPC   H8Y 2377   2.164   5.845   9.553  0.5238 -0.9612  1.4038
   18SAPC   C39 2378   2.023   5.803   9.406 -0.7328 -0.3074  0.6627
   18SAPC   H9X 2379   1.913   5.796   9.391 -0.7668  0.5636  0.4293
   18SAPC   H9Y 2380   2.071   5.723   9.345  1.4759  2.8636 -2.1238
   18SAPC  C310 2381   2.076   5.929   9.336 -0.3620 -0.9984 -0.7195
   18SAPC  H10X 2382   2.184   5.940   9.361 -0.2416  0.3842 -1.7534
   18SAPC  H10Y 2383   2.033   6.027   9.365  1.8510  0.0717 -0.8314
   18SAPC  C311 2384   2.049   5.926   9.185 -0.5488  0.5383 -0.3595
   18SAPC  H11X 2385   1.943   5.920   9.153  0.2507 -1.9964 -2.9851
   18SAPC  H11Y 2386   2.093   5.833   9.144  1.2961  1.5600 -0.7839
   18SAPC  C312 2387   2.114   6.048   9.117 -0.4036  0.4435  0.2795
   18SAPC  H12X 2388   2.223   6.045   9.139 -0.5448  1.3331  1.2001
   18SAPC  H12Y 2389   2.072   6.146   9.148  1.3981  1.9856 -1.8336
   18SAPC  C313 2390   2.103   6.042   8.960  0.3313 -0.9421  0.8017
   18SAPC  H13X 2391   2.006   6.093   8.940  0.1045 -0.6563  2.4447
   18SAPC  H13Y 2392   2.085   5.935   8.935 -0.8375 -0.8976  1.3943
   18SAPC  C314 2393   2.225   6.108   8.884  0.3665 -0.3127  0.0482
   18SAPC  H14X 2394   2.325   6.061   8.901 -0.1807 -1.3934  0.4135
   18SAPC  H14Y 2395   2.233   6.212   8.921 -2.5416  0.1145 -0.2875
   18SAPC  C315 2396   2.204   6.117   8.735 -1.5302 -0.5201 -0.1063
   18SAPC  H15X 2397   2.125   6.047   8.703  0.3007 -1.9153 -1.8663
   18SAPC  H15Y 2398   2.303   6.096   8.688 -1.5241  0.5358 -0.6027
   18SAPC  C316 2399   2.162   6.255   8.693 -0.4252  0.0438 -0.0420
   18SAPC  H16X 2400   2.241   6.330   8.717  0.2474 -0.3423 -0.9746
   18SAPC  H16Y 2401   2.073   6.270   8.758  0.0275 -1.2545  0.9388
   18SAPC  C317 2402   2.111   6.261   8.548  0.5478  0.3328  0.3917
   18SAPC  H17X 2403   2.116   6.362   8.502  1.4700  0.1600  0.0862
   18SAPC  H17Y 2404   2.005   6.230   8.549 -0.0264  2.1759  0.3361
   18SAPC  C318 2405   2.182   6.172   8.444 -0.2220 -0.5199 -0.6312
   18SAPC  H18X 2406   2.119   6.163   8.353 -0.9196  1.6598 -0.4344
   18SAPC  H18Y 2407   2.189   6.072   8.492 -2.4515 -0.0691  0.7886
   18SAPC  H18Z 2408   2.284   6.209   8.422 -0.2140  0.1283  0.4199
   19SAPC     N 2409   1.101   2.063  10.748 -0.0463  0.1462 -0.3757
   19SAPC   C12 2410   1.123   2.045  10.593  0.1524 -0.4394  0.2971
   19SAPC  H12A 2411   1.025   2.040  10.548  0.2617 -2.2254  0.1712
   19SAPC  H12B 2412   1.169   1.953  10.562  0.3475  0.0560 -0.9240
   19SAPC   C13 2413   1.238   2.062  10.811  0.4280  0.0047  0.3245
   19SAPC  H13A 2414   1.298   2.138  10.764 -0.8531  1.3333  0.7696
   19SAPC  H13B 2415   1.234   2.077  10.918 -0.3442 -1.1801  0.4805
   19SAPC  H13C 2416   1.286   1.966  10.800 -0.0236  0.0078 -2.1937
   19SAPC   C14 2417   1.042   2.192  10.782 -0.7619 -0.2375  0.3197
   19SAPC  H14A 2418   0.938   2.200  10.754 -0.2146 -0.3384 -1.8821
   19SAPC  H14B 2419   1.051   2.212  10.888 -1.0957  0.2248  0.2651
   19SAPC  H14C 2420   1.096   2.271  10.733 -1.7689  2.1751  2.8688
   19SAPC   C15 2421   1.011   1.952  10.796 -0.8300 -0.2245 -0.1162
   19SAPC  H15A 2422   0.909   1.966  10.762 -0.6580 -2.8938 -1.9901
   19SAPC  H15B 2423   1.035   1.850  10.772  1.0576 -0.1476  1.2258
   19SAPC  H15C 2424   1.001   1.948  10.903  1.4137  1.0161  0.1922
   19SAPC   C11 2425   1.198   2.161  10.525  0.3925 -0.2133 -0.3555
   19SAPC  H11A 2426   1.228   2.127  10.424  0.7104 -1.6944  0.2218
   19SAPC  H11B 2427   1.288   2.199  10.578  0.4844 -1.1276  0.1677
   19SAPC     P 2428   0.979   2.270  10.406  0.4122  0.0370  0.1164
   19SAPC   O13 2429   0.909   2.147  10.437 -0.0658 -0.0588 -0.3523
   19SAPC   O14 2430   0.894   2.395  10.409 -0.0555  0.1791  0.4671
   19SAPC   O12 2431   1.099   2.270  10.514  0.3882 -0.2065  0.0353
   19SAPC   O11 2432   1.042   2.240  10.260 -0.2732 -0.5178  0.4025
   19SAPC    C1 2433   0.990   2.141  10.166  0.5726 -0.5162  0.3435
   19SAPC    HA 2434   0.885   2.114  10.190  0.3528  0.7949  0.9507
   19SAPC    HB 2435   0.986   2.182  10.063  0.1882  0.9179  0.9043
   19SAPC    C2 2436   1.078   2.013  10.161 -0.1246 -0.0653 -0.1519
   19SAPC    HS 2437   1.103   1.984  10.265 -1.0971  0.7213  0.3215
   19SAPC   O21 2438   1.196   2.043  10.086  0.2550  0.9163  0.3147
   19SAPC   C21 2439   1.301   1.964  10.116  0.3990 -0.3599 -0.4258
   19SAPC   O22 2440   1.295   1.879  10.206 -0.3454  0.5281 -0.5614
   19SAPC   C22 2441   1.418   2.014  10.039  0.4914 -0.4965 -0.6514
   19SAPC   H2R 2442   1.425   2.125  10.045  0.5068 -0.5550  0.8124
   19SAPC   H2S 2443   1.513   2.004  10.095  0.4826  2.8603  0.1849
   19SAPC    C3 2444   1.004   1.892  10.101  0.2182  0.0761 -0.5935
   19SAPC    HX 2445   0.910   1.874  10.158 -0.2218 -3.2793 -2.1201
   19SAPC    HY 2446   1.072   1.805  10.115  0.7852  0.4965 -0.7069
   19SAPC   O31 2447   0.966   1.925   9.965 -0.1725 -0.6582 -0.0044
   19SAPC   C31 2448   1.044   1.882   9.871  0.6059  0.3080 -0.2042
   19SAPC   O32 2449   1.129   1.793   9.874  0.8815 -0.9054  0.6924
   19SAPC   C32 2450   1.024   1.964   9.744  0.3531  0.1302 -0.5540
   19SAPC   H2X 2451   1.075   2.059   9.771  3.6379 -1.4497 -0.8134
   19SAPC   H2Y 2452   0.915   1.982   9.726  0.0297 -2.1853 -1.1418
   19SAPC   C23 2453   1.434   1.964   9.892 -0.7130 -0.2037 -0.5754
   19SAPC   H3R 2454   1.361   2.021   9.831  1.3660  2.0152 -1.1681
   19SAPC   H3S 2455   1.420   1.854   9.891  1.4264 -0.5611  1.0278
   19SAPC   C24 2456   1.578   2.005   9.837 -0.2177 -0.0591 -0.2096
   19SAPC   H4R 2457   1.596   1.944   9.746  0.1853  1.6964 -1.3603
   19SAPC   H4S 2458   1.657   1.973   9.908 -0.4688  2.2648  1.2139
   19SAPC   C25 2459   1.579   2.155   9.820  0.1122  0.3345  0.1833
   19SAPC   H5R 2460   1.602   2.203   9.917  0.3333  0.0648  0.2676
   19SAPC   C26 2461   1.558   2.223   9.703 -0.0797 -0.3872 -0.4962
   19SAPC   H6R 2462   1.556   2.333   9.700 -3.2667 -0.3165  0.0530
   19SAPC   C27 2463   1.523   2.160   9.572 -1.1203  0.3891  0.6919
   19SAPC   H7R 2464   1.463   2.235   9.517 -0.1594  1.1775  0.7023
   19SAPC   H7S 2465   1.454   2.075   9.593 -0.1620 -0.4509  0.4847
   19SAPC   C28 2466   1.645   2.106   9.499 -0.1665  0.6300  0.0603
   19SAPC   H8R 2467   1.707   2.034   9.554  0.2363  0.5694 -0.4683
   19SAPC   C29 2468   1.676   2.134   9.368 -0.4605  0.4492  0.1309
   19SAPC   H9R 2469   1.765   2.087   9.324 -1.5296 -4.0866  2.2475
   19SAPC  C210 2470   1.604   2.229   9.277 -0.0802  0.3256  0.2753
   19SAPC  H10R 2471   1.664   2.275   9.195  0.8424  0.2234  0.8723
   19SAPC  H10S 2472   1.576   2.315   9.342 -2.4631 -0.8924  0.9783
   19SAPC  C211 2473   1.478   2.163   9.229 -0.1584 -0.5448 -0.2363
   19SAPC  H11R 2474   1.382   2.183   9.279  0.2685  1.2190 -0.0796
   19SAPC  C212 2475   1.471   2.088   9.115  0.0751  0.1801 -0.6915
   19SAPC  H12R 2476   1.375   2.050   9.077  0.3484  1.9444 -3.4187
   19SAPC  C213 2477   1.578   2.054   9.020 -0.6810  0.0109  0.0185
   19SAPC  H13R 2478   1.550   1.967   8.957 -1.0087 -0.4173  0.7400
   19SAPC  H13S 2479   1.670   2.037   9.080 -1.0993 -2.1758  0.1193
   19SAPC  C214 2480   1.617   2.170   8.926 -0.3516 -0.5556 -0.4352
   19SAPC  H14R 2481   1.708   2.221   8.961  0.7757 -1.4482 -1.9420
   19SAPC  C215 2482   1.566   2.191   8.803 -0.0089  0.5868 -0.5431
   19SAPC  H15R 2483   1.607   2.272   8.741  0.0672  2.0117  1.2995
   19SAPC  C216 2484   1.456   2.102   8.755  0.0195  0.3363 -0.4116
   19SAPC  H16R 2485   1.390   2.075   8.840  0.1407  1.0618 -0.0738
   19SAPC  H16S 2486   1.502   2.006   8.727 -1.7240 -0.0860 -2.0149
   19SAPC  C217 2487   1.376   2.163   8.635 -0.0562 -0.5616  0.9158
   19SAPC  H17R 2488   1.334   2.266   8.643  1.3494  0.1328 -0.1827
   19SAPC  H17S 2489   1.291   2.092   8.622 -2.8802  2.9150 -2.1622
   19SAPC  C218 2490   1.444   2.150   8.497  0.0471  0.6785 -1.0097
   19SAPC  H18R 2491   1.366   2.160   8.418 -1.0713  1.6967  0.1907
   19SAPC  H18S 2492   1.475   2.043   8.497 -0.5911  0.4335  1.5599
   19SAPC  C219 2493   1.556   2.243   8.464  0.3628 -1.1141  0.3543
   19SAPC  H19R 2494   1.614   2.227   8.371  2.8328 -1.7693  1.9266
   19SAPC  H19S 2495   1.630   2.233   8.546 -1.7715 -2.1978  2.2573
   19SAPC  C220 2496   1.515   2.395   8.451  0.3903 -0.3480 -0.0032
   19SAPC  H20R 2497   1.606   2.447   8.415 -0.1390  1.0650  0.6658
   19SAPC  H20S 2498   1.487   2.453   8.540  0.0521  1.4740 -1.2498
   19SAPC  H20T 2499   1.436   2.419   8.377 -0.3202 -1.0008  0.5192
   19SAPC   C33 2500   1.081   1.893   9.619  0.7561  0.0428 -0.4605
   19SAPC   H3X 2501   1.040   1.790   9.609  0.7776  0.0908 -1.1001
   19SAPC   H3Y 2502   1.190   1.870   9.609  0.6672 -0.9530  0.6439
   19SAPC   C34 2503   1.049   1.970   9.498 -0.3742  0.2920 -0.0723
   19SAPC   H4X 2504   1.108   2.064   9.506  3.0747 -1.8433  4.1085
   19SAPC   H4Y 2505   0.938   1.972   9.499 -0.4522 -0.7562 -1.9436
   19SAPC   C35 2506   1.094   1.903   9.367  0.0887  0.0110 -0.2816
   19SAPC   H5X 2507   1.042   1.805   9.361 -0.8177  0.5694 -2.1125
   19SAPC   H5Y 2508   1.199   1.869   9.379 -0.8390 -2.9031  0.5212
   19SAPC   C36 2509   1.073   1.992   9.240 -0.0601  0.4362  0.7264
   19SAPC   H6X 2510   1.156   2.066   9.240 -1.4712  2.1386 -1.0561
   19SAPC   H6Y 2511   0.975   2.040   9.260 -1.2743 -2.1585  1.3660
   19SAPC   C37 2512   1.065   1.911   9.110  0.2620  0.6043  0.4068
   19SAPC   H7X 2513   0.975   1.845   9.114  0.9320 -0.3775 -0.2230
   19SAPC   H7Y 2514   1.156   1.847   9.103 -1.0263 -1.1451 -1.9994
   19SAPC   C38 2515   1.046   1.996   8.984  0.0510  0.2524  0.2550
   19SAPC   H8X 2516   1.105   2.090   8.984  0.2981  0.1579  3.1069
   19SAPC   H8Y 2517   0.935   2.003   8.988  0.0350 -0.4800  3.4534
   19SAPC   C39 2518   1.079   1.914   8.854  0.4548  0.0413  0.3190
   19SAPC   H9X 2519   1.036   1.813   8.874 -2.5264  1.2309  0.4482
   19SAPC   H9Y 2520   1.188   1.899   8.836  0.0169  0.2450 -3.3377
   19SAPC  C310 2521   1.014   1.962   8.723 -0.1673 -0.7187 -1.3400
   19SAPC  H10X 2522   1.032   2.071   8.712 -1.4730 -0.2195  0.7599
   19SAPC  H10Y 2523   0.904   1.955   8.737 -0.0573  0.6013  0.5586
   19SAPC  C311 2524   1.056   1.889   8.597  0.7393 -0.5859 -0.3202
   19SAPC  H11X 2525   1.061   1.781   8.621 -0.3172 -0.5792 -0.0317
   19SAPC  H11Y 2526   1.155   1.935   8.578  0.9420 -0.6989  0.4579
   19SAPC  C312 2527   0.956   1.911   8.477 -0.2032 -0.5764  0.4572
   19SAPC  H12X 2528   0.858   1.880   8.522 -1.3067 -0.5506 -1.7994
   19SAPC  H12Y 2529   0.992   1.840   8.400 -1.0510  0.3228 -0.8007
   19SAPC  C313 2530   0.949   2.055   8.422 -0.1867 -0.2281 -0.5477
   19SAPC  H13X 2531   0.893   2.119   8.493  1.8691  2.6599 -1.3480
   19SAPC  H13Y 2532   0.883   2.052   8.332 -0.8553  0.8154 -0.1060
   19SAPC  C314 2533   1.080   2.124   8.402  0.1397 -0.0453 -0.4925
   19SAPC  H14X 2534   1.142   2.063   8.332  3.4464 -0.4516  2.4652
   19SAPC  H14Y 2535   1.137   2.126   8.498 -1.8696  2.4683  0.7527
   19SAPC  C315 2536   1.081   2.277   8.375 -0.2791  0.7186  1.1619
   19SAPC  H15X 2537   0.998   2.295   8.304  0.0602  2.2642  1.1273
   19SAPC  H15Y 2538   1.182   2.300   8.336 -0.7665 -0.6514 -1.0847
   19SAPC  C316 2539   1.057   2.351   8.497 -0.0979 -0.4731 -0.1050
   19SAPC  H16X 2540   1.113   2.308   8.583  1.5463 -0.4962 -1.1516
   19SAPC  H16Y 2541   0.949   2.346   8.523 -0.0110  0.3432  0.4535
   19SAPC  C317 2542   1.111   2.494   8.485  0.1609 -0.3001 -0.5483
   19SAPC  H17X 2543   1.040   2.559   8.429 -1.4016  1.4135  3.0739
   19SAPC  H17Y 2544   1.211   2.492   8.438  0.0781 -1.8831 -0.7187
   19SAPC  C318 2545   1.133   2.546   8.626 -0.2964 -0.5912  0.2394
   19SAPC  H18X 2546   1.044   2.556   8.692  0.1343 -0.2876  0.7836
   19SAPC  H18Y 2547   1.168   2.649   8.605 -1.3505 -0.2291  0.1775
   19SAPC  H18Z 2548   1.209   2.491   8.684  0.9210 -0.6154 -1.3223
   20SAPC     N 2549   6.756   5.108  10.990 -0.1785 -0.2434  0.0305
   20SAPC   C12 2550   6.885   5.177  10.936 -0.2446  0.2116  0.4108
   20SAPC  H12A 2551   6.924   5.225  11.025 -2.6365  0.5211  1.3634
   20SAPC  H12B 2552   6.867   5.258  10.868 -1.3281 -1.0200 -0.8122
   20SAPC   C13 2553   6.677   5.049  10.877  0.1005 -0.3584  0.5579
   20SAPC  H13A 2554   6.612   5.125  10.839  0.0128  0.5436  2.3941
   20SAPC  H13B 2555   6.739   5.020  10.793 -1.6599 -0.1730 -0.8743
   20SAPC  H13C 2556   6.612   4.971  10.915 -0.9240  0.3936  0.3653
   20SAPC   C14 2557   6.795   5.005  11.091  0.0509 -0.1591 -0.6836
   20SAPC  H14A 2558   6.702   4.969  11.133  0.7704 -0.8539  0.3795
   20SAPC  H14B 2559   6.865   4.928  11.065  2.2969  0.7381  2.1683
   20SAPC  H14C 2560   6.835   5.057  11.177 -1.7114 -0.2176  0.2275
   20SAPC   C15 2561   6.672   5.203  11.072  0.0028  0.3201  0.3557
   20SAPC  H15A 2562   6.718   5.244  11.161  1.0243  1.9032 -0.8536
   20SAPC  H15B 2563   6.635   5.284  11.012  0.0801  0.5393  0.6042
   20SAPC  H15C 2564   6.578   5.157  11.098  1.3651 -1.9076  1.7922
   20SAPC   C11 2565   7.001   5.087  10.878  0.6604  0.2240  0.2639
   20SAPC  H11A 2566   7.054   5.038  10.963  2.7607  0.0628 -1.0558
   20SAPC  H11B 2567   7.081   5.157  10.844  0.2434  1.0655  0.9621
   20SAPC     P 2568   6.987   4.849  10.766 -0.1317  0.6450 -0.4420
   20SAPC   O13 2569   7.115   4.836  10.697  0.4547 -0.2051 -0.5044
   20SAPC   O14 2570   6.974   4.781  10.898  0.1451 -0.6319  0.0802
   20SAPC   O12 2571   6.953   5.004  10.776 -0.4039 -0.0097 -0.3487
   20SAPC   O11 2572   6.870   4.796  10.675  0.3780  0.3569 -0.0569
   20SAPC    C1 2573   6.844   4.849  10.544  0.4825 -0.7004 -0.2712
   20SAPC    HA 2574   6.738   4.881  10.534  1.3904  3.1656  0.8618
   20SAPC    HB 2575   6.892   4.946  10.523 -0.0847 -0.6777 -1.5713
   20SAPC    C2 2576   6.861   4.744  10.439 -1.8030 -0.1542  0.1713
   20SAPC    HS 2577   6.851   4.640  10.478 -1.4888  0.3220  1.5576
   20SAPC   O21 2578   6.992   4.759  10.390  0.3368 -0.6162  0.3825
   20SAPC   C21 2579   7.045   4.661  10.308  0.8819 -0.3259  0.3758
   20SAPC   O22 2580   6.979   4.561  10.274 -0.8627  0.0318  0.8203
   20SAPC   C22 2581   7.174   4.714  10.244 -0.1142 -0.3956 -0.2902
   20SAPC   H2R 2582   7.145   4.807  10.190 -0.5154 -0.5833 -0.4012
   20SAPC   H2S 2583   7.232   4.752  10.330 -0.7196 -1.8262  0.7817
   20SAPC    C3 2584   6.763   4.763  10.323 -0.3586  0.5762  0.0022
   20SAPC    HX 2585   6.668   4.719  10.362 -0.1619  0.9106  0.8731
   20SAPC    HY 2586   6.788   4.686  10.247 -1.2939  0.9338 -0.6854
   20SAPC   O31 2587   6.728   4.891  10.263  0.3968  0.1275  0.4124
   20SAPC   C31 2588   6.789   4.916  10.145 -0.5288 -0.4852 -0.2076
   20SAPC   O32 2589   6.867   4.844  10.090  0.2403  0.1289  0.0829
   20SAPC   C32 2590   6.754   5.053  10.089 -0.0641  0.2814 -0.5649
   20SAPC   H2X 2591   6.821   5.130  10.131 -1.1535  1.1640 -0.4037
   20SAPC   H2Y 2592   6.650   5.082  10.116 -0.5928 -0.4448 -1.7190
   20SAPC   C23 2593   7.261   4.609  10.160  0.5144  0.2247 -0.3520
   20SAPC   H3R 2594   7.198   4.577  10.073  0.4730  2.4990 -1.2333
   20SAPC   H3S 2595   7.293   4.532  10.234 -3.6475 -0.3610  1.1275
   20SAPC   C24 2596   7.397   4.658  10.111  0.0281  0.3358  0.6007
   20SAPC   H4R 2597   7.455   4.685  10.201  0.1375 -0.1506  0.6786
   20SAPC   H4S 2598   7.396   4.748  10.045 -0.9951 -0.6303 -0.7693
   20SAPC   C25 2599   7.466   4.547  10.045 -0.4261 -0.0988 -0.1079
   20SAPC   H5R 2600   7.516   4.471  10.108 -2.0957 -1.6170 -0.5511
   20SAPC   C26 2601   7.465   4.527   9.913 -0.5005 -0.7855  0.3301
   20SAPC   H6R 2602   7.514   4.436   9.874  2.8099  1.7074 -1.8587
   20SAPC   C27 2603   7.391   4.607   9.812  0.1985  1.3875 -0.0054
   20SAPC   H7R 2604   7.454   4.682   9.759  1.2920 -0.7608 -1.9223
   20SAPC   H7S 2605   7.309   4.669   9.857 -1.4504 -0.7617  0.0985
   20SAPC   C28 2606   7.325   4.494   9.722 -0.3199 -0.7974  0.0686
   20SAPC   H8R 2607   7.245   4.446   9.779 -0.1535  2.6905  3.6730
   20SAPC   C29 2608   7.360   4.460   9.599 -1.1523  0.4026 -0.3998
   20SAPC   H9R 2609   7.319   4.372   9.547 -0.2126  0.4548 -1.2525
   20SAPC  C210 2610   7.472   4.512   9.516 -0.6294  0.5356 -0.5905
   20SAPC  H10R 2611   7.525   4.423   9.478 -0.6868  0.9955 -1.8102
   20SAPC  H10S 2612   7.543   4.577   9.571 -0.3689 -1.2387  1.2564
   20SAPC  C211 2613   7.427   4.593   9.397  0.2457  0.4960 -0.1059
   20SAPC  H11R 2614   7.421   4.700   9.424 -1.4060  0.5237 -0.4547
   20SAPC  C212 2615   7.371   4.554   9.284 -0.5334  0.0184 -0.7707
   20SAPC  H12R 2616   7.339   4.631   9.213 -2.5762  2.6000  2.6279
   20SAPC  C213 2617   7.360   4.402   9.247 -0.2158  0.2982 -0.3978
   20SAPC  H13R 2618   7.301   4.403   9.153 -1.0660  0.5307  0.1259
   20SAPC  H13S 2619   7.299   4.347   9.321  1.2336  0.8467  1.2922
   20SAPC  C214 2620   7.489   4.319   9.227 -0.0613  0.0247  0.3617
   20SAPC  H14R 2621   7.525   4.280   9.323  1.3286 -0.1078 -0.1958
   20SAPC  C215 2622   7.556   4.274   9.118 -0.5378 -0.1998 -0.5394
   20SAPC  H15R 2623   7.638   4.201   9.124 -0.3066  0.1184  0.3820
   20SAPC  C216 2624   7.527   4.297   8.976  0.1670 -0.2284  0.1579
   20SAPC  H16R 2625   7.477   4.396   8.966  1.1539  0.3290  0.5946
   20SAPC  H16S 2626   7.450   4.223   8.945  1.1919 -0.1053 -2.9644
   20SAPC  C217 2627   7.649   4.293   8.878  0.3031  0.1817 -0.0500
   20SAPC  H17R 2628   7.697   4.193   8.874  1.7359  0.8385  0.2765
   20SAPC  H17S 2629   7.728   4.368   8.899 -0.2300  1.3058 -1.7733
   20SAPC  C218 2630   7.611   4.314   8.730  0.1842  0.2278  0.3583
   20SAPC  H18R 2631   7.563   4.412   8.709 -2.8689 -1.3304 -0.5914
   20SAPC  H18S 2632   7.548   4.227   8.700 -0.8869  1.5924 -1.5860
   20SAPC  C219 2633   7.739   4.310   8.644  0.1451  0.4893  0.1388
   20SAPC  H19R 2634   7.692   4.328   8.544 -1.1572 -0.8460  0.4796
   20SAPC  H19S 2635   7.786   4.210   8.655  0.9928  0.8348 -0.2289
   20SAPC  C220 2636   7.832   4.433   8.656 -0.0819  0.5684  0.1437
   20SAPC  H20R 2637   7.873   4.449   8.758 -2.5400  0.5513  1.2107
   20SAPC  H20S 2638   7.777   4.527   8.636 -0.0409  0.8055  1.1048
   20SAPC  H20T 2639   7.913   4.433   8.580 -1.6838  1.8551 -1.6902
   20SAPC   C33 2640   6.763   5.045   9.935 -0.0707 -0.0823  0.1011
   20SAPC   H3X 2641   6.864   5.011   9.904 -0.1415 -0.0004 -0.2170
   20SAPC   H3Y 2642   6.759   5.153   9.911  0.9631 -0.3948 -1.7126
   20SAPC   C34 2643   6.653   4.961   9.870  0.4456 -0.5512  0.3490
   20SAPC   H4X 2644   6.556   5.012   9.886  1.1035  0.5764  0.8085
   20SAPC   H4Y 2645   6.637   4.859   9.910 -0.4414 -0.3907  0.4095
   20SAPC   C35 2646   6.673   4.948   9.717 -0.2220 -0.9953 -0.6151
   20SAPC   H5X 2647   6.599   4.881   9.667 -0.4036 -0.5015 -1.0240
   20SAPC   H5Y 2648   6.772   4.904   9.694  0.7183  1.0980 -0.8512
   20SAPC   C36 2649   6.668   5.084   9.653  0.8310  0.2756  0.4496
   20SAPC   H6X 2650   6.732   5.161   9.702  0.8560 -0.0636  0.9681
   20SAPC   H6Y 2651   6.568   5.130   9.643  0.1422 -1.5456 -1.6495
   20SAPC   C37 2652   6.722   5.079   9.510  0.2900 -0.0116 -0.6386
   20SAPC   H7X 2653   6.821   5.030   9.505  1.6946  2.3255  1.9527
   20SAPC   H7Y 2654   6.724   5.188   9.487 -3.7778  0.7061  1.4778
   20SAPC   C38 2655   6.630   5.027   9.397  0.0944  0.4675  0.1585
   20SAPC   H8X 2656   6.553   5.103   9.372  0.2029  1.2704  2.0707
   20SAPC   H8Y 2657   6.580   4.936   9.435 -3.1888  1.7755 -0.6480
   20SAPC   C39 2658   6.710   5.006   9.263 -0.1363  0.7016  0.9067
   20SAPC   H9X 2659   6.789   4.930   9.280 -1.4896 -1.2503 -1.0480
   20SAPC   H9Y 2660   6.756   5.103   9.234  1.7867 -0.6822 -0.9520
   20SAPC  C310 2661   6.620   4.949   9.151 -0.7068  0.0040 -1.0563
   20SAPC  H10X 2662   6.562   4.862   9.187 -0.4869 -0.1363 -1.0383
   20SAPC  H10Y 2663   6.698   4.913   9.082 -1.9228 -1.9853 -1.4631
   20SAPC  C311 2664   6.536   5.057   9.079 -0.1098  0.8990  0.1317
   20SAPC  H11X 2665   6.606   5.124   9.025 -0.7789  1.5493  0.0610
   20SAPC  H11Y 2666   6.485   5.119   9.155  0.3638  0.4231  0.8547
   20SAPC  C312 2667   6.433   5.002   8.973  0.9299  0.1731 -0.4078
   20SAPC  H12X 2668   6.356   5.081   8.960  3.0071  3.0531  2.9178
   20SAPC  H12Y 2669   6.391   4.913   9.023 -1.1200  1.6141  0.5675
   20SAPC  C313 2670   6.494   4.965   8.836 -0.2928 -0.3772 -0.2953
   20SAPC  H13X 2671   6.416   4.916   8.774 -1.9922  2.7344 -0.8095
   20SAPC  H13Y 2672   6.585   4.903   8.856 -0.8115 -1.6356 -1.6382
   20SAPC  C314 2673   6.535   5.083   8.753 -0.6056  0.8889  0.2565
   20SAPC  H14X 2674   6.635   5.118   8.785 -0.1679 -1.1401  1.2943
   20SAPC  H14Y 2675   6.464   5.163   8.781 -1.7636  0.0347 -0.1430
   20SAPC  C315 2676   6.529   5.079   8.591 -0.3602 -0.5660  0.2505
   20SAPC  H15X 2677   6.424   5.081   8.556 -1.1586 -0.4939  2.4621
   20SAPC  H15Y 2678   6.585   4.995   8.543 -0.5562 -0.3283 -0.4005
   20SAPC  C316 2679   6.615   5.199   8.538  0.4570 -0.4562 -0.3599
   20SAPC  H16X 2680   6.719   5.170   8.567  0.3877 -1.7968 -1.3336
   20SAPC  H16Y 2681   6.583   5.288   8.596  1.6085 -0.4442  0.2915
   20SAPC  C317 2682   6.604   5.216   8.388  0.3428  0.2363  0.1621
   20SAPC  H17X 2683   6.613   5.120   8.333 -0.3752 -0.6175  1.5042
   20SAPC  H17Y 2684   6.698   5.271   8.364 -0.4070  0.9631 -1.2475
   20SAPC  C318 2685   6.487   5.297   8.338 -0.1174 -0.3421 -0.7689
   20SAPC  H18X 2686   6.492   5.402   8.375  1.2311 -0.7115  0.1389
   20SAPC  H18Y 2687   6.390   5.257   8.375  0.7820 -1.5692  0.3505
   20SAPC  H18Z 2688   6.476   5.303   8.227  0.0527 -1.4856 -0.8590
   21SAPC     N 2689   6.780   3.798  11.045 -0.3165 -0.5860 -0.8208
   21SAPC   C12 2690   6.918   3.743  11.029 -0.4276 -0.2684 -0.5073
   21SAPC  H12A 2691   6.916   3.636  11.042 -0.5260 -0.0740  1.2077
   21SAPC  H12B 2692   6.972   3.775  11.117 -0.9562  0.4938 -0.4464
   21SAPC   C13 2693   6.694   3.746  10.933  0.0371 -0.1765 -0.1223
   21SAPC  H13A 2694   6.594   3.785  10.936  0.5369  1.1338  0.0126
   21SAPC  H13B 2695   6.738   3.784  10.842  1.2332 -0.0202  0.5088
   21SAPC  H13C 2696   6.688   3.638  10.924  0.0066 -0.0531 -1.8234
   21SAPC   C14 2697   6.717   3.744  11.171 -1.0126  0.1743 -0.5509
   21SAPC  H14A 2698   6.770   3.783  11.256  1.2210 -0.6452 -1.4854
   21SAPC  H14B 2699   6.617   3.775  11.195 -0.6931  2.5206 -1.9407
   21SAPC  H14C 2700   6.728   3.637  11.176  1.6945  0.4329  1.1380
   21SAPC   C15 2701   6.773   3.946  11.053 -0.4396  0.4731  0.3917
   21SAPC  H15A 2702   6.671   3.981  11.057 -0.2541  0.8930  1.9122
   21SAPC  H15B 2703   6.821   3.985  11.141 -2.1470  1.0487  1.1064
   21SAPC  H15C 2704   6.818   3.991  10.966 -1.6786 -0.1657 -0.6102
   21SAPC   C11 2705   7.001   3.782  10.901 -0.3894  0.2010  0.3245
   21SAPC  H11A 2706   7.109   3.758  10.907 -0.2903  0.2427 -0.9978
   21SAPC  H11B 2707   6.995   3.893  10.909 -2.1679  0.2585 -1.1113
   21SAPC     P 2708   6.974   3.580  10.747  0.1902 -0.1070 -0.0326
   21SAPC   O13 2709   7.066   3.560  10.634 -0.3840  0.1430  0.8240
   21SAPC   O14 2710   7.002   3.502  10.869  0.0250  0.4787 -0.8304
   21SAPC   O12 2711   6.947   3.730  10.779  0.3924  0.1408 -0.3723
   21SAPC   O11 2712   6.834   3.531  10.705  0.8015 -0.3330  0.5403
   21SAPC    C1 2713   6.759   3.612  10.611 -0.3018 -0.1308  0.1241
   21SAPC    HA 2714   6.699   3.692  10.660 -2.4996 -2.6134  1.7137
   21SAPC    HB 2715   6.829   3.658  10.538  0.7252  0.3600  1.3657
   21SAPC    C2 2716   6.658   3.521  10.529  0.1686 -0.0932 -0.0447
   21SAPC    HS 2717   6.574   3.499  10.599 -0.2331  0.1698 -0.4339
   21SAPC   O21 2718   6.727   3.402  10.482  0.9648 -0.3642  0.5156
   21SAPC   C21 2719   6.649   3.293  10.483  0.2507 -0.3202  1.5459
   21SAPC   O22 2720   6.530   3.294  10.520 -0.3582  0.4270 -0.1770
   21SAPC   C22 2721   6.725   3.187  10.395  0.6394  0.1176 -0.2738
   21SAPC   H2R 2722   6.783   3.230  10.311 -0.7533 -0.2477 -1.4530
   21SAPC   H2S 2723   6.784   3.139  10.477  0.9720 -3.6120 -2.4894
   21SAPC    C3 2724   6.599   3.605  10.406 -0.1964  0.4776  0.4702
   21SAPC    HX 2725   6.688   3.639  10.348  1.1558  0.1930  2.2830
   21SAPC    HY 2726   6.555   3.702  10.439  0.2492  1.0389 -0.5288
   21SAPC   O31 2727   6.507   3.535  10.320  0.1290 -0.5597 -0.3618
   21SAPC   C31 2728   6.378   3.512  10.362 -0.1593  0.3907  0.1734
   21SAPC   O32 2729   6.327   3.584  10.449  0.0857  0.7922 -0.1300
   21SAPC   C32 2730   6.311   3.416  10.267 -0.1109 -0.2929  0.5579
   21SAPC   H2X 2731   6.206   3.448  10.250  0.3580  1.2965  0.4266
   21SAPC   H2Y 2732   6.308   3.310  10.300 -1.2870 -0.4491 -0.0176
   21SAPC   C23 2733   6.632   3.070  10.349  0.0035  0.1876  0.0976
   21SAPC   H3R 2734   6.554   3.035  10.420 -0.0255  1.0671  0.5082
   21SAPC   H3S 2735   6.693   2.978  10.333 -1.8713 -0.8993 -1.1234
   21SAPC   C24 2736   6.545   3.094  10.223 -0.2367 -0.3154 -0.0134
   21SAPC   H4R 2737   6.490   3.189  10.244 -0.1041 -0.3772  0.6490
   21SAPC   H4S 2738   6.469   3.014  10.225  0.4322 -0.9563  0.1394
   21SAPC   C25 2739   6.610   3.102  10.088 -0.1176 -0.6920  0.7225
   21SAPC   H5R 2740   6.658   3.197  10.060 -0.3096 -0.5150  0.9944
   21SAPC   C26 2741   6.611   3.001   9.995  0.3246  0.3128 -0.5437
   21SAPC   H6R 2742   6.650   3.020   9.894 -1.0153  0.4607 -1.0531
   21SAPC   C27 2743   6.530   2.879  10.009  0.0446  0.6880 -0.6651
   21SAPC   H7R 2744   6.421   2.903  10.006  0.1930  1.4019 -0.6451
   21SAPC   H7S 2745   6.554   2.838  10.110 -1.7765  0.3481 -0.3396
   21SAPC   C28 2746   6.570   2.775   9.903  0.6631  0.5481  1.4449
   21SAPC   H8R 2747   6.670   2.732   9.922  1.1663  0.1208 -1.6494
   21SAPC   C29 2748   6.510   2.746   9.787  0.8359 -0.5651 -0.2162
   21SAPC   H9R 2749   6.542   2.654   9.735  0.5682 -1.8983  1.8448
   21SAPC  C210 2750   6.385   2.810   9.726  0.4884 -0.6892 -0.5444
   21SAPC  H10R 2751   6.342   2.881   9.800  2.2416  0.6930 -0.7888
   21SAPC  H10S 2752   6.309   2.729   9.719  0.0248 -0.1758 -1.7350
   21SAPC  C211 2753   6.411   2.876   9.598  0.2737  0.2808 -0.3550
   21SAPC  H11R 2754   6.475   2.962   9.620  0.6940 -0.3794  1.0775
   21SAPC  C212 2755   6.341   2.864   9.486 -0.2304 -0.3654  0.0317
   21SAPC  H12R 2756   6.369   2.928   9.401  1.2301 -1.1033 -0.0790
   21SAPC  C213 2757   6.230   2.771   9.449  0.2715 -0.7255  0.1610
   21SAPC  H13R 2758   6.130   2.819   9.451 -0.4641 -2.1387 -0.9689
   21SAPC  H13S 2759   6.230   2.679   9.512 -0.5554  0.7695  2.4550
   21SAPC  C214 2760   6.256   2.723   9.306  0.5392 -0.2720 -0.7090
   21SAPC  H14R 2761   6.321   2.634   9.301  1.1676  0.1356 -0.0188
   21SAPC  C215 2762   6.207   2.774   9.193  0.1923 -0.1601  0.9493
   21SAPC  H15R 2763   6.216   2.716   9.100 -2.8252  2.7175 -1.3839
   21SAPC  C216 2764   6.128   2.899   9.176  0.3867  0.7692 -0.4583
   21SAPC  H16R 2765   6.173   2.958   9.093 -0.4757 -0.0044 -1.5062
   21SAPC  H16S 2766   6.132   2.968   9.263  2.9414  0.5451 -0.3100
   21SAPC  C217 2767   5.978   2.873   9.173 -0.1095 -0.1676  0.3807
   21SAPC  H17R 2768   5.931   2.973   9.179  0.4856  0.0637  1.3993
   21SAPC  H17S 2769   5.949   2.809   9.259 -1.7706 -2.2838 -1.6395
   21SAPC  C218 2770   5.916   2.801   9.050 -0.5836 -0.0786  0.6755
   21SAPC  H18R 2771   5.986   2.790   8.965 -0.7480  2.9276  0.0371
   21SAPC  H18S 2772   5.834   2.866   9.010 -0.2539 -0.8942 -1.4284
   21SAPC  C219 2773   5.854   2.667   9.096 -0.1768 -0.8944  0.0015
   21SAPC  H19R 2774   5.766   2.693   9.159  0.9221  2.0383  0.5220
   21SAPC  H19S 2775   5.933   2.619   9.158  0.9103  1.4982  0.5942
   21SAPC  C220 2776   5.810   2.577   8.983 -0.1488  0.3130  0.0937
   21SAPC  H20R 2777   5.878   2.579   8.895 -1.7180  1.2380 -1.1563
   21SAPC  H20S 2778   5.708   2.607   8.949 -0.7582 -0.7305  0.9227
   21SAPC  H20T 2779   5.802   2.470   9.012 -0.7571 -0.0911 -1.4550
   21SAPC   C33 2780   6.378   3.417  10.135 -0.6460  0.0626  0.1643
   21SAPC   H3X 2781   6.474   3.362  10.126 -2.1650 -2.4741 -1.9679
   21SAPC   H3Y 2782   6.389   3.524  10.109  1.2966  0.0211  0.6915
   21SAPC   C34 2783   6.288   3.372  10.019  0.5356  0.3069  0.3420
   21SAPC   H4X 2784   6.213   3.453  10.010 -0.2199 -0.2869  1.1584
   21SAPC   H4Y 2785   6.244   3.273  10.041  2.8515 -0.9335 -0.2255
   21SAPC   C35 2786   6.373   3.357   9.888  0.1100 -0.3431 -0.4790
   21SAPC   H5X 2787   6.451   3.280   9.907  0.2855  0.5594  3.3891
   21SAPC   H5Y 2788   6.427   3.453   9.869  0.0045 -0.7404 -3.1429
   21SAPC   C36 2789   6.293   3.328   9.764  0.1843  0.3502  0.2826
   21SAPC   H6X 2790   6.227   3.416   9.755 -0.4976 -0.1143  0.6902
   21SAPC   H6Y 2791   6.236   3.233   9.770  2.7937 -1.7075 -3.3151
   21SAPC   C37 2792   6.384   3.317   9.640  1.3376  0.2324  0.1359
   21SAPC   H7X 2793   6.462   3.239   9.652  2.4914  1.4792  1.2825
   21SAPC   H7Y 2794   6.434   3.417   9.642 -2.6569  2.4620  0.1467
   21SAPC   C38 2795   6.299   3.292   9.512  0.0333 -0.1816 -0.4036
   21SAPC   H8X 2796   6.229   3.375   9.488 -1.4061 -0.3367  2.7377
   21SAPC   H8Y 2797   6.242   3.200   9.538 -3.5278  1.9177 -0.1603
   21SAPC   C39 2798   6.405   3.270   9.403 -0.2477 -0.7054  0.0933
   21SAPC   H9X 2799   6.463   3.177   9.424  1.6421  0.4962  0.4485
   21SAPC   H9Y 2800   6.472   3.359   9.402 -1.5840  0.3545  1.0531
   21SAPC  C310 2801   6.341   3.241   9.267 -0.7082  0.1472  0.5902
   21SAPC  H10X 2802   6.271   3.155   9.277 -1.2277  0.3828 -0.7428
   21SAPC  H10Y 2803   6.426   3.198   9.210 -1.6476 -0.1379 -0.6563
   21SAPC  C311 2804   6.295   3.361   9.190  0.3395 -0.2984 -0.3107
   21SAPC  H11X 2805   6.374   3.439   9.197 -0.3613  0.4723 -0.8282
   21SAPC  H11Y 2806   6.203   3.398   9.240  1.6827  1.0003  1.2959
   21SAPC  C312 2807   6.275   3.331   9.039 -0.7294  0.2585  0.2756
   21SAPC  H12X 2808   6.199   3.251   9.037 -2.3594  1.7497 -0.6518
   21SAPC  H12Y 2809   6.366   3.292   8.988  0.1469  0.6539  1.4668
   21SAPC  C313 2810   6.236   3.454   8.956  0.8093  0.6099 -0.1640
   21SAPC  H13X 2811   6.318   3.527   8.971  0.4276  0.8979  0.5404
   21SAPC  H13Y 2812   6.142   3.500   8.993  1.4419  0.6188  1.4943
   21SAPC  C314 2813   6.239   3.420   8.805  0.2260 -0.3241  0.7875
   21SAPC  H14X 2814   6.142   3.376   8.773 -0.3474  2.4271 -1.6458
   21SAPC  H14Y 2815   6.309   3.335   8.789  1.1595  0.4156  0.8258
   21SAPC  C315 2816   6.257   3.548   8.719 -0.2150 -0.6234 -0.1735
   21SAPC  H15X 2817   6.348   3.586   8.770 -1.9734  2.6609  0.7569
   21SAPC  H15Y 2818   6.165   3.604   8.745  0.3306 -0.0551  0.5894
   21SAPC  C316 2819   6.271   3.512   8.566 -0.5806  0.6312 -0.0476
   21SAPC  H16X 2820   6.353   3.440   8.544  0.6294  2.2251 -0.9337
   21SAPC  H16Y 2821   6.310   3.604   8.517  0.5622  0.8003  1.1291
   21SAPC  C317 2822   6.143   3.472   8.493 -0.1040  0.3076  0.4821
   21SAPC  H17X 2823   6.120   3.364   8.487 -3.1377  0.9273 -2.7689
   21SAPC  H17Y 2824   6.162   3.511   8.390  0.0409  0.8739  0.7208
   21SAPC  C318 2825   6.016   3.540   8.524  0.2243 -0.4948 -0.1806
   21SAPC  H18X 2826   6.024   3.651   8.529  0.2948 -0.5077  0.0453
   21SAPC  H18Y 2827   5.974   3.493   8.615  2.0492 -0.8967  0.4960
   21SAPC  H18Z 2828   5.948   3.504   8.444 -0.3130 -0.7691  0.3877
   22SAPC     N 2829   1.005   1.078  10.814 -0.0546  0.7100  0.4815
   22SAPC   C12 2830   1.013   1.223  10.863  0.0521  0.8031  0.6579
   22SAPC  H12A 2831   1.091   1.222  10.938  0.7127 -1.2752  0.0232
   22SAPC  H12B 2832   0.920   1.255  10.906  0.1074  0.0918  1.3376
   22SAPC   C13 2833   0.970   0.982  10.932  0.0930  0.1186  0.1475
   22SAPC  H13A 2834   0.958   0.881  10.895  0.0642  0.5162 -0.9601
   22SAPC  H13B 2835   1.050   0.976  11.004 -0.3404 -1.2279  0.5495
   22SAPC  H13C 2836   0.878   1.012  10.981 -0.5861 -1.5634 -0.0301
   22SAPC   C14 2837   0.906   1.058  10.714  0.3141 -0.5467 -0.4164
   22SAPC  H14A 2838   0.802   1.047  10.742 -0.0509 -1.1059 -1.8895
   22SAPC  H14B 2839   0.910   1.145  10.649  0.6197  1.8799  2.6076
   22SAPC  H14C 2840   0.926   0.969  10.656 -0.4007 -1.2037  0.3218
   22SAPC   C15 2841   1.136   1.042  10.754  0.3108 -0.4304 -0.5239
   22SAPC  H15A 2842   1.212   1.082  10.820 -1.8165  2.3415  0.4080
   22SAPC  H15B 2843   1.152   0.936  10.737 -0.1989 -0.4847 -0.6798
   22SAPC  H15C 2844   1.152   1.088  10.658 -0.8795  1.3974  0.1151
   22SAPC   C11 2845   1.045   1.325  10.760  0.5619  0.0370  0.3281
   22SAPC  H11A 2846   0.957   1.373  10.712  0.1262 -2.2126 -1.2715
   22SAPC  H11B 2847   1.092   1.273  10.674  0.5047 -2.2588  1.6220
   22SAPC     P 2848   1.287   1.416  10.790  0.2212 -0.0557 -0.0771
   22SAPC   O13 2849   1.342   1.551  10.811 -0.5651 -0.1389 -0.4080
   22SAPC   O14 2850   1.344   1.309  10.874 -0.1103  0.2439  0.4024
   22SAPC   O12 2851   1.136   1.424  10.808  0.0157  0.1119 -0.5200
   22SAPC   O11 2852   1.305   1.375  10.636  0.7126  1.1719 -0.3151
   22SAPC    C1 2853   1.319   1.479  10.542  0.0203  0.4033 -0.5478
   22SAPC    HA 2854   1.277   1.577  10.574  0.2756  1.3820 -2.9564
   22SAPC    HB 2855   1.427   1.497  10.522  0.5801  0.1389  1.9648
   22SAPC    C2 2856   1.247   1.441  10.409 -0.1530  0.6536 -0.2400
   22SAPC    HS 2857   1.142   1.411  10.428 -0.1996 -1.6001 -3.3293
   22SAPC   O21 2858   1.324   1.332  10.345  0.0181 -0.2933 -0.2912
   22SAPC   C21 2859   1.252   1.223  10.307  0.0400 -0.3772 -0.0120
   22SAPC   O22 2860   1.132   1.215  10.319  0.5323 -0.0721  0.5835
   22SAPC   C22 2861   1.333   1.115  10.235 -0.3997  0.4753  0.6620
   22SAPC   H2R 2862   1.390   1.062  10.314  0.1945 -1.0878 -0.7791
   22SAPC   H2S 2863   1.266   1.053  10.173  0.1583  1.3424 -0.8534
   22SAPC    C3 2864   1.245   1.559  10.308  0.3341 -0.1784 -0.3700
   22SAPC    HX 2865   1.344   1.609  10.319 -0.2143  0.4681  2.5849
   22SAPC    HY 2866   1.162   1.622  10.347  0.8134  0.3420 -0.1766
   22SAPC   O31 2867   1.217   1.512  10.171 -0.8599 -0.1520  0.5056
   22SAPC   C31 2868   1.087   1.521  10.143  0.1286  0.0761  0.3678
   22SAPC   O32 2869   0.998   1.546  10.224 -0.3860 -0.2663  0.6784
   22SAPC   C32 2870   1.066   1.493   9.995  0.1870  0.4481 -0.3976
   22SAPC   H2X 2871   1.158   1.506   9.934  0.6222  1.9356  0.5093
   22SAPC   H2Y 2872   1.002   1.579   9.964  1.8438  0.9696 -2.6143
   22SAPC   C23 2873   1.436   1.173  10.143 -0.6638 -0.0806  1.0626
   22SAPC   H3R 2874   1.501   1.248  10.195 -0.0820  0.4795 -0.4099
   22SAPC   H3S 2875   1.387   1.233  10.063 -0.4570  1.8930  2.3424
   22SAPC   C24 2876   1.533   1.075  10.072  0.4733 -0.5543 -0.3019
   22SAPC   H4R 2877   1.594   1.017  10.145 -0.9493  0.4267  1.7668
   22SAPC   H4S 2878   1.612   1.135  10.022  0.6293 -0.0529  0.5378
   22SAPC   C25 2879   1.467   0.984   9.969 -0.3058 -1.0071 -0.1561
   22SAPC   H5R 2880   1.426   0.894  10.017 -2.8240  0.5054  0.7865
   22SAPC   C26 2881   1.460   1.014   9.842  0.7824 -0.2185  0.3434
   22SAPC   H6R 2882   1.415   0.941   9.774 -1.1985  0.9902  0.2674
   22SAPC   C27 2883   1.502   1.141   9.772  0.0309 -0.3240  0.0689
   22SAPC   H7R 2884   1.509   1.216   9.854  0.0353  0.7848 -0.9358
   22SAPC   H7S 2885   1.414   1.178   9.715 -0.0244 -1.8503 -0.8809
   22SAPC   C28 2886   1.631   1.137   9.694 -0.3415 -0.3728 -0.0206
   22SAPC   H8R 2887   1.720   1.182   9.741  0.6392 -0.6254 -1.5461
   22SAPC   C29 2888   1.640   1.096   9.563  0.6080  0.3857  0.2756
   22SAPC   H9R 2889   1.735   1.119   9.512  0.9003  0.3093  0.7725
   22SAPC  C210 2890   1.538   1.047   9.465  0.1027  0.3217 -0.2094
   22SAPC  H10R 2891   1.470   0.973   9.513  0.7038  1.0858  1.9185
   22SAPC  H10S 2892   1.592   0.988   9.388  2.3875  1.2532  0.5712
   22SAPC  C211 2893   1.457   1.156   9.407  0.4123  0.3407 -0.9723
   22SAPC  H11R 2894   1.425   1.227   9.484 -0.9115 -1.6870  0.4334
   22SAPC  C212 2895   1.409   1.158   9.277  0.2960  0.8410 -0.2818
   22SAPC  H12R 2896   1.352   1.247   9.248  0.3360  1.4956  1.4839
   22SAPC  C213 2897   1.432   1.059   9.164 -0.8411  0.3775  0.7725
   22SAPC  H13R 2898   1.340   1.045   9.105  0.1425  1.0064 -0.9833
   22SAPC  H13S 2899   1.451   0.963   9.217  0.3265 -0.1674 -0.5739
   22SAPC  C214 2900   1.556   1.092   9.083  0.2787  0.5301 -0.0073
   22SAPC  H14R 2901   1.644   1.107   9.147 -0.7133  0.0488  1.5342
   22SAPC  C215 2902   1.559   1.119   8.951 -0.2184 -0.1198  0.1661
   22SAPC  H15R 2903   1.648   1.159   8.901 -0.4945  1.5509  0.9347
   22SAPC  C216 2904   1.436   1.119   8.864 -0.7521 -0.3360  0.0261
   22SAPC  H16R 2905   1.403   1.223   8.847  0.9919 -0.0035 -1.6851
   22SAPC  H16S 2906   1.357   1.058   8.912  0.4254 -0.1444  2.3352
   22SAPC  C217 2907   1.458   1.067   8.715 -0.2172 -0.8804  0.8262
   22SAPC  H17R 2908   1.360   1.068   8.663  0.6771  0.7657 -0.9718
   22SAPC  H17S 2909   1.504   0.966   8.718  1.6113 -0.0992  0.8558
   22SAPC  C218 2910   1.545   1.168   8.632  0.1771 -0.4478  0.4607
   22SAPC  H18R 2911   1.643   1.175   8.683  0.5922  1.5080 -0.5340
   22SAPC  H18S 2912   1.507   1.273   8.635 -1.3056 -0.6107 -4.0937
   22SAPC  C219 2913   1.572   1.124   8.488  0.0362  0.3103 -0.6551
   22SAPC  H19R 2914   1.479   1.107   8.429 -0.1160  0.0223 -0.3375
   22SAPC  H19S 2915   1.633   1.032   8.499 -0.2027  0.4763  4.2875
   22SAPC  C220 2916   1.654   1.228   8.418 -0.2357 -0.3159 -0.0855
   22SAPC  H20R 2917   1.689   1.192   8.319  1.6958  0.8573  0.1243
   22SAPC  H20S 2918   1.744   1.255   8.477  0.7409 -2.1791 -0.6400
   22SAPC  H20T 2919   1.585   1.310   8.390 -0.9121 -1.4042 -1.7947
   22SAPC   C33 2920   1.012   1.345   9.961  0.3633 -0.0740 -0.7248
   22SAPC   H3X 2921   0.976   1.307  10.059  4.1199 -1.4474  0.2803
   22SAPC   H3Y 2922   1.091   1.271   9.938  1.2741  0.6338  0.0316
   22SAPC   C34 2923   0.887   1.349   9.871 -0.6063 -0.2892  0.3769
   22SAPC   H4X 2924   0.821   1.429   9.911 -0.1580 -0.6952  2.0005
   22SAPC   H4Y 2925   0.835   1.252   9.883  0.7825 -1.0076  0.8232
   22SAPC   C35 2926   0.923   1.384   9.724 -0.1516  0.3659 -0.2606
   22SAPC   H5X 2927   0.985   1.311   9.666 -2.0691  0.7676 -2.9953
   22SAPC   H5Y 2928   0.973   1.483   9.724 -0.5617  0.6856  3.0800
   22SAPC   C36 2929   0.798   1.403   9.635  0.8193  0.7029 -0.1844
   22SAPC   H6X 2930   0.732   1.480   9.681  2.8078  2.6394 -0.3971
   22SAPC   H6Y 2931   0.737   1.310   9.638  1.0336  0.5631  2.7061
   22SAPC   C37 2932   0.824   1.442   9.492 -0.0947  0.4626  0.9210
   22SAPC   H7X 2933   0.875   1.540   9.477  1.2305 -0.2695  0.5011
   22SAPC   H7Y 2934   0.729   1.441   9.434 -1.0722 -2.1234  2.3822
   22SAPC   C38 2935   0.906   1.332   9.422 -0.6217  0.7339  0.2855
   22SAPC   H8X 2936   0.857   1.233   9.430 -0.9167  0.9112  0.6943
   22SAPC   H8Y 2937   1.008   1.336   9.466 -0.8373  1.3452  0.7415
   22SAPC   C39 2938   0.922   1.352   9.270 -0.0715  0.1591 -0.4265
   22SAPC   H9X 2939   0.954   1.458   9.260  0.7363 -0.1574 -1.3648
   22SAPC   H9Y 2940   0.822   1.348   9.222  0.0064 -0.5161 -0.5433
   22SAPC  C310 2941   1.022   1.264   9.200 -0.0266  0.8362 -0.1385
   22SAPC  H10X 2942   1.105   1.239   9.269 -1.3648  0.5182  1.4206
   22SAPC  H10Y 2943   1.070   1.313   9.112 -0.4546  0.7652 -0.4146
   22SAPC  C311 2944   0.963   1.133   9.148  0.6310 -0.2502 -0.6112
   22SAPC  H11X 2945   0.879   1.157   9.080 -0.6519 -0.2504  0.9019
   22SAPC  H11Y 2946   0.915   1.075   9.230 -3.0905  0.0357 -2.4099
   22SAPC  C312 2947   1.067   1.058   9.075  0.0763  0.4517  0.0330
   22SAPC  H12X 2948   1.141   1.019   9.147  0.8700  0.4445 -0.7630
   22SAPC  H12Y 2949   1.116   1.123   9.000 -0.3127 -0.4012 -0.9935
   22SAPC  C313 2950   1.021   0.919   9.006 -0.3213  0.4605 -0.1609
   22SAPC  H13X 2951   0.980   0.859   9.090 -1.9897  0.2971 -1.0410
   22SAPC  H13Y 2952   1.118   0.881   8.967 -0.6443 -0.1569 -0.3750
   22SAPC  C314 2953   0.912   0.943   8.895 -0.7058 -0.1215  0.2382
   22SAPC  H14X 2954   0.952   0.999   8.808 -1.2339 -0.1012  0.0076
   22SAPC  H14Y 2955   0.825   1.003   8.929 -0.8395  0.4421 -1.0625
   22SAPC  C315 2956   0.879   0.801   8.836  0.5538 -0.4158 -0.1483
   22SAPC  H15X 2957   0.782   0.809   8.783  1.7200 -1.0494 -2.5268
   22SAPC  H15Y 2958   0.868   0.733   8.923  1.8661  0.1880  0.5294
   22SAPC  C316 2959   0.984   0.743   8.739 -0.3201  0.2984 -1.0514
   22SAPC  H16X 2960   1.086   0.744   8.784 -1.6393  1.8467  2.2304
   22SAPC  H16Y 2961   1.004   0.811   8.653  2.6820 -0.9143 -1.4463
   22SAPC  C317 2962   0.934   0.609   8.680 -1.0854  0.3785  0.1029
   22SAPC  H17X 2963   0.985   0.586   8.584 -1.7182 -1.6299  0.1959
   22SAPC  H17Y 2964   0.830   0.621   8.641 -1.2222 -0.1337  0.3112
   22SAPC  C318 2965   0.926   0.490   8.775 -0.1902  0.1482 -0.0190
   22SAPC  H18X 2966   1.024   0.443   8.798 -0.0077  1.2532  1.6803
   22SAPC  H18Y 2967   0.866   0.414   8.721 -0.6244  2.2291 -2.6717
   22SAPC  H18Z 2968   0.885   0.527   8.871 -0.3157  2.5577 -0.9296
   23SAPC     N 2969   2.032   1.216  11.017  0.5325  0.6629 -0.6937
   23SAPC   C12 2970   1.912   1.319  11.010 -0.0137  0.0753 -0.1560
   23SAPC  H12A 2971   1.938   1.392  11.085  0.5927 -1.4837  1.2282
   23SAPC  H12B 2972   1.819   1.271  11.035  0.2006 -0.0767  0.3546
   23SAPC   C13 2973   2.153   1.298  11.026  0.3449  0.7754 -0.4743
   23SAPC  H13A 2974   2.150   1.346  11.122  2.0446 -0.1228  0.0532
   23SAPC  H13B 2975   2.241   1.236  11.021  0.8761  1.5213 -0.3534
   23SAPC  H13C 2976   2.164   1.374  10.950 -1.2373  1.4865 -0.0430
   23SAPC   C14 2977   2.005   1.134  11.145 -0.0010 -0.7160 -0.0701
   23SAPC  H14A 2978   1.979   1.201  11.226 -0.0931  1.1685 -1.5681
   23SAPC  H14B 2979   1.920   1.069  11.134 -1.8733  1.2807  1.5662
   23SAPC  H14C 2980   2.093   1.077  11.170  1.3490  1.9401  1.8256
   23SAPC   C15 2981   2.039   1.121  10.906 -0.8124 -0.1084 -0.3605
   23SAPC  H15A 2982   1.953   1.055  10.905 -0.5394 -0.4816 -2.1317
   23SAPC  H15B 2983   2.032   1.171  10.811 -2.1284 -0.3113 -0.3973
   23SAPC  H15C 2984   2.133   1.070  10.899 -1.8751 -2.1969 -0.3621
   23SAPC   C11 2985   1.889   1.401  10.874  0.5598 -0.1245 -0.0974
   23SAPC  H11A 2986   1.793   1.456  10.872  0.4207 -0.3446 -2.5843
   23SAPC  H11B 2987   1.873   1.333  10.787  2.0376 -0.5165 -0.0833
   23SAPC     P 2988   2.078   1.491  10.708  0.0896 -0.2490  0.2526
   23SAPC   O13 2989   2.199   1.574  10.713 -0.3723 -0.0597  0.1484
   23SAPC   O14 2990   2.093   1.349  10.671 -0.6610 -0.7071  0.0050
   23SAPC   O12 2991   1.999   1.498  10.846  0.1717 -0.5570 -0.9644
   23SAPC   O11 2992   1.960   1.563  10.621  0.7092  0.2988  0.3635
   23SAPC    C1 2993   1.963   1.709  10.629  0.1120 -0.0374 -0.4383
   23SAPC    HA 2994   1.973   1.742  10.735  1.6860 -0.3095 -0.4838
   23SAPC    HB 2995   2.045   1.753  10.567 -0.3110  0.4685 -0.6524
   23SAPC    C2 2996   1.838   1.780  10.573  0.2565  0.2288  0.2616
   23SAPC    HS 2997   1.751   1.736  10.625  0.5914  0.4444  1.0291
   23SAPC   O21 2998   1.826   1.739  10.433 -0.0432  0.6241  0.3062
   23SAPC   C21 2999   1.709   1.755  10.376 -0.0964 -0.4381  0.2645
   23SAPC   O22 3000   1.609   1.789  10.429  0.3206  0.3816  0.0525
   23SAPC   C22 3001   1.710   1.723  10.232 -0.2071  0.3783 -0.6552
   23SAPC   H2R 3002   1.606   1.732  10.195  0.2962  1.9009 -1.7854
   23SAPC   H2S 3003   1.775   1.791  10.173 -1.9546  2.7829  0.0631
   23SAPC    C3 3004   1.856   1.925  10.599  0.0720 -0.0669  1.0316
   23SAPC    HX 3005   1.837   1.930  10.708 -0.0906  0.8470  0.9751
   23SAPC    HY 3006   1.777   1.983  10.545  0.7929  0.4956  0.5627
   23SAPC   O31 3007   1.985   1.983  10.565  0.2091  0.6864  0.1438
   23SAPC   C31 3008   2.001   2.018  10.439 -0.7785 -0.6570  0.0784
   23SAPC   O32 3009   1.917   2.013  10.349  0.9643  0.5946 -0.1632
   23SAPC   C32 3010   2.134   2.075  10.422  0.1884  1.2050 -0.3881
   23SAPC   H2X 3011   2.212   1.995  10.426  1.0125  2.0626  1.4909
   23SAPC   H2Y 3012   2.156   2.146  10.503  1.9960 -1.3146  1.4935
   23SAPC   C23 3013   1.758   1.580  10.204  0.3008  0.4450  0.6348
   23SAPC   H3R 3014   1.723   1.514  10.287  0.4455  0.6692  0.8745
   23SAPC   H3S 3015   1.867   1.557  10.202  0.5722  1.7280 -0.2567
   23SAPC   C24 3016   1.703   1.520  10.070 -0.3568  0.0361 -0.1080
   23SAPC   H4R 3017   1.733   1.413  10.070  0.8660  0.3537  1.4676
   23SAPC   H4S 3018   1.754   1.579   9.991  0.3432  2.2327  1.8941
   23SAPC   C25 3019   1.556   1.522  10.058 -0.0230  0.2778 -0.1932
   23SAPC   H5R 3020   1.505   1.476  10.144 -0.7857 -0.9763 -1.2713
   23SAPC   C26 3021   1.485   1.547   9.948  0.0187  0.4450 -0.2364
   23SAPC   H6R 3022   1.377   1.533   9.965  0.2396  0.9575  1.9238
   23SAPC   C27 3023   1.538   1.593   9.817 -0.1596  0.5169 -0.1038
   23SAPC   H7R 3024   1.647   1.573   9.807  0.7848  3.1129  3.2465
   23SAPC   H7S 3025   1.530   1.704   9.805  1.0575  0.7195  0.8042
   23SAPC   C28 3026   1.465   1.529   9.698 -0.6380 -0.0376 -0.8811
   23SAPC   H8R 3027   1.469   1.419   9.696 -1.3730 -0.0857 -0.2248
   23SAPC   C29 3028   1.424   1.587   9.590  0.1707  0.5638  0.3423
   23SAPC   H9R 3029   1.379   1.527   9.509  0.6025 -0.7433  1.0422
   23SAPC  C210 3030   1.431   1.737   9.559 -0.2524 -0.0068 -0.2387
   23SAPC  H10R 3031   1.439   1.798   9.651  0.3752 -0.8179  0.2558
   23SAPC  H10S 3032   1.332   1.759   9.513  0.9260 -0.8921 -3.5001
   23SAPC  C211 3033   1.550   1.766   9.470 -0.2469 -0.3526  0.1191
   23SAPC  H11R 3034   1.637   1.811   9.521 -1.1140 -0.5856  1.8963
   23SAPC  C212 3035   1.562   1.755   9.338 -0.5089 -0.1138 -0.5811
   23SAPC  H12R 3036   1.666   1.759   9.301  0.2638 -1.8510  1.2341
   23SAPC  C213 3037   1.459   1.691   9.247  1.3555 -0.1009 -0.4391
   23SAPC  H13R 3038   1.451   1.753   9.156  0.6937 -0.6970 -0.7966
   23SAPC  H13S 3039   1.355   1.695   9.285  0.9297  1.5616 -1.6989
   23SAPC  C214 3040   1.490   1.542   9.216  0.7514 -0.3692  0.1936
   23SAPC  H14R 3041   1.552   1.477   9.280 -0.4687 -0.3804  1.4262
   23SAPC  C215 3042   1.460   1.499   9.092 -0.0972 -0.1744  0.3147
   23SAPC  H15R 3043   1.498   1.401   9.061 -1.5771 -0.6879  0.0676
   23SAPC  C216 3044   1.395   1.571   8.977  0.1235 -0.1417 -0.0013
   23SAPC  H16R 3045   1.333   1.658   9.009  0.2756  0.0040 -0.1022
   23SAPC  H16S 3046   1.327   1.495   8.933  1.0382 -1.0717  0.1647
   23SAPC  C217 3047   1.490   1.603   8.864 -0.1928 -0.0666 -0.1675
   23SAPC  H17R 3048   1.548   1.511   8.837 -1.0550 -0.0898 -2.0915
   23SAPC  H17S 3049   1.562   1.686   8.879  0.0389  0.4362 -3.2627
   23SAPC  C218 3050   1.409   1.639   8.734 -0.2886  0.4163  0.1091
   23SAPC  H18R 3051   1.334   1.717   8.757 -1.4361 -0.6398  0.0879
   23SAPC  H18S 3052   1.357   1.552   8.687  0.8858 -0.1787 -0.1209
   23SAPC  C219 3053   1.494   1.684   8.616 -0.1044 -0.3665 -0.4125
   23SAPC  H19R 3054   1.580   1.615   8.602  2.1557  2.3713 -0.8262
   23SAPC  H19S 3055   1.557   1.770   8.648 -2.5226  1.6657 -0.7796
   23SAPC  C220 3056   1.404   1.722   8.500 -0.2714  0.0215  0.4696
   23SAPC  H20R 3057   1.457   1.715   8.403 -0.0108  0.7417  0.5564
   23SAPC  H20S 3058   1.366   1.825   8.517 -3.1298 -0.6935 -0.9511
   23SAPC  H20T 3059   1.322   1.647   8.490 -1.1877  0.4450  3.5343
   23SAPC   C33 3060   2.151   2.154  10.292 -0.4844 -0.0066 -0.3132
   23SAPC   H3X 3061   2.091   2.247  10.303 -0.8287 -0.1866 -0.6356
   23SAPC   H3Y 3062   2.106   2.102  10.205 -0.1820 -2.4000  0.8735
   23SAPC   C34 3063   2.298   2.188  10.271  0.1340 -0.7029 -0.1102
   23SAPC   H4X 3064   2.348   2.089  10.264  1.2999 -0.3279  1.9599
   23SAPC   H4Y 3065   2.339   2.232  10.365 -0.2201 -2.0287  0.6930
   23SAPC   C35 3066   2.315   2.278  10.147 -0.8814  0.5307  0.6581
   23SAPC   H5X 3067   2.421   2.307  10.135 -1.2153  0.7489 -2.9859
   23SAPC   H5Y 3068   2.262   2.374  10.166  0.0585  1.0285  0.8213
   23SAPC   C36 3069   2.287   2.224  10.011 -0.0746  0.5268  0.4892
   23SAPC   H6X 3070   2.183   2.187  10.021 -0.6909  1.8202 -0.7480
   23SAPC   H6Y 3071   2.337   2.132   9.975 -0.5532  0.7507 -0.7989
   23SAPC   C37 3072   2.314   2.323   9.898  0.0319 -0.2656  0.1137
   23SAPC   H7X 3073   2.423   2.336   9.882 -0.3217  1.4060 -1.2535
   23SAPC   H7Y 3074   2.277   2.424   9.924  1.5029  0.3437 -0.0874
   23SAPC   C38 3075   2.253   2.285   9.760 -0.0442  0.8014  0.4954
   23SAPC   H8X 3076   2.150   2.248   9.777 -0.1703  0.7103 -0.4514
   23SAPC   H8Y 3077   2.316   2.200   9.724 -1.1892 -0.7384  1.9387
   23SAPC   C39 3078   2.245   2.396   9.658 -0.2641 -0.1644 -0.5399
   23SAPC   H9X 3079   2.334   2.462   9.646  0.7902 -1.4741 -0.0954
   23SAPC   H9Y 3080   2.166   2.465   9.696 -0.0037  0.0069 -0.3070
   23SAPC  C310 3081   2.215   2.351   9.515 -0.0414  0.3924 -0.0927
   23SAPC  H10X 3082   2.281   2.263   9.500 -0.5854  0.0069 -0.2493
   23SAPC  H10Y 3083   2.245   2.428   9.441  1.3623 -1.5805 -1.6915
   23SAPC  C311 3084   2.067   2.312   9.481  0.7084 -0.0052  0.5501
   23SAPC  H11X 3085   1.998   2.392   9.514 -1.8891 -1.6164 -0.6330
   23SAPC  H11Y 3086   2.030   2.232   9.549 -0.6309  0.7758  0.7560
   23SAPC  C312 3087   2.047   2.273   9.334 -0.2628  0.5302  0.5024
   23SAPC  H12X 3088   1.937   2.276   9.316 -0.3397 -2.7101 -0.2532
   23SAPC  H12Y 3089   2.071   2.165   9.327 -0.0591  0.4812  1.7742
   23SAPC  C313 3090   2.124   2.350   9.229 -0.5320 -0.0491  0.6608
   23SAPC  H13X 3091   2.226   2.307   9.229 -0.0607  1.0234 -0.1620
   23SAPC  H13Y 3092   2.133   2.459   9.251  1.1569 -0.2937  1.2844
   23SAPC  C314 3093   2.083   2.318   9.078  0.0067 -0.2076  0.4430
   23SAPC  H14X 3094   2.088   2.209   9.060 -0.9315 -0.1395 -0.3260
   23SAPC  H14Y 3095   2.152   2.374   9.011 -1.4067  2.1864  0.8790
   23SAPC  C315 3096   1.942   2.360   9.040  0.2870 -0.2723  0.2675
   23SAPC  H15X 3097   1.910   2.461   9.073 -1.8223 -0.9601  0.4448
   23SAPC  H15Y 3098   1.884   2.272   9.074 -0.9370 -0.4041 -1.9801
   23SAPC  C316 3099   1.934   2.370   8.888  0.3532 -0.6130 -0.0869
   23SAPC  H16X 3100   2.001   2.454   8.862 -0.8978  0.4080 -0.0890
   23SAPC  H16Y 3101   1.835   2.405   8.852 -0.2073 -1.3124  0.7320
   23SAPC  C317 3102   1.966   2.249   8.803 -0.1191 -0.0530  0.4321
   23SAPC  H17X 3103   1.889   2.171   8.820 -0.4124 -0.4827 -2.4067
   23SAPC  H17Y 3104   2.068   2.204   8.808  0.4639  0.9751 -1.2358
   23SAPC  C318 3105   1.950   2.283   8.660  0.0041  0.1012  0.7918
   23SAPC  H18X 3106   1.962   2.192   8.599 -0.9069 -0.5952  1.6132
   23SAPC  H18Y 3107   2.024   2.358   8.626 -1.4538  0.9230 -0.7246
   23SAPC  H18Z 3108   1.846   2.317   8.639  1.4454  2.7085 -3.1778
   24SAPC     N 3109   4.778   2.093  10.944 -0.1132  0.4459  0.8418
   24SAPC   C12 3110   4.758   2.167  10.807 -0.2664  0.3559  0.2082
   24SAPC  H12A 3111   4.664   2.218  10.823  0.8865  2.1587  1.6651
   24SAPC  H12B 3112   4.746   2.092  10.730 -0.8617  1.1829 -0.5377
   24SAPC   C13 3113   4.667   2.002  10.962  0.0574  0.1323  0.3990
   24SAPC  H13A 3114   4.661   1.941  10.873 -0.8950 -0.7692  1.0624
   24SAPC  H13B 3115   4.676   1.943  11.052 -0.1264  0.0923  0.3915
   24SAPC  H13C 3116   4.570   2.049  10.968  0.2648  0.8290 -1.2429
   24SAPC   C14 3117   4.909   2.024  10.947  0.0145 -0.6672 -0.5479
   24SAPC  H14A 3118   4.911   1.961  11.035 -1.0977  0.0082 -0.0086
   24SAPC  H14B 3119   4.925   1.957  10.863  0.5000 -0.5361 -0.5599
   24SAPC  H14C 3120   4.993   2.089  10.961  1.0382 -2.1438  0.4044
   24SAPC   C15 3121   4.774   2.187  11.056 -0.1718 -0.7605  0.1497
   24SAPC  H15A 3122   4.863   2.246  11.063 -0.4970 -0.3767  1.2002
   24SAPC  H15B 3123   4.693   2.258  11.043  0.5292  0.4023  1.7969
   24SAPC  H15C 3124   4.743   2.147  11.152  0.4227 -2.2944 -0.2648
   24SAPC   C11 3125   4.862   2.277  10.778  0.3674 -0.1812 -0.4237
   24SAPC  H11A 3126   4.850   2.308  10.672 -1.0380 -3.0274 -1.1951
   24SAPC  H11B 3127   4.966   2.241  10.793 -0.4446 -1.8964  1.5708
   24SAPC     P 3128   4.720   2.478  10.860  0.4111 -0.3703 -0.4835
   24SAPC   O13 3129   4.590   2.398  10.865  0.0440  0.0777  0.0936
   24SAPC   O14 3130   4.736   2.582  10.965  0.0888 -0.0848  0.2262
   24SAPC   O12 3131   4.842   2.381  10.870  0.3237  0.1587 -0.1848
   24SAPC   O11 3132   4.736   2.540  10.718  0.0766 -0.5499  0.3721
   24SAPC    C1 3133   4.772   2.670  10.692 -0.0629  0.4015  0.1060
   24SAPC    HA 3134   4.799   2.735  10.777  2.7551  0.9977 -1.1266
   24SAPC    HB 3135   4.872   2.673  10.643 -0.0297  1.5889  0.2115
   24SAPC    C2 3136   4.667   2.739  10.598 -0.1203 -0.1801  0.5280
   24SAPC    HS 3137   4.566   2.735  10.642  0.0698  1.1298  1.1233
   24SAPC   O21 3138   4.676   2.681  10.466 -0.0268 -0.6652 -0.4209
   24SAPC   C21 3139   4.573   2.592  10.441 -0.1184 -0.0792 -0.2698
   24SAPC   O22 3140   4.476   2.580  10.516  0.0728  0.1096  0.0870
   24SAPC   C22 3141   4.594   2.527  10.309  0.0709 -0.3091  0.4028
   24SAPC   H2R 3142   4.677   2.454  10.315  1.4161  0.8072 -2.3886
   24SAPC   H2S 3143   4.501   2.475  10.275 -0.0073  1.5066 -2.5670
   24SAPC    C3 3144   4.686   2.893  10.591 -0.1457 -0.2806  0.1308
   24SAPC    HX 3145   4.784   2.918  10.545 -0.6190  0.5673 -0.4546
   24SAPC    HY 3146   4.685   2.932  10.695 -0.4989 -0.5310  0.2251
   24SAPC   O31 3147   4.583   2.956  10.520 -0.4159  0.9164 -0.3042
   24SAPC   C31 3148   4.604   3.093  10.509 -1.3235  0.5327 -0.2653
   24SAPC   O32 3149   4.703   3.145  10.555 -0.2604  0.3634 -0.2155
   24SAPC   C32 3150   4.502   3.162  10.419  0.4069 -0.1232 -0.3946
   24SAPC   H2X 3151   4.400   3.149  10.460  0.3496 -2.8165 -1.2247
   24SAPC   H2Y 3152   4.511   3.135  10.312 -1.6729 -1.2357 -0.3285
   24SAPC   C23 3153   4.647   2.626  10.194  0.3275  0.4798  0.0395
   24SAPC   H3R 3154   4.745   2.675  10.215 -0.0684  2.3105 -1.9973
   24SAPC   H3S 3155   4.582   2.715  10.181 -0.0358  0.1962 -0.0729
   24SAPC   C24 3156   4.686   2.560  10.061 -0.0885  0.3171  0.7839
   24SAPC   H4R 3157   4.588   2.513  10.035 -0.8574  1.4922  1.4592
   24SAPC   H4S 3158   4.775   2.494  10.071 -0.2081  0.0211 -0.0248
   24SAPC   C25 3159   4.704   2.658   9.947 -0.0620 -0.3314 -0.1606
   24SAPC   H5R 3160   4.613   2.717   9.930  1.5343  3.2409  2.4482
   24SAPC   C26 3161   4.819   2.678   9.869  0.0660  0.3107  0.5554
   24SAPC   H6R 3162   4.818   2.746   9.783  0.8820 -2.0053 -1.4214
   24SAPC   C27 3163   4.951   2.609   9.890 -0.2277 -0.0641  0.2491
   24SAPC   H7R 3164   4.994   2.571   9.794 -0.3344 -2.3237  1.0200
   24SAPC   H7S 3165   4.949   2.517   9.953  0.6671 -1.5905 -1.8016
   24SAPC   C28 3166   5.048   2.714   9.942 -0.0294 -0.0716  0.2966
   24SAPC   H8R 3167   5.021   2.744  10.045 -1.3197 -0.4426  0.0840
   24SAPC   C29 3168   5.142   2.786   9.877 -0.3265 -0.0716  0.0904
   24SAPC   H9R 3169   5.192   2.869   9.929 -3.2270 -0.7363  4.4772
   24SAPC  C210 3170   5.180   2.777   9.728 -0.1373  0.8575  0.3146
   24SAPC  H10R 3171   5.155   2.677   9.688  0.2335  0.6734  0.5413
   24SAPC  H10S 3172   5.291   2.778   9.729 -0.0086 -2.5740  1.1249
   24SAPC  C211 3173   5.124   2.873   9.632 -0.1930  0.2310  0.5046
   24SAPC  H11R 3174   5.164   2.975   9.631 -0.8403  0.5030 -0.9433
   24SAPC  C212 3175   5.040   2.847   9.524 -0.0812  0.1350 -0.5172
   24SAPC  H12R 3176   5.013   2.933   9.462 -0.1027  0.2542 -0.3424
   24SAPC  C213 3177   4.995   2.710   9.477  0.4711  0.0789  0.6663
   24SAPC  H13R 3178   4.886   2.700   9.498  0.5370 -1.7770  0.3147
   24SAPC  H13S 3179   5.036   2.623   9.533  1.0367  0.0339  0.1959
   24SAPC  C214 3180   5.030   2.706   9.323 -0.3303  0.6063 -0.2217
   24SAPC  H14R 3181   5.135   2.680   9.303 -0.9778 -1.1380 -1.6422
   24SAPC  C215 3182   4.955   2.732   9.214  1.0359 -0.1399  1.1711
   24SAPC  H15R 3183   5.009   2.748   9.119 -0.4593  0.1044  0.3243
   24SAPC  C216 3184   4.811   2.771   9.215  0.0388 -0.1613 -0.2485
   24SAPC  H16R 3185   4.804   2.882   9.208  1.1785 -0.0667 -0.0458
   24SAPC  H16S 3186   4.774   2.737   9.314  3.4332 -0.9119  0.8828
   24SAPC  C217 3187   4.738   2.688   9.111  0.4964 -0.0455  0.0958
   24SAPC  H17R 3188   4.782   2.588   9.134  0.9098  0.2394  0.5673
   24SAPC  H17S 3189   4.782   2.715   9.013  1.1876  1.2064  0.7294
   24SAPC  C218 3190   4.586   2.690   9.099 -0.1699  0.0777 -0.2957
   24SAPC  H18R 3191   4.566   2.798   9.085  2.0923  0.6683  0.5920
   24SAPC  H18S 3192   4.535   2.652   9.190  0.5438  0.8046  0.4199
   24SAPC  C219 3193   4.535   2.604   8.988 -0.2953  0.4656 -0.2681
   24SAPC  H19R 3194   4.426   2.624   8.985 -0.6306 -1.2021 -2.0700
   24SAPC  H19S 3195   4.551   2.494   8.997  2.4010  0.8995  1.4930
   24SAPC  C220 3196   4.587   2.636   8.842 -0.0618 -0.5657  0.3151
   24SAPC  H20R 3197   4.697   2.630   8.846 -0.0812 -1.5182 -0.2781
   24SAPC  H20S 3198   4.543   2.734   8.812 -0.5085 -0.5365  1.0245
   24SAPC  H20T 3199   4.554   2.567   8.762  3.1537  0.3732 -2.0328
   24SAPC   C33 3200   4.514   3.321  10.419  0.8889  0.9330 -0.4258
   24SAPC   H3X 3201   4.532   3.346  10.526  1.0018 -0.5082 -0.0809
   24SAPC   H3Y 3202   4.416   3.365  10.391  0.3690  0.1937  0.1986
   24SAPC   C34 3203   4.616   3.383  10.332  0.6977  0.9217  0.4439
   24SAPC   H4X 3204   4.717   3.344  10.358  0.2422 -0.6177  0.0237
   24SAPC   H4Y 3205   4.612   3.494  10.341  2.2564  1.2761 -2.1774
   24SAPC   C35 3206   4.613   3.342  10.184 -0.1076  0.1987 -0.0359
   24SAPC   H5X 3207   4.512   3.358  10.141 -0.5200 -2.9220 -0.4493
   24SAPC   H5Y 3208   4.633   3.233  10.181  2.7541  0.6537 -0.9749
   24SAPC   C36 3209   4.712   3.415  10.100 -0.7343  0.5393 -0.0116
   24SAPC   H6X 3210   4.813   3.393  10.141 -1.4330 -0.5391  1.2090
   24SAPC   H6Y 3211   4.698   3.524  10.088  0.5635  0.6178 -1.0910
   24SAPC   C37 3212   4.720   3.350   9.959 -0.1130  0.0159 -0.2353
   24SAPC   H7X 3213   4.724   3.240   9.970  0.2340  0.1775  1.5897
   24SAPC   H7Y 3214   4.819   3.381   9.920 -0.0305 -0.6476 -0.5502
   24SAPC   C38 3215   4.604   3.396   9.869 -0.5161  0.1988 -0.6270
   24SAPC   H8X 3216   4.601   3.506   9.858  0.9903  0.3798  0.5120
   24SAPC   H8Y 3217   4.511   3.385   9.928  0.1248  0.2183  0.4156
   24SAPC   C39 3218   4.601   3.326   9.731 -0.4008 -0.0250  0.1840
   24SAPC   H9X 3219   4.570   3.223   9.759 -0.3477 -0.2343 -0.5178
   24SAPC   H9Y 3220   4.703   3.302   9.693 -1.2205 -0.9222 -1.5295
   24SAPC  C310 3221   4.507   3.394   9.634  0.3919  0.0107 -0.0914
   24SAPC  H10X 3222   4.520   3.502   9.654 -0.5928  0.0917  0.1661
   24SAPC  H10Y 3223   4.402   3.361   9.654 -0.4226  0.0082 -3.7540
   24SAPC  C311 3224   4.532   3.354   9.486 -0.0367 -0.0977 -0.0638
   24SAPC  H11X 3225   4.514   3.245   9.474 -1.0116 -0.0526  0.8011
   24SAPC  H11Y 3226   4.635   3.377   9.452 -0.3162 -0.1436 -0.9812
   24SAPC  C312 3227   4.435   3.437   9.397  0.1998  0.5044 -0.4749
   24SAPC  H12X 3228   4.457   3.546   9.402 -1.4284  0.8201  1.0490
   24SAPC  H12Y 3229   4.334   3.422   9.441 -0.3009 -2.3949 -2.3311
   24SAPC  C313 3230   4.416   3.381   9.251  0.3760 -0.3387 -0.0900
   24SAPC  H13X 3231   4.328   3.426   9.201 -0.5069 -3.0742 -1.2235
   24SAPC  H13Y 3232   4.397   3.272   9.237  2.1665 -0.2742 -5.0673
   24SAPC  C314 3233   4.545   3.416   9.172  0.2975  0.3108 -0.1020
   24SAPC  H14X 3234   4.624   3.341   9.195  0.4203 -0.3167 -2.2829
   24SAPC  H14Y 3235   4.581   3.517   9.202  0.4640  0.1568  0.2283
   24SAPC  C315 3236   4.529   3.416   9.016 -0.0423  0.1971  0.2698
   24SAPC  H15X 3237   4.627   3.444   8.972  0.1657 -0.3981  0.3497
   24SAPC  H15Y 3238   4.459   3.493   8.977 -0.3156 -0.4693 -0.5887
   24SAPC  C316 3239   4.481   3.283   8.958  0.3018  0.2387 -0.2573
   24SAPC  H16X 3240   4.459   3.293   8.849  1.5093 -0.8273 -0.6131
   24SAPC  H16Y 3241   4.388   3.253   9.011 -1.8126 -1.0213 -4.2319
   24SAPC  C317 3242   4.583   3.176   8.979 -0.4904 -0.3338 -0.2078
   24SAPC  H17X 3243   4.618   3.158   9.083  0.3676 -0.3116 -0.4844
   24SAPC  H17Y 3244   4.675   3.204   8.924  0.7538  2.4218  2.9273
   24SAPC  C318 3245   4.539   3.048   8.910  0.0651  0.6274  0.6073
   24SAPC  H18X 3246   4.431   3.025   8.925 -0.1088  1.8534  1.3695
   24SAPC  H18Y 3247   4.597   2.962   8.949 -0.9319 -1.7611 -2.6996
   24SAPC  H18Z 3248   4.551   3.063   8.800 -5.6356  2.5674 -0.1228
   25SAPC     N 3249   0.791   0.545   5.850 -0.4764 -0.1591  0.6399
   25SAPC   C12 3250   0.893   0.453   5.921  0.0939 -0.4210 -0.4023
   25SAPC  H12A 3251   0.983   0.507   5.945 -0.0330  0.5160 -1.9325
   25SAPC  H12B 3252   0.932   0.380   5.851 -0.8469 -1.2347 -0.1013
   25SAPC   C13 3253   0.848   0.598   5.718  1.1505 -0.1982  1.0139
   25SAPC  H13A 3254   0.932   0.664   5.737  1.4730 -0.7360  1.4888
   25SAPC  H13B 3255   0.877   0.515   5.656 -2.9592  0.1007 -1.6581
   25SAPC  H13C 3256   0.783   0.665   5.664  0.4230 -0.8320  1.0849
   25SAPC   C14 3257   0.661   0.478   5.815 -0.0829  0.2075  0.5297
   25SAPC  H14A 3258   0.679   0.399   5.743 -2.6729 -0.2002  0.2465
   25SAPC  H14B 3259   0.619   0.437   5.906 -0.1773 -0.4988  0.1793
   25SAPC  H14C 3260   0.591   0.545   5.768 -0.5648 -0.5062  0.2055
   25SAPC   C15 3261   0.767   0.659   5.935 -0.3263  0.4057 -0.0200
   25SAPC  H15A 3262   0.726   0.647   6.034  0.0446  1.9291  0.3510
   25SAPC  H15B 3263   0.857   0.719   5.945 -0.3668  0.5320 -0.3949
   25SAPC  H15C 3264   0.701   0.723   5.878  0.8249  0.8281 -0.9334
   25SAPC   C11 3265   0.851   0.367   6.046 -0.4478  0.0471  0.3005
   25SAPC  H11A 3266   0.815   0.449   6.112 -1.4694  0.1009 -0.3001
   25SAPC  H11B 3267   0.946   0.321   6.081  0.5462  0.4795 -1.6530
   25SAPC     P 3268   0.709   0.174   6.119 -0.0473 -0.0326 -0.1300
   25SAPC   O13 3269   0.590   0.097   6.075  0.6189  0.4452 -0.0088
   25SAPC   O14 3270   0.834   0.104   6.144  0.1107  0.1377 -0.0382
   25SAPC   O12 3271   0.751   0.274   6.008  0.5627 -0.3646 -0.4123
   25SAPC   O11 3272   0.671   0.258   6.244 -0.2219 -0.1774 -0.5927
   25SAPC    C1 3273   0.663   0.188   6.371 -0.7670  0.4384 -0.3300
   25SAPC    HA 3274   0.738   0.106   6.374  0.2971  1.4033  0.6479
   25SAPC    HB 3275   0.694   0.260   6.450  2.4191 -2.0495  0.9298
   25SAPC    C2 3276   0.520   0.139   6.412 -0.5774  0.2106  0.0915
   25SAPC    HS 3277   0.500   0.038   6.370  0.8894 -0.2636  0.4851
   25SAPC   O21 3278   0.424   0.230   6.355 -0.3495 -0.2786  0.4139
   25SAPC   C21 3279   0.299   0.191   6.371 -0.6770  0.3388  0.4515
   25SAPC   O22 3280   0.256   0.098   6.432  0.0698  0.4750  0.6629
   25SAPC   C22 3281   0.219   0.278   6.272  0.1061 -0.1178  0.4391
   25SAPC   H2R 3282   0.248   0.385   6.276 -1.2835  0.4145 -1.7521
   25SAPC   H2S 3283   0.240   0.235   6.172 -2.6140  2.0727 -1.2380
   25SAPC    C3 3284   0.525   0.146   6.566 -0.5430  0.3808 -0.7837
   25SAPC    HX 3285   0.436   0.093   6.604  0.4425 -1.3389 -0.7971
   25SAPC    HY 3286   0.511   0.254   6.589  0.0934  0.5287 -1.0561
   25SAPC   O31 3287   0.644   0.092   6.628 -0.3904 -0.4328  0.0536
   25SAPC   C31 3288   0.636   0.114   6.757  0.0674 -0.5433 -0.5679
   25SAPC   O32 3289   0.536   0.140   6.819  0.2557 -0.2318 -0.1284
   25SAPC   C32 3290   0.762   0.062   6.826 -0.5043 -0.0001  0.1187
   25SAPC   H2X 3291   0.827   0.028   6.742 -0.6451  1.4048 -0.6032
   25SAPC   H2Y 3292   0.733  -0.023   6.890 -0.8721 -1.4294 -1.8472
   25SAPC   C23 3293   0.068   0.260   6.288 -0.0995 -0.1381  0.1136
   25SAPC   H3R 3294   0.043   0.155   6.315 -1.1132  0.0405 -0.0792
   25SAPC   H3S 3295   0.017   0.291   6.194  0.2099 -1.8511 -0.6569
   25SAPC   C24 3296   0.022   0.352   6.404  0.1897  0.7560  0.0911
   25SAPC   H4R 3297   0.038   0.305   6.503 -0.7881  0.0394 -0.0840
   25SAPC   H4S 3298  -0.087   0.339   6.388 -0.0888  0.6506  1.9191
   25SAPC   C25 3299   0.066   0.493   6.400  0.0780 -0.7491 -0.3830
   25SAPC   H5R 3300   0.057   0.537   6.300 -4.1002 -0.8692 -0.2391
   25SAPC   C26 3301   0.113   0.564   6.504  0.1284  0.2758  0.2721
   25SAPC   H6R 3302   0.139   0.670   6.486  1.4848 -0.1741 -0.6253
   25SAPC   C27 3303   0.134   0.512   6.643 -0.4090 -0.1311  0.6249
   25SAPC   H7R 3304   0.034   0.480   6.680 -0.6992  0.7222  0.5937
   25SAPC   H7S 3305   0.164   0.592   6.714  0.8006  0.3044 -0.3486
   25SAPC   C28 3306   0.216   0.390   6.658 -0.3295  0.0852 -0.0430
   25SAPC   H8R 3307   0.274   0.368   6.567  2.7202  2.1443  1.2282
   25SAPC   C29 3308   0.232   0.307   6.764  0.5743 -0.0380  0.1018
   25SAPC   H9R 3309   0.309   0.229   6.751 -0.7535 -1.6886  1.6737
   25SAPC  C210 3310   0.166   0.305   6.901  0.6439  0.3751  0.0589
   25SAPC  H10R 3311   0.130   0.202   6.920 -2.6386  1.1362 -1.2615
   25SAPC  H10S 3312   0.069   0.359   6.896 -0.6172 -1.8523 -0.6523
   25SAPC  C211 3313   0.237   0.377   7.009  0.1822 -0.2164  0.0061
   25SAPC  H11R 3314   0.292   0.469   6.986  1.5216 -0.5406  1.7006
   25SAPC  C212 3315   0.242   0.342   7.139  0.4267 -0.4652 -0.2007
   25SAPC  H12R 3316   0.275   0.424   7.206  1.7852 -0.5930 -0.6810
   25SAPC  C213 3317   0.185   0.217   7.193 -0.4350  0.3757 -0.1983
   25SAPC  H13R 3318   0.192   0.137   7.115  1.7354  0.7366 -0.4406
   25SAPC  H13S 3319   0.078   0.235   7.212 -0.6472  0.4695 -1.3734
   25SAPC  C214 3320   0.255   0.158   7.315 -0.6165 -0.9772 -0.0447
   25SAPC  H14R 3321   0.337   0.088   7.292  1.3624  0.9491  0.8412
   25SAPC  C215 3322   0.224   0.185   7.445  0.2569  0.0266  0.5003
   25SAPC  H15R 3323   0.289   0.146   7.525  0.4425  0.1056  0.3881
   25SAPC  C216 3324   0.110   0.268   7.490  0.4245 -0.5519 -0.2486
   25SAPC  H16R 3325   0.040   0.300   7.409 -0.4212 -0.0585  0.6531
   25SAPC  H16S 3326   0.139   0.366   7.532  0.2342  0.3593 -2.1271
   25SAPC  C217 3327   0.003   0.209   7.579 -0.8697  0.5831 -0.1080
   25SAPC  H17R 3328  -0.044   0.125   7.524 -0.2898  1.3432 -1.8399
   25SAPC  H17S 3329  -0.069   0.293   7.582  1.8790  3.2209 -1.7470
   25SAPC  C218 3330   0.056   0.168   7.713 -0.5048  0.1040  0.6462
   25SAPC  H18R 3331   0.091   0.252   7.777  1.3094  0.5665 -0.8587
   25SAPC  H18S 3332   0.139   0.100   7.687 -2.0944 -1.3088 -1.0685
   25SAPC  C219 3333  -0.050   0.098   7.800  0.3658  0.4584  0.5168
   25SAPC  H19R 3334  -0.142   0.159   7.788  0.7914  1.2161  0.9576
   25SAPC  H19S 3335  -0.023   0.096   7.908 -3.1104  2.4668  1.5892
   25SAPC  C220 3336  -0.077  -0.054   7.767 -0.1854 -0.8991  0.4924
   25SAPC  H20R 3337  -0.156  -0.064   7.689  0.9431 -1.9497 -0.5626
   25SAPC  H20S 3338  -0.111  -0.115   7.854 -3.0389 -0.9018 -0.5388
   25SAPC  H20T 3339   0.014  -0.097   7.721 -0.3081 -0.2873 -0.3363
   25SAPC   C33 3340   0.839   0.172   6.904 -0.1288  0.0242 -0.1224
   25SAPC   H3X 3341   0.794   0.200   7.001  0.0498 -1.6349  0.4750
   25SAPC   H3Y 3342   0.861   0.270   6.858  2.3092  0.9420  2.6958
   25SAPC   C34 3343   0.984   0.116   6.941  0.1705  0.0078 -0.0210
   25SAPC   H4X 3344   1.051   0.123   6.853  0.0827  0.7532 -0.0399
   25SAPC   H4Y 3345   0.972   0.015   6.985 -4.5782 -0.4654 -1.7780
   25SAPC   C35 3346   1.056   0.196   7.047  0.0854 -0.2608  0.0214
   25SAPC   H5X 3347   0.996   0.203   7.140  1.3225 -0.5627  0.8817
   25SAPC   H5Y 3348   1.071   0.295   6.999 -1.5781 -0.7778 -1.6462
   25SAPC   C36 3349   1.191   0.149   7.087 -0.0736  0.2874  0.0047
   25SAPC   H6X 3350   1.263   0.131   7.005 -0.0521 -1.1318  0.3110
   25SAPC   H6Y 3351   1.174   0.054   7.142  0.6131 -0.7983 -1.5984
   25SAPC   C37 3352   1.271   0.244   7.187  0.0932  0.0128  0.1697
   25SAPC   H7X 3353   1.288   0.340   7.135  0.3844 -0.4352 -0.5764
   25SAPC   H7Y 3354   1.367   0.190   7.207  0.2972  0.5910  0.7992
   25SAPC   C38 3355   1.204   0.264   7.322 -0.1544  0.4136 -0.5658
   25SAPC   H8X 3356   1.189   0.161   7.360  2.9129 -0.3784 -1.1870
   25SAPC   H8Y 3357   1.101   0.305   7.314  0.3059  1.9704  0.9100
   25SAPC   C39 3358   1.294   0.356   7.413 -0.1888  0.3433 -0.1010
   25SAPC   H9X 3359   1.302   0.463   7.385  0.3248  0.5874  0.9342
   25SAPC   H9Y 3360   1.398   0.319   7.409 -0.4378 -0.4479  0.4879
   25SAPC  C310 3361   1.260   0.337   7.563 -0.1267  0.4174  0.4223
   25SAPC  H10X 3362   1.157   0.295   7.569  0.0683 -0.0089  0.8029
   25SAPC  H10Y 3363   1.275   0.429   7.623  1.4397  0.4601 -0.0052
   25SAPC  C311 3364   1.355   0.235   7.630  0.1545  0.1196 -0.0415
   25SAPC  H11X 3365   1.460   0.258   7.605  0.6199 -1.9436 -0.2094
   25SAPC  H11Y 3366   1.339   0.131   7.593 -1.4769  0.1613  0.4691
   25SAPC  C312 3367   1.326   0.228   7.779  0.4043  0.2177  0.4739
   25SAPC  H12X 3368   1.225   0.188   7.802 -0.3726  1.4132 -0.7459
   25SAPC  H12Y 3369   1.326   0.334   7.810 -1.5044 -0.2212  2.1686
   25SAPC  C313 3370   1.421   0.140   7.847 -0.4417  0.4808 -0.5440
   25SAPC  H13X 3371   1.420   0.030   7.829  1.1341 -0.2761  3.0196
   25SAPC  H13Y 3372   1.401   0.147   7.956  0.0491 -0.5283 -0.3693
   25SAPC  C314 3373   1.567   0.178   7.828  0.4162  0.3439  0.7244
   25SAPC  H14X 3374   1.577   0.283   7.860 -0.5471  1.3922 -2.0703
   25SAPC  H14Y 3375   1.598   0.165   7.722 -2.3928  1.2276 -0.3071
   25SAPC  C315 3376   1.661   0.076   7.906 -0.3756  0.5416  1.0119
   25SAPC  H15X 3377   1.649  -0.029   7.870  2.1465 -0.2809  2.3047
   25SAPC  H15Y 3378   1.636   0.075   8.014  4.0673  0.2767  2.2441
   25SAPC  C316 3379   1.809   0.116   7.910 -0.6008 -0.7156  0.7519
   25SAPC  H16X 3380   1.811   0.225   7.931  0.4240 -0.0763 -2.2502
   25SAPC  H16Y 3381   1.857   0.095   7.812 -1.1222  0.8740  0.1377
   25SAPC  C317 3382   1.893   0.036   8.010 -0.2074  0.7979  0.0302
   25SAPC  H17X 3383   1.976  -0.025   7.969 -0.2535  0.8606 -0.1577
   25SAPC  H17Y 3384   1.823  -0.041   8.051 -0.9862  1.1745 -0.5631
   25SAPC  C318 3385   1.952   0.128   8.117 -0.3147 -0.3590 -0.3145
   25SAPC  H18X 3386   2.052   0.163   8.084  0.7210 -0.8032  2.1300
   25SAPC  H18Y 3387   1.967   0.068   8.209 -0.4322 -0.4945 -0.3834
   25SAPC  H18Z 3388   1.891   0.220   8.134  0.2321 -0.2496  1.1864
   26SAPC     N 3389   6.404   1.878   5.818  0.2948  0.0662 -0.0383
   26SAPC   C12 3390   6.526   1.883   5.907 -0.4229 -0.5394  0.6603
   26SAPC  H12A 3391   6.529   1.982   5.950 -2.9240  0.7901 -1.9157
   26SAPC  H12B 3392   6.610   1.866   5.843  0.1157 -0.0958  1.2348
   26SAPC   C13 3393   6.286   1.904   5.899  0.1684 -0.9365  0.0435
   26SAPC  H13A 3394   6.300   1.871   6.001  1.6608  2.7671  1.2384
   26SAPC  H13B 3395   6.277   2.012   5.891  0.2681 -1.0533 -2.0272
   26SAPC  H13C 3396   6.195   1.861   5.861 -0.5043 -1.0806  1.7047
   26SAPC   C14 3397   6.410   1.962   5.700 -0.1907 -0.3032  0.2506
   26SAPC  H14A 3398   6.424   2.065   5.727  1.0984 -0.3101 -0.3401
   26SAPC  H14B 3399   6.498   1.934   5.645 -1.0596 -0.7417 -0.9764
   26SAPC  H14C 3400   6.327   1.944   5.633  0.5470 -3.7647  0.0858
   26SAPC   C15 3401   6.388   1.741   5.770 -0.5948  0.0907  0.4204
   26SAPC  H15A 3402   6.393   1.665   5.847  1.7220 -1.1083 -0.7985
   26SAPC  H15B 3403   6.296   1.738   5.714 -0.3037  0.4624 -0.0844
   26SAPC  H15C 3404   6.460   1.719   5.692  1.1714  2.2527  1.3390
   26SAPC   C11 3405   6.539   1.778   6.015 -0.7577  0.0276  0.2362
   26SAPC  H11A 3406   6.633   1.785   6.074 -0.3380 -1.8706 -0.1422
   26SAPC  H11B 3407   6.554   1.684   5.958 -2.4284 -0.0525 -0.1103
   26SAPC     P 3408   6.420   1.869   6.229  0.0936 -0.0807 -0.3277
   26SAPC   O13 3409   6.424   2.014   6.189 -0.1920 -0.2257 -0.5545
   26SAPC   O14 3410   6.303   1.834   6.314  0.0077  0.0950 -0.9611
   26SAPC   O12 3411   6.423   1.777   6.100  0.3903  0.3515  0.6124
   26SAPC   O11 3412   6.555   1.825   6.302 -0.1618  0.3607 -0.8451
   26SAPC    C1 3413   6.610   1.909   6.403 -0.6440  0.5983  0.1708
   26SAPC    HA 3414   6.699   1.856   6.443  1.6314  2.6684 -1.8403
   26SAPC    HB 3415   6.639   2.006   6.357  0.4992 -1.2787 -3.4536
   26SAPC    C2 3416   6.525   1.941   6.528  0.1495  0.0134  0.4059
   26SAPC    HS 3417   6.443   2.009   6.496 -0.3728 -0.4205  0.8220
   26SAPC   O21 3418   6.613   1.997   6.625  0.2296 -0.4115 -0.1191
   26SAPC   C21 3419   6.560   2.098   6.694 -0.1020  0.5119  0.5221
   26SAPC   O22 3420   6.440   2.134   6.701 -0.3179 -0.3059  0.5260
   26SAPC   C22 3421   6.668   2.155   6.785 -0.6959 -0.0242 -0.1168
   26SAPC   H2R 3422   6.710   2.066   6.836 -0.1766  0.2585 -0.0424
   26SAPC   H2S 3423   6.744   2.210   6.726 -0.5082 -1.7748 -1.6081
   26SAPC    C3 3424   6.476   1.808   6.594  0.5077 -0.7097  0.0520
   26SAPC    HX 3425   6.570   1.752   6.615  0.7013 -0.1442  0.7610
   26SAPC    HY 3426   6.416   1.747   6.524  1.8763 -2.1082  0.0666
   26SAPC   O31 3427   6.412   1.821   6.721  0.1667  0.3865  0.1566
   26SAPC   C31 3428   6.295   1.877   6.721  0.4392 -0.5593  0.1032
   26SAPC   O32 3429   6.227   1.904   6.620 -0.6296 -0.2233  0.3737
   26SAPC   C32 3430   6.249   1.897   6.867  0.3019 -0.4388  0.2455
   26SAPC   H2X 3431   6.172   1.819   6.885 -2.4785  1.0767 -3.6808
   26SAPC   H2Y 3432   6.196   1.993   6.880  0.2599 -0.3574 -0.5017
   26SAPC   C23 3433   6.600   2.237   6.897  0.0199  0.2035  0.2129
   26SAPC   H3R 3434   6.522   2.174   6.945 -2.5109  1.4509 -1.9925
   26SAPC   H3S 3435   6.540   2.320   6.854 -1.3322 -2.1612 -2.8693
   26SAPC   C24 3436   6.706   2.281   7.001  0.0436 -0.2198 -0.5232
   26SAPC   H4R 3437   6.783   2.340   6.946  1.2020 -0.4623  0.7949
   26SAPC   H4S 3438   6.750   2.189   7.044  1.1552  0.2188 -0.6797
   26SAPC   C25 3439   6.630   2.366   7.108 -0.4005 -0.2684 -0.1120
   26SAPC   H5R 3440   6.578   2.455   7.069  0.9991  0.9014  0.6110
   26SAPC   C26 3441   6.639   2.339   7.241 -0.6068 -0.5984 -0.4652
   26SAPC   H6R 3442   6.589   2.401   7.318 -1.0000 -2.6810  1.0572
   26SAPC   C27 3443   6.717   2.230   7.303  0.4275  0.4694  0.1356
   26SAPC   H7R 3444   6.761   2.261   7.400 -2.8497  3.1404  0.9377
   26SAPC   H7S 3445   6.809   2.219   7.241 -0.1716 -0.5586 -0.6066
   26SAPC   C28 3446   6.638   2.106   7.327  0.3603  0.1528  0.1505
   26SAPC   H8R 3447   6.608   2.051   7.236  0.6269  1.7620 -0.9471
   26SAPC   C29 3448   6.628   2.034   7.445  0.1997  0.0398 -0.3110
   26SAPC   H9R 3449   6.585   1.933   7.441 -0.8394  0.5017 -1.0739
   26SAPC  C210 3450   6.681   2.071   7.581 -0.4700 -0.2678 -0.6860
   26SAPC  H10R 3451   6.615   2.029   7.659 -0.7765  1.1345 -0.1576
   26SAPC  H10S 3452   6.674   2.182   7.590 -1.0166  0.0641 -3.8893
   26SAPC  C211 3453   6.833   2.041   7.604  0.1028  0.4294 -0.0018
   26SAPC  H11R 3454   6.900   2.085   7.529  1.6451 -1.5190  0.1345
   26SAPC  C212 3455   6.883   1.960   7.699 -1.1495 -0.3004  0.6648
   26SAPC  H12R 3456   6.991   1.958   7.714 -0.7463  2.7072 -1.0705
   26SAPC  C213 3457   6.795   1.893   7.803 -0.2600 -0.6604 -0.7760
   26SAPC  H13R 3458   6.865   1.811   7.831  0.6348  0.9139  1.9960
   26SAPC  H13S 3459   6.703   1.858   7.751 -0.2680  0.0576 -1.2611
   26SAPC  C214 3460   6.769   1.979   7.928  1.0014  0.5165 -0.5152
   26SAPC  H14R 3461   6.773   2.087   7.909  4.3561  0.8733  1.3830
   26SAPC  C215 3462   6.732   1.933   8.054 -0.3399  0.3729  0.1622
   26SAPC  H15R 3463   6.698   2.006   8.130  2.2433  0.6058  1.2046
   26SAPC  C216 3464   6.740   1.787   8.095  0.3511  0.1820 -0.4449
   26SAPC  H16R 3465   6.794   1.719   8.026 -0.4303 -1.5573  0.5724
   26SAPC  H16S 3466   6.632   1.758   8.098  0.2243  0.4831 -1.6391
   26SAPC  C217 3467   6.794   1.774   8.238  0.0854 -0.0496  0.0687
   26SAPC  H17R 3468   6.729   1.830   8.309  0.5463 -1.2538  1.4959
   26SAPC  H17S 3469   6.886   1.838   8.240  0.5256 -0.6750  0.2557
   26SAPC  C218 3470   6.831   1.633   8.287 -0.4909 -0.7704 -0.6933
   26SAPC  H18R 3471   6.899   1.587   8.211  3.3513  2.6509  0.2905
   26SAPC  H18S 3472   6.742   1.567   8.296 -1.0212 -0.5919 -3.5963
   26SAPC  C219 3473   6.907   1.631   8.422 -0.2037 -0.3092  0.5058
   26SAPC  H19R 3474   7.006   1.679   8.401  0.6036 -0.7276  3.0258
   26SAPC  H19S 3475   6.917   1.523   8.444 -2.9591 -0.6846  0.2965
   26SAPC  C220 3476   6.844   1.695   8.551 -0.2843  0.3869  0.5378
   26SAPC  H20R 3477   6.889   1.650   8.642  0.3708  1.9295  0.9995
   26SAPC  H20S 3478   6.737   1.669   8.542  0.0367 -1.4440  1.4963
   26SAPC  H20T 3479   6.861   1.804   8.548  0.7462  0.2263 -0.0344
   26SAPC   C33 3480   6.363   1.882   6.972 -0.6791 -0.6060 -0.4254
   26SAPC   H3X 3481   6.455   1.937   6.942 -0.2172 -0.6127  0.9137
   26SAPC   H3Y 3482   6.391   1.775   6.961  2.8070  0.0866  0.5116
   26SAPC   C34 3483   6.319   1.901   7.119  0.5736 -0.1914 -0.8728
   26SAPC   H4X 3484   6.214   1.867   7.121  0.2722  0.6828 -1.6259
   26SAPC   H4Y 3485   6.322   2.006   7.155  0.5285 -0.4619 -0.0446
   26SAPC   C35 3486   6.393   1.804   7.210 -0.3407 -0.0436 -0.1855
   26SAPC   H5X 3487   6.498   1.840   7.213 -0.5821  0.6331  2.4921
   26SAPC   H5Y 3488   6.380   1.702   7.168  0.7421  0.4783 -1.8911
   26SAPC   C36 3489   6.338   1.815   7.351  0.5284 -0.1040 -0.6977
   26SAPC   H6X 3490   6.228   1.796   7.353 -0.1951  3.4369  1.1899
   26SAPC   H6Y 3491   6.347   1.924   7.373  1.0887  0.0504 -1.6618
   26SAPC   C37 3492   6.416   1.721   7.449 -0.3994 -0.4181 -0.0525
   26SAPC   H7X 3493   6.527   1.726   7.441 -0.2930 -2.7592 -1.1152
   26SAPC   H7Y 3494   6.390   1.617   7.419 -0.0821 -0.2697 -0.8610
   26SAPC   C38 3495   6.360   1.751   7.588  0.4203  0.1257 -0.2019
   26SAPC   H8X 3496   6.249   1.749   7.594  0.4321  1.9175  1.5506
   26SAPC   H8Y 3497   6.383   1.854   7.622 -0.4860 -0.2562  1.6849
   26SAPC   C39 3498   6.409   1.639   7.690  0.0529 -0.5681 -0.4314
   26SAPC   H9X 3499   6.519   1.635   7.705 -0.0853 -2.8856  0.2453
   26SAPC   H9Y 3500   6.372   1.543   7.648 -1.7162 -0.5906  1.0575
   26SAPC  C310 3501   6.350   1.663   7.831  0.1965  0.3739 -0.0172
   26SAPC  H10X 3502   6.245   1.629   7.831  0.9647 -2.2130  0.6637
   26SAPC  H10Y 3503   6.368   1.772   7.845 -0.5933  0.6451 -1.0219
   26SAPC  C311 3504   6.433   1.584   7.938  0.1228  0.1749  0.4047
   26SAPC  H11X 3505   6.538   1.620   7.937 -0.4484  1.9538 -1.2357
   26SAPC  H11Y 3506   6.431   1.474   7.922 -1.2269 -0.4732  4.1098
   26SAPC  C312 3507   6.376   1.589   8.082 -0.4933 -0.1345 -0.0387
   26SAPC  H12X 3508   6.273   1.630   8.083 -0.4434  0.0030 -0.2515
   26SAPC  H12Y 3509   6.444   1.664   8.129 -0.1673 -0.8136  0.5743
   26SAPC  C313 3510   6.391   1.463   8.167 -0.1003 -0.0491  0.1562
   26SAPC  H13X 3511   6.501   1.444   8.167  0.2729  1.8761  0.6148
   26SAPC  H13Y 3512   6.325   1.383   8.126 -0.6499  0.8994 -0.8705
   26SAPC  C314 3513   6.354   1.486   8.313 -0.1388 -0.2623  0.4282
   26SAPC  H14X 3514   6.259   1.545   8.313  0.6917  1.1886  2.2775
   26SAPC  H14Y 3515   6.433   1.553   8.354  0.0866 -1.4799  2.0468
   26SAPC  C315 3516   6.346   1.365   8.414  0.2342 -0.2296  0.6924
   26SAPC  H15X 3517   6.445   1.314   8.406  0.1727 -0.3857  0.9090
   26SAPC  H15Y 3518   6.275   1.284   8.386 -1.3493  0.9762  1.0965
   26SAPC  C316 3519   6.330   1.408   8.564  0.4943  1.1678  0.5777
   26SAPC  H16X 3520   6.222   1.418   8.587 -0.1515 -2.6196 -0.1381
   26SAPC  H16Y 3521   6.389   1.500   8.581  1.7670  0.1806  1.7330
   26SAPC  C317 3522   6.388   1.299   8.654 -0.7388  0.8052  0.2980
   26SAPC  H17X 3523   6.490   1.281   8.613 -0.7940  0.7689  0.1793
   26SAPC  H17Y 3524   6.335   1.201   8.647 -2.1018  1.2373  3.0401
   26SAPC  C318 3525   6.408   1.342   8.803 -1.1751 -0.2342 -0.4744
   26SAPC  H18X 3526   6.446   1.264   8.873 -1.1750 -0.5569 -0.8288
   26SAPC  H18Y 3527   6.313   1.387   8.837 -1.1234 -1.3300  1.2867
   26SAPC  H18Z 3528   6.483   1.423   8.802 -0.5594 -0.7981 -0.8427
   27SAPC     N 3529   3.809   2.450   6.214  0.5153 -0.1661 -0.1130
   27SAPC   C12 3530   3.829   2.520   6.346  0.6942  0.2907 -0.6879
   27SAPC  H12A 3531   3.754   2.598   6.352 -0.3803 -0.8331  2.1885
   27SAPC  H12B 3532   3.926   2.567   6.338 -0.4436  3.0828  0.4832
   27SAPC   C13 3533   3.908   2.328   6.212 -0.9131  0.6050  0.2667
   27SAPC  H13A 3534   3.901   2.266   6.124 -1.1863  2.8242 -1.3813
   27SAPC  H13B 3535   4.012   2.353   6.225 -0.3808 -2.2119  2.3992
   27SAPC  H13C 3536   3.889   2.253   6.287 -0.1185 -1.3010 -1.3675
   27SAPC   C14 3537   3.666   2.400   6.210 -0.3824  0.3973  0.0236
   27SAPC  H14A 3538   3.592   2.478   6.213 -0.1348  0.6337 -0.0099
   27SAPC  H14B 3539   3.647   2.330   6.129  0.3833 -1.7930  1.6278
   27SAPC  H14C 3540   3.644   2.340   6.297 -2.0450  2.3853  1.0366
   27SAPC   C15 3541   3.831   2.549   6.104  0.5517  0.1286  0.5206
   27SAPC  H15A 3542   3.911   2.618   6.127  1.8243 -1.2279  0.3450
   27SAPC  H15B 3543   3.842   2.506   6.005 -0.1405 -1.3873  1.0625
   27SAPC  H15C 3544   3.739   2.604   6.091  0.1035 -0.0190  2.6955
   27SAPC   C11 3545   3.823   2.439   6.480  0.1572 -0.4632  0.0638
   27SAPC  H11A 3546   3.857   2.511   6.558 -2.0154  1.6629 -0.7877
   27SAPC  H11B 3547   3.899   2.359   6.471  2.0317  1.1558  0.7975
   27SAPC     P 3548   3.592   2.489   6.584  0.3136  0.3106 -0.4226
   27SAPC   O13 3549   3.560   2.593   6.484  0.0514 -0.0358  0.0476
   27SAPC   O14 3550   3.484   2.407   6.636  0.5191  0.3575 -0.1828
   27SAPC   O12 3551   3.694   2.395   6.513 -0.1235  0.5272 -0.3521
   27SAPC   O11 3552   3.684   2.538   6.707  0.1922 -0.4202  0.2530
   27SAPC    C1 3553   3.744   2.450   6.801 -0.2390  0.1765  0.0818
   27SAPC    HA 3554   3.682   2.357   6.806 -0.3780  0.2799  0.2910
   27SAPC    HB 3555   3.843   2.418   6.762 -0.5548  0.3299 -0.8895
   27SAPC    C2 3556   3.758   2.505   6.939 -0.0253 -0.4229 -0.1751
   27SAPC    HS 3557   3.822   2.434   6.996 -1.5267 -0.2525  1.8444
   27SAPC   O21 3558   3.633   2.513   7.008 -0.5833  0.4264  0.4083
   27SAPC   C21 3559   3.600   2.407   7.070  0.0129 -0.0133 -0.0188
   27SAPC   O22 3560   3.672   2.311   7.107  0.4634 -0.0920  0.2220
   27SAPC   C22 3561   3.449   2.420   7.096  0.7724 -0.2353  0.3237
   27SAPC   H2R 3562   3.401   2.440   6.998  1.4383 -0.2982 -0.0236
   27SAPC   H2S 3563   3.407   2.325   7.137  0.7736 -0.7220 -0.7587
   27SAPC    C3 3564   3.830   2.645   6.945 -0.3467 -0.2944 -0.3986
   27SAPC    HX 3565   3.761   2.716   6.894  0.3605  0.6074 -0.1165
   27SAPC    HY 3566   3.922   2.635   6.883  0.3816 -1.1310  0.7757
   27SAPC   O31 3567   3.872   2.695   7.074 -0.2005  0.1365 -0.2381
   27SAPC   C31 3568   3.982   2.642   7.133 -0.7125  0.2786  0.1116
   27SAPC   O32 3569   4.052   2.556   7.087  0.1951  0.0881  0.0393
   27SAPC   C32 3570   4.020   2.709   7.260  0.8976 -0.2093  0.4943
   27SAPC   H2X 3571   3.975   2.810   7.271 -0.1342 -0.6048  0.0639
   27SAPC   H2Y 3572   4.128   2.734   7.255  1.1362 -1.1428  0.7216
   27SAPC   C23 3573   3.407   2.539   7.193 -0.4375  0.3720 -0.2542
   27SAPC   H3R 3574   3.297   2.555   7.194 -0.4064  0.7681 -1.2324
   27SAPC   H3S 3575   3.460   2.624   7.144 -0.0028 -2.2477 -4.8513
   27SAPC   C24 3576   3.452   2.517   7.334 -0.9410  0.2630  0.3644
   27SAPC   H4R 3577   3.444   2.607   7.398  2.7098  0.5616  0.6448
   27SAPC   H4S 3578   3.559   2.486   7.325 -1.3321 -0.9070 -0.4947
   27SAPC   C25 3579   3.374   2.399   7.400 -0.6163 -0.1425 -1.0755
   27SAPC   H5R 3580   3.430   2.304   7.400  0.8034  0.5313  2.7011
   27SAPC   C26 3581   3.272   2.408   7.490  0.0709 -0.1945 -0.6346
   27SAPC   H6R 3582   3.220   2.317   7.523 -0.5449  0.1827 -0.5405
   27SAPC   C27 3583   3.199   2.534   7.544  0.2655 -0.3865  1.0090
   27SAPC   H7R 3584   3.117   2.491   7.605 -0.6329 -0.6814 -0.3750
   27SAPC   H7S 3585   3.146   2.585   7.461  1.3651  0.9277  1.0572
   27SAPC   C28 3586   3.268   2.646   7.615 -0.4319  1.4444  0.4021
   27SAPC   H8R 3587   3.323   2.714   7.548 -1.8251 -0.0715 -2.4565
   27SAPC   C29 3588   3.264   2.677   7.744 -0.1198  0.6227 -0.2433
   27SAPC   H9R 3589   3.316   2.772   7.762 -0.5037  0.6026  1.0906
   27SAPC  C210 3590   3.181   2.612   7.846 -0.0014  0.8465  0.3532
   27SAPC  H10R 3591   3.161   2.510   7.808 -0.5546 -0.0996  2.9928
   27SAPC  H10S 3592   3.090   2.675   7.856  0.6727  2.6121 -3.1148
   27SAPC  C211 3593   3.256   2.599   7.974 -0.3610 -0.4547 -0.1641
   27SAPC  H11R 3594   3.360   2.564   7.965 -0.5824 -0.8542 -1.2816
   27SAPC  C212 3595   3.199   2.619   8.100 -0.5107  0.3272 -0.2202
   27SAPC  H12R 3596   3.257   2.606   8.193 -5.4504 -1.5033  2.9946
   27SAPC  C213 3597   3.057   2.637   8.135  1.2220 -0.4158 -0.0383
   27SAPC  H13R 3598   3.021   2.580   8.223  0.5205 -0.9505 -0.6529
   27SAPC  H13S 3599   2.983   2.618   8.054  1.8497  2.5267 -1.4319
   27SAPC  C214 3600   3.064   2.783   8.165  0.5773  0.1809 -0.8234
   27SAPC  H14R 3601   3.053   2.848   8.077 -1.4966 -1.7332 -2.0917
   27SAPC  C215 3602   3.044   2.844   8.283  0.5092 -0.2407 -0.0760
   27SAPC  H15R 3603   3.042   2.953   8.296  0.4968  0.1076 -2.5738
   27SAPC  C216 3604   3.019   2.768   8.405 -0.8863 -1.1209 -0.7517
   27SAPC  H16R 3605   2.981   2.666   8.385 -3.7775 -0.0046 -1.3688
   27SAPC  H16S 3606   2.947   2.817   8.474  0.5092 -1.0001  0.6690
   27SAPC  C217 3607   3.149   2.753   8.494 -0.0711  0.3279  0.5652
   27SAPC  H17R 3608   3.226   2.699   8.435 -0.0174  2.0406 -1.0426
   27SAPC  H17S 3609   3.118   2.692   8.581 -1.2403 -1.9465 -1.3197
   27SAPC  C218 3610   3.207   2.877   8.549  0.2357 -0.0247 -0.3497
   27SAPC  H18R 3611   3.131   2.945   8.594 -0.0970 -2.0195  2.3408
   27SAPC  H18S 3612   3.247   2.923   8.456 -2.0036  1.0600 -0.8482
   27SAPC  C219 3613   3.331   2.858   8.635 -0.5275  0.3200 -0.0172
   27SAPC  H19R 3614   3.412   2.802   8.584 -3.9417 -3.2008 -2.1191
   27SAPC  H19S 3615   3.318   2.785   8.718 -0.1555 -0.3065 -0.4957
   27SAPC  C220 3616   3.384   2.989   8.690  1.1740  0.2612  0.2440
   27SAPC  H20R 3617   3.305   3.024   8.760 -0.4140 -0.2919 -1.2199
   27SAPC  H20S 3618   3.405   3.058   8.605  2.6847 -1.0415 -0.4866
   27SAPC  H20T 3619   3.481   2.970   8.741 -0.7484 -2.3811  3.3007
   27SAPC   C33 3620   4.002   2.628   7.383 -0.0669  0.9932  0.7009
   27SAPC   H3X 3621   4.058   2.678   7.466  0.3772  0.5766  0.6531
   27SAPC   H3Y 3622   4.058   2.533   7.387 -1.3616  0.2338  2.5757
   27SAPC   C34 3623   3.860   2.598   7.432 -0.3387  0.6604  0.0573
   27SAPC   H4X 3624   3.810   2.530   7.360 -0.8718 -0.1258  1.1568
   27SAPC   H4Y 3625   3.802   2.693   7.426 -1.9526 -0.3630 -1.4634
   27SAPC   C35 3626   3.853   2.549   7.577  0.2991  0.2593  0.2338
   27SAPC   H5X 3627   3.743   2.545   7.596  0.3545  0.6736  0.6387
   27SAPC   H5Y 3628   3.883   2.619   7.657  0.4756  0.4162  0.0323
   27SAPC   C36 3629   3.905   2.410   7.609  0.4453 -0.3073 -0.4516
   27SAPC   H6X 3630   4.015   2.415   7.621  0.2120  1.0707  1.6788
   27SAPC   H6Y 3631   3.880   2.330   7.536 -0.1995  0.7290 -1.4021
   27SAPC   C37 3632   3.828   2.363   7.736 -0.1333  0.1644 -0.3133
   27SAPC   H7X 3633   3.822   2.252   7.739 -1.3339  0.2163 -0.3089
   27SAPC   H7Y 3634   3.725   2.403   7.744 -0.3804 -0.6356  0.7922
   27SAPC   C38 3635   3.891   2.417   7.866  0.2324  0.0841 -0.6797
   27SAPC   H8X 3636   3.906   2.527   7.863  0.3922  0.0484 -1.3354
   27SAPC   H8Y 3637   3.993   2.375   7.881  0.8615  0.8671 -2.5626
   27SAPC   C39 3638   3.807   2.397   7.995 -0.7879 -1.0615 -0.2209
   27SAPC   H9X 3639   3.709   2.445   7.976 -0.3791  1.3123  2.8524
   27SAPC   H9Y 3640   3.863   2.447   8.077 -1.0015 -2.1898  0.6363
   27SAPC  C310 3641   3.792   2.255   8.045 -0.0755 -0.4079 -0.5511
   27SAPC  H10X 3642   3.888   2.201   8.057  0.4839  0.8282  1.0291
   27SAPC  H10Y 3643   3.732   2.196   7.973 -3.3988  0.4405  1.3048
   27SAPC  C311 3644   3.740   2.251   8.190 -0.4176 -0.6274 -0.5289
   27SAPC  H11X 3645   3.641   2.301   8.188  1.3310  3.1997 -1.5702
   27SAPC  H11Y 3646   3.804   2.314   8.256 -0.1823  0.6763 -1.9434
   27SAPC  C312 3647   3.740   2.114   8.249  0.1374  0.0271 -0.6728
   27SAPC  H12X 3648   3.837   2.065   8.231  0.1645 -0.3676  0.4712
   27SAPC  H12Y 3649   3.649   2.059   8.217 -3.2990  2.3356  3.8552
   27SAPC  C313 3650   3.733   2.107   8.402  0.6703 -0.4965  0.5193
   27SAPC  H13X 3651   3.651   2.175   8.434  0.1532 -1.0143  0.3199
   27SAPC  H13Y 3652   3.821   2.148   8.455  0.9199  1.3929 -1.2340
   27SAPC  C314 3653   3.710   1.966   8.456  0.3706  0.2957 -0.0473
   27SAPC  H14X 3654   3.796   1.903   8.426  0.6187  0.3113  0.6138
   27SAPC  H14Y 3655   3.618   1.928   8.406  0.9668  0.4707 -1.3090
   27SAPC  C315 3656   3.702   1.956   8.612 -0.2821 -0.3780 -0.0341
   27SAPC  H15X 3657   3.604   1.999   8.642  1.6934  3.6899  1.4468
   27SAPC  H15Y 3658   3.780   2.016   8.664  0.3110 -2.8206  2.0737
   27SAPC  C316 3659   3.720   1.805   8.640  0.4993  0.2237 -0.2777
   27SAPC  H16X 3660   3.704   1.790   8.749 -0.4300 -1.4972 -0.6066
   27SAPC  H16Y 3661   3.827   1.792   8.611  0.1119 -0.8487 -1.3361
   27SAPC  C317 3662   3.629   1.703   8.568  0.1942  0.4067  0.5503
   27SAPC  H17X 3663   3.672   1.602   8.586  1.1775  0.4166 -1.3970
   27SAPC  H17Y 3664   3.630   1.715   8.457  1.4945 -0.1283  0.4760
   27SAPC  C318 3665   3.491   1.698   8.638  0.7048 -0.3788  0.0349
   27SAPC  H18X 3666   3.499   1.669   8.745 -0.3351 -0.5498  0.0708
   27SAPC  H18Y 3667   3.421   1.623   8.596  3.8131 -2.9655 -0.9484
   27SAPC  H18Z 3668   3.447   1.798   8.623  1.6764 -0.1271 -1.2681
   28SAPC     N 3669   4.610   4.712   6.193 -0.5992 -0.0274  0.3264
   28SAPC   C12 3670   4.487   4.800   6.208 -0.6100 -0.4117 -0.0577
   28SAPC  H12A 3671   4.397   4.749   6.175 -0.9700  0.1234  0.0802
   28SAPC  H12B 3672   4.492   4.888   6.144  1.5096 -0.3702  0.1075
   28SAPC   C13 3673   4.569   4.582   6.254  0.1271 -0.2438 -0.0532
   28SAPC  H13A 3674   4.497   4.546   6.182 -0.9965  1.3190  0.2471
   28SAPC  H13B 3675   4.652   4.514   6.266  0.4315  0.3680  1.7497
   28SAPC  H13C 3676   4.523   4.600   6.350 -1.6190  0.8304 -1.0380
   28SAPC   C14 3677   4.640   4.696   6.049 -0.2602  0.3606 -0.2956
   28SAPC  H14A 3678   4.677   4.777   5.989 -3.2867 -0.0242 -2.9530
   28SAPC  H14B 3679   4.722   4.626   6.042  1.4965  2.2275  0.6391
   28SAPC  H14C 3680   4.553   4.659   5.997  0.7311  0.0671 -1.7972
   28SAPC   C15 3681   4.731   4.761   6.265 -0.2468 -0.0238  0.0035
   28SAPC  H15A 3682   4.781   4.837   6.208  1.2218 -0.6519  0.4045
   28SAPC  H15B 3683   4.699   4.813   6.354  0.2938  2.9455 -1.4252
   28SAPC  H15C 3684   4.803   4.688   6.300  0.9591  1.2668  0.2983
   28SAPC   C11 3685   4.460   4.858   6.351 -0.6029  0.2398  0.2264
   28SAPC  H11A 3686   4.467   4.770   6.418  1.5967 -0.7343 -1.1800
   28SAPC  H11B 3687   4.357   4.900   6.361 -0.3265  0.5655  2.1407
   28SAPC     P 3688   4.543   5.102   6.337 -0.4321 -0.4319  0.0974
   28SAPC   O13 3689   4.682   5.151   6.311 -0.2271  0.5820 -0.0573
   28SAPC   O14 3690   4.450   5.108   6.227  0.7974 -0.2933  0.6444
   28SAPC   O12 3691   4.553   4.957   6.389 -0.0348  0.1162 -0.0483
   28SAPC   O11 3692   4.481   5.176   6.460  0.2500  0.3709  0.5246
   28SAPC    C1 3693   4.437   5.132   6.592 -0.1209 -0.2849  0.5519
   28SAPC    HA 3694   4.388   5.033   6.579  0.0131 -0.2811 -0.0051
   28SAPC    HB 3695   4.523   5.119   6.661 -0.4474  1.0162  1.2368
   28SAPC    C2 3696   4.322   5.227   6.652  0.4917  0.2917 -0.5552
   28SAPC    HS 3697   4.232   5.199   6.593 -0.9832  1.0329  1.2419
   28SAPC   O21 3698   4.350   5.370   6.630 -0.3809 -0.1756  0.1766
   28SAPC   C21 3699   4.243   5.443   6.639 -0.4584 -0.0849  0.0669
   28SAPC   O22 3700   4.128   5.405   6.636  0.2140 -0.7502  0.2627
   28SAPC   C22 3701   4.299   5.588   6.671 -0.1496 -0.0947 -0.2909
   28SAPC   H2R 3702   4.372   5.572   6.753  0.3190  1.7223 -0.2954
   28SAPC   H2S 3703   4.353   5.609   6.576  2.4193 -0.0390  1.1060
   28SAPC    C3 3704   4.282   5.178   6.800 -0.2359  0.3062  0.5266
   28SAPC    HX 3705   4.289   5.067   6.802 -2.3671  0.0269 -2.0864
   28SAPC    HY 3706   4.182   5.212   6.832  0.1518  0.1061  2.0358
   28SAPC   O31 3707   4.377   5.216   6.895 -0.3428 -0.6908 -0.1926
   28SAPC   C31 3708   4.358   5.332   6.954 -0.0749 -0.3258  0.3747
   28SAPC   O32 3709   4.274   5.409   6.930  0.4222 -0.5847 -0.1866
   28SAPC   C32 3710   4.448   5.336   7.074 -0.4390  0.1487 -0.5971
   28SAPC   H2X 3711   4.433   5.436   7.121  1.4150  2.3101 -4.1970
   28SAPC   H2Y 3712   4.553   5.341   7.039  0.3252  1.4796  1.6926
   28SAPC   C23 3713   4.184   5.684   6.716  0.8782 -0.0410 -0.7798
   28SAPC   H3R 3714   4.091   5.675   6.655  0.1962 -0.4962  0.2970
   28SAPC   H3S 3715   4.233   5.782   6.698  3.3517 -1.4206 -2.0247
   28SAPC   C24 3716   4.152   5.683   6.866 -0.5216 -1.0671  0.3152
   28SAPC   H4R 3717   4.128   5.578   6.896  0.3379 -1.2987  0.2180
   28SAPC   H4S 3718   4.245   5.701   6.923 -1.3494 -1.0078  1.6792
   28SAPC   C25 3719   4.044   5.782   6.909  0.9346 -0.1961  0.1573
   28SAPC   H5R 3720   3.958   5.787   6.840  0.4807  0.5105  0.7611
   28SAPC   C26 3721   4.053   5.865   7.012 -0.1369 -0.0326  0.4669
   28SAPC   H6R 3722   3.975   5.941   7.032 -0.5173 -0.7337  1.7618
   28SAPC   C27 3723   4.160   5.869   7.122  0.2304  0.2601  0.2280
   28SAPC   H7R 3724   4.238   5.794   7.099 -0.1012 -0.4556  1.3608
   28SAPC   H7S 3725   4.123   5.822   7.215 -0.0109 -0.0102 -0.0032
   28SAPC   C28 3726   4.219   6.002   7.149  0.0432 -0.3838  0.4598
   28SAPC   H8R 3727   4.275   6.034   7.060  0.4093 -0.1346  0.7729
   28SAPC   C29 3728   4.217   6.062   7.263  0.3961 -0.0146 -0.4929
   28SAPC   H9R 3729   4.277   6.155   7.270  1.6113 -0.8663  0.9341
   28SAPC  C210 3730   4.152   6.027   7.395  0.4190 -0.0040  0.2717
   28SAPC  H10R 3731   4.082   5.941   7.384 -0.5169  0.8499 -0.6712
   28SAPC  H10S 3732   4.070   6.100   7.415 -0.9000 -1.5198  0.6072
   28SAPC  C211 3733   4.249   6.010   7.511 -0.6891  0.5247 -0.6573
   28SAPC  H11R 3734   4.358   6.024   7.505 -0.7049  0.3399 -1.3830
   28SAPC  C212 3735   4.205   5.976   7.636  0.2742 -0.2997 -0.3027
   28SAPC  H12R 3736   4.271   5.993   7.722  1.3780 -2.2006 -0.7067
   28SAPC  C213 3737   4.056   5.963   7.667  0.3944  0.5746 -0.2217
   28SAPC  H13R 3738   4.005   5.912   7.583 -2.2325  0.7915  1.1256
   28SAPC  H13S 3739   3.999   6.058   7.680 -1.3770 -0.7919  3.4084
   28SAPC  C214 3740   4.025   5.879   7.790  0.0068  0.1471  0.3235
   28SAPC  H14R 3741   4.000   5.772   7.784 -2.0487  0.5673  0.5197
   28SAPC  C215 3742   4.026   5.921   7.913  0.0255 -0.3435 -1.0969
   28SAPC  H15R 3743   4.019   5.861   8.005 -2.6060  1.9842  0.3899
   28SAPC  C216 3744   4.057   6.061   7.962 -0.6768  0.4151 -0.0683
   28SAPC  H16R 3745   3.965   6.098   8.011 -0.3662 -1.5391  2.1985
   28SAPC  H16S 3746   4.086   6.128   7.878 -1.2265 -0.8076 -1.2758
   28SAPC  C217 3747   4.177   6.054   8.059 -0.1690 -0.4313  0.4618
   28SAPC  H17R 3748   4.194   6.160   8.087  0.7507  0.0158 -1.5924
   28SAPC  H17S 3749   4.272   6.024   8.010  1.7466  0.6129  3.2638
   28SAPC  C218 3750   4.156   5.967   8.189  0.7105 -0.0238  0.2165
   28SAPC  H18R 3751   4.149   5.861   8.156  4.5346 -1.0332  2.1102
   28SAPC  H18S 3752   4.065   6.012   8.234 -0.2537 -1.6759 -0.0047
   28SAPC  C219 3753   4.275   5.972   8.288 -0.8613 -0.5613  0.7023
   28SAPC  H19R 3754   4.228   5.957   8.387 -2.9126  0.1823 -0.1016
   28SAPC  H19S 3755   4.321   6.072   8.290 -3.6075  0.9682 -2.1681
   28SAPC  C220 3756   4.387   5.874   8.249 -0.1068 -0.8178  0.2200
   28SAPC  H20R 3757   4.342   5.773   8.248  1.1751 -1.5209  3.5179
   28SAPC  H20S 3758   4.479   5.873   8.311  0.9487  2.4638 -1.0415
   28SAPC  H20T 3759   4.427   5.896   8.147 -0.3913 -0.7228  0.1289
   28SAPC   C33 3760   4.433   5.216   7.175  0.0190  0.3729  0.1320
   28SAPC   H3X 3761   4.529   5.208   7.229  1.0500  1.0280 -1.5340
   28SAPC   H3Y 3762   4.417   5.124   7.114  0.4939  0.4896 -0.1722
   28SAPC   C34 3763   4.326   5.233   7.286  0.1588 -0.7507 -0.1398
   28SAPC   H4X 3764   4.337   5.136   7.339  0.6052 -1.4211 -1.4214
   28SAPC   H4Y 3765   4.227   5.241   7.237  0.2254  1.7487  0.0290
   28SAPC   C35 3766   4.344   5.352   7.379  0.4013 -0.1141 -0.3707
   28SAPC   H5X 3767   4.348   5.449   7.326 -0.7112  1.4256  2.1647
   28SAPC   H5Y 3768   4.449   5.345   7.415  0.2023 -1.7428 -0.0130
   28SAPC   C36 3769   4.242   5.364   7.486 -0.4775 -0.0169 -0.4541
   28SAPC   H6X 3770   4.140   5.350   7.446  0.4187 -1.1772 -2.4694
   28SAPC   H6Y 3771   4.254   5.469   7.522  1.7513  1.1470 -4.0428
   28SAPC   C37 3772   4.267   5.261   7.594 -0.5507 -0.1353 -0.5351
   28SAPC   H7X 3773   4.372   5.288   7.621 -0.1741 -2.6116  0.7407
   28SAPC   H7Y 3774   4.271   5.157   7.557  1.1211 -0.8648  1.5039
   28SAPC   C38 3775   4.175   5.277   7.718 -0.0378 -0.3851  0.1688
   28SAPC   H8X 3776   4.069   5.251   7.694  0.1522  0.0446 -1.2431
   28SAPC   H8Y 3777   4.178   5.384   7.749  1.0178 -0.6027  0.8690
   28SAPC   C39 3778   4.223   5.195   7.840 -0.5341  0.9161 -0.5948
   28SAPC   H9X 3779   4.331   5.221   7.851 -0.9500  2.3294  0.5142
   28SAPC   H9Y 3780   4.212   5.085   7.840  2.1418  0.5535  0.0354
   28SAPC  C310 3781   4.156   5.248   7.970  0.0768  0.3713 -0.4638
   28SAPC  H10X 3782   4.047   5.227   7.962  0.0821  0.0161  0.3344
   28SAPC  H10Y 3783   4.169   5.357   7.989 -1.4531  0.1562  2.3223
   28SAPC  C311 3784   4.212   5.172   8.091 -0.3348  0.1556  0.6589
   28SAPC  H11X 3785   4.316   5.154   8.058 -1.1404  0.2691 -2.2534
   28SAPC  H11Y 3786   4.150   5.081   8.112 -0.4116  0.2294  0.7530
   28SAPC  C312 3787   4.226   5.240   8.229  0.2798  0.5660 -0.4958
   28SAPC  H12X 3788   4.286   5.332   8.210  0.0581  1.0014  0.8522
   28SAPC  H12Y 3789   4.288   5.175   8.294 -2.0369 -0.6428  0.6392
   28SAPC  C313 3790   4.098   5.281   8.288 -0.6719 -0.4181 -0.2260
   28SAPC  H13X 3791   4.045   5.352   8.220  0.7189  0.0080 -0.8973
   28SAPC  H13Y 3792   4.119   5.343   8.378 -1.2253  0.7709 -0.8906
   28SAPC  C314 3793   4.011   5.163   8.322  1.1027 -0.3043 -0.6125
   28SAPC  H14X 3794   4.079   5.091   8.371 -0.6262 -1.7479 -0.2728
   28SAPC  H14Y 3795   3.989   5.110   8.227  0.0110  0.8240 -1.0215
   28SAPC  C315 3796   3.887   5.196   8.404 -0.3268 -1.2627  0.1839
   28SAPC  H15X 3797   3.925   5.256   8.489 -1.6079 -0.4524  0.2163
   28SAPC  H15Y 3798   3.853   5.098   8.444  0.4153 -1.6362 -0.0776
   28SAPC  C316 3799   3.770   5.271   8.328 -0.1103  0.4061  0.0857
   28SAPC  H16X 3800   3.809   5.368   8.289 -0.9376  0.5930 -0.3028
   28SAPC  H16Y 3801   3.693   5.298   8.403 -0.1851  0.9364 -0.1756
   28SAPC  C317 3802   3.701   5.196   8.210  0.7261 -0.2780 -0.3847
   28SAPC  H17X 3803   3.763   5.163   8.124  0.9476 -0.0683 -0.3092
   28SAPC  H17Y 3804   3.627   5.262   8.161  0.0308  0.7259  1.8496
   28SAPC  C318 3805   3.617   5.070   8.264 -0.6498  0.1975  0.1934
   28SAPC  H18X 3806   3.666   5.023   8.353  0.3471  0.9626  0.0640
   28SAPC  H18Y 3807   3.606   4.987   8.191 -1.1752  0.4971 -0.0740
   28SAPC  H18Z 3808   3.513   5.097   8.294  0.1722  1.7026  1.8546
   29SAPC     N 3809   6.147   2.780   5.933  0.2622 -0.4068 -0.1209
   29SAPC   C12 3810   6.206   2.814   6.071 -0.6683  0.0898 -0.5094
   29SAPC  H12A 3811   6.314   2.812   6.065 -0.7497 -0.3240 -3.0952
   29SAPC  H12B 3812   6.174   2.735   6.138  2.9505 -1.5985 -0.5360
   29SAPC   C13 3813   6.221   2.870   5.831 -0.2966 -1.3751 -0.5641
   29SAPC  H13A 3814   6.327   2.849   5.840  0.1039  0.3787 -0.8644
   29SAPC  H13B 3815   6.188   2.850   5.730  1.9342 -0.7472 -1.4733
   29SAPC  H13C 3816   6.208   2.974   5.853 -0.4733 -1.4687 -0.2182
   29SAPC   C14 3817   6.189   2.637   5.909 -0.5902  0.3992  0.8594
   29SAPC  H14A 3818   6.132   2.571   5.973  0.7449 -2.7593 -0.9749
   29SAPC  H14B 3819   6.157   2.616   5.808 -0.3401  0.8388  0.6908
   29SAPC  H14C 3820   6.293   2.612   5.926 -0.4710  0.9723  0.9817
   29SAPC   C15 3821   6.003   2.807   5.914 -1.0343 -0.2370  0.6350
   29SAPC  H15A 3822   5.983   2.820   5.808  0.0642 -0.2755  0.4086
   29SAPC  H15B 3823   5.940   2.729   5.954 -0.1852 -0.8573  0.8206
   29SAPC  H15C 3824   5.978   2.893   5.973  0.0082  1.8091 -1.7283
   29SAPC   C11 3825   6.159   2.946   6.144  0.1696  0.3434 -0.3591
   29SAPC  H11A 3826   6.172   3.035   6.079 -0.5513 -0.1344 -1.1679
   29SAPC  H11B 3827   6.221   2.960   6.235 -0.7624  0.8187  0.2182
   29SAPC     P 3828   5.957   2.835   6.285  0.1667 -0.2047 -0.2014
   29SAPC   O13 3829   5.826   2.884   6.342 -0.4922 -0.0212 -0.4114
   29SAPC   O14 3830   5.950   2.700   6.217  0.6634  0.3851 -0.0930
   29SAPC   O12 3831   6.023   2.945   6.185  0.1340  0.0802  0.2794
   29SAPC   O11 3832   6.062   2.841   6.402 -0.1530  0.0076 -0.5928
   29SAPC    C1 3833   6.115   2.717   6.454 -0.3083 -0.3570 -0.3240
   29SAPC    HA 3834   6.140   2.640   6.377  0.1645  0.0195 -0.5540
   29SAPC    HB 3835   6.207   2.753   6.505  1.6289 -2.2016 -2.2697
   29SAPC    C2 3836   6.025   2.646   6.562  0.4523  0.6721  0.0383
   29SAPC    HS 3837   5.933   2.619   6.508 -0.6143  0.2714  1.9579
   29SAPC   O21 3838   6.007   2.745   6.672 -0.3307  0.5035  0.3988
   29SAPC   C21 3839   5.898   2.729   6.740 -0.2755  0.0141  0.4711
   29SAPC   O22 3840   5.814   2.643   6.724  0.2611 -0.1133  0.7333
   29SAPC   C22 3841   5.894   2.830   6.857 -0.1296 -0.3268  0.2957
   29SAPC   H2R 3842   5.998   2.830   6.897  0.5989 -0.9912 -1.5086
   29SAPC   H2S 3843   5.878   2.932   6.815 -2.5297 -0.8470 -0.2072
   29SAPC    C3 3844   6.105   2.521   6.609  0.2428  0.6025 -0.2054
   29SAPC    HX 3845   6.211   2.552   6.621  0.8868 -1.4191 -0.4040
   29SAPC    HY 3846   6.111   2.452   6.522 -0.9426  1.2887 -0.8733
   29SAPC   O31 3847   6.059   2.459   6.733  0.6878  0.7638  0.3088
   29SAPC   C31 3848   5.971   2.360   6.727  0.1453  0.6553  0.5177
   29SAPC   O32 3849   5.917   2.320   6.624  0.6847 -0.5799  0.2870
   29SAPC   C32 3850   5.958   2.290   6.862  0.4520  0.6590  0.0097
   29SAPC   H2X 3851   5.875   2.351   6.904 -0.1058  0.2726 -0.5162
   29SAPC   H2Y 3852   6.044   2.320   6.925  0.0791 -0.4780  1.1025
   29SAPC   C23 3853   5.797   2.797   6.972 -1.0378 -0.0464 -0.0598
   29SAPC   H3R 3854   5.786   2.687   6.979  0.6620 -0.1526  1.6513
   29SAPC   H3S 3855   5.697   2.844   6.960 -1.0586 -0.0186  0.2142
   29SAPC   C24 3856   5.864   2.842   7.106  0.1791 -0.5053 -0.1102
   29SAPC   H4R 3857   5.969   2.807   7.114 -0.2512 -2.2570 -1.3954
   29SAPC   H4S 3858   5.799   2.791   7.180  0.9672  0.2273  1.1146
   29SAPC   C25 3859   5.856   2.989   7.117 -0.6758  0.5133 -0.1765
   29SAPC   H5R 3860   5.944   3.036   7.071  0.4554  0.5719  1.9346
   29SAPC   C26 3861   5.758   3.056   7.168  0.0901 -0.3174 -0.3136
   29SAPC   H6R 3862   5.759   3.166   7.164  0.5146 -0.3403 -1.1044
   29SAPC   C27 3863   5.628   2.994   7.220  0.0491  0.8460  0.5714
   29SAPC   H7R 3864   5.591   2.927   7.139 -1.0828 -2.0165  3.2456
   29SAPC   H7S 3865   5.546   3.067   7.236 -0.2334  0.6398  0.0899
   29SAPC   C28 3866   5.639   2.914   7.352  0.3796  0.1974  0.2283
   29SAPC   H8R 3867   5.584   2.819   7.345  0.9601 -0.0561 -1.6174
   29SAPC   C29 3868   5.688   2.942   7.476 -0.9730  0.7784 -0.0906
   29SAPC   H9R 3869   5.665   2.868   7.554 -1.3107  0.1238 -0.7880
   29SAPC  C210 3870   5.758   3.068   7.516 -0.4314  0.6143  0.6557
   29SAPC  H10R 3871   5.720   3.110   7.611 -1.2359  1.5306 -0.0453
   29SAPC  H10S 3872   5.747   3.150   7.441  0.8194  0.0670 -0.1600
   29SAPC  C211 3873   5.912   3.045   7.534  0.4827  0.0513 -0.3343
   29SAPC  H11R 3874   5.962   3.060   7.437 -0.9948 -3.9370 -1.9310
   29SAPC  C212 3875   5.980   3.000   7.639 -0.3108 -0.1608  0.2204
   29SAPC  H12R 3876   6.090   3.008   7.637 -0.1362 -2.2582 -0.6512
   29SAPC  C213 3877   5.921   2.951   7.762  0.8963  0.1646 -0.2348
   29SAPC  H13R 3878   5.938   2.841   7.760 -2.5406 -0.5816  2.4140
   29SAPC  H13S 3879   5.812   2.968   7.768  0.6200 -1.3817 -0.4327
   29SAPC  C214 3880   5.985   2.998   7.881 -0.2656 -0.2736 -0.2546
   29SAPC  H14R 3881   6.055   2.928   7.930 -0.9847 -0.4292  0.5705
   29SAPC  C215 3882   5.954   3.112   7.947  0.2069  0.7038 -0.3992
   29SAPC  H15R 3883   5.982   3.118   8.053 -1.4636 -1.6020  0.2338
   29SAPC  C216 3884   5.848   3.212   7.914  0.0842 -0.2659 -0.0692
   29SAPC  H16R 3885   5.862   3.241   7.807  0.6838  1.0227  0.3416
   29SAPC  H16S 3886   5.871   3.308   7.964 -2.4999 -0.3633  1.4828
   29SAPC  C217 3887   5.698   3.179   7.941  0.5772 -0.3691 -0.2447
   29SAPC  H17R 3888   5.650   3.090   7.896 -2.9143  0.8373  0.7705
   29SAPC  H17S 3889   5.636   3.266   7.912  1.1636  0.8940  2.0655
   29SAPC  C218 3890   5.659   3.175   8.092  0.0880 -0.2709 -0.0232
   29SAPC  H18R 3891   5.548   3.172   8.098 -0.0113 -0.6569 -1.6172
   29SAPC  H18S 3892   5.683   3.275   8.132  0.0496 -0.5109  0.6028
   29SAPC  C219 3893   5.705   3.051   8.171 -0.2611 -0.3021  0.5326
   29SAPC  H19R 3894   5.812   3.036   8.142 -0.1707  0.3417  0.5035
   29SAPC  H19S 3895   5.654   2.957   8.144  1.8549 -1.9190  1.8819
   29SAPC  C220 3896   5.684   3.080   8.318 -0.0010 -0.6338  0.7723
   29SAPC  H20R 3897   5.748   3.166   8.348  0.1288  1.1720 -3.8706
   29SAPC  H20S 3898   5.724   2.989   8.369 -1.4974 -2.4761 -1.1472
   29SAPC  H20T 3899   5.583   3.104   8.357  0.3589  1.9834  0.2366
   29SAPC   C33 3900   5.924   2.138   6.849  0.2285  0.0400  0.2413
   29SAPC   H3X 3901   6.017   2.080   6.829 -0.1703 -1.1198  1.5783
   29SAPC   H3Y 3902   5.852   2.118   6.768 -0.4236  0.1866  0.7752
   29SAPC   C34 3903   5.857   2.092   6.984 -0.1331 -0.4769 -0.2575
   29SAPC   H4X 3904   5.806   1.997   6.958 -2.6449  0.5725  0.5118
   29SAPC   H4Y 3905   5.766   2.150   7.012 -1.1874 -2.6646  1.0815
   29SAPC   C35 3906   5.953   2.069   7.098 -0.5726 -0.5316 -0.5737
   29SAPC   H5X 3907   6.006   2.164   7.117  1.1134 -1.1739 -1.7519
   29SAPC   H5Y 3908   6.037   1.999   7.078  0.7314  0.5121  0.9758
   29SAPC   C36 3909   5.880   2.022   7.223  0.6851 -0.6072  0.1943
   29SAPC   H6X 3910   5.823   1.929   7.203  0.8446 -1.2060  2.2355
   29SAPC   H6Y 3911   5.814   2.103   7.261  0.5098 -0.7479  0.1908
   29SAPC   C37 3912   5.977   1.998   7.337 -1.0916  0.1453  0.0330
   29SAPC   H7X 3913   6.057   2.075   7.340 -0.8913  0.1080 -2.2045
   29SAPC   H7Y 3914   6.028   1.900   7.327 -2.7158 -1.0849  2.6809
   29SAPC   C38 3915   5.911   1.982   7.472 -0.7609  0.8633  0.0188
   29SAPC   H8X 3916   5.892   1.872   7.479  2.7644  0.1965  1.0167
   29SAPC   H8Y 3917   5.812   2.030   7.460  0.1214  2.2275 -2.7948
   29SAPC   C39 3918   5.991   2.023   7.589 -0.0060  0.0922  0.0095
   29SAPC   H9X 3919   6.004   2.134   7.594 -1.4795  0.2379  3.5407
   29SAPC   H9Y 3920   6.093   1.979   7.592 -0.1062 -0.1021  1.3068
   29SAPC  C310 3921   5.926   1.984   7.722 -0.4398  0.5775  0.7403
   29SAPC  H10X 3922   5.920   1.873   7.712  0.8886  0.5042  0.5161
   29SAPC  H10Y 3923   5.820   2.011   7.739 -0.7136 -0.5327  0.8792
   29SAPC  C311 3924   6.002   2.006   7.848  0.3605 -0.6197  0.0171
   29SAPC  H11X 3925   5.996   2.115   7.869  0.2583 -0.4094 -1.0468
   29SAPC  H11Y 3926   6.110   1.983   7.844  0.4887  0.0971 -1.0771
   29SAPC  C312 3927   5.941   1.930   7.969 -0.2938 -1.0118  0.6785
   29SAPC  H12X 3928   5.964   1.821   7.962 -1.0272 -1.1934  0.9306
   29SAPC  H12Y 3929   5.830   1.939   7.976 -0.3756  0.1503 -1.3232
   29SAPC  C313 3930   5.973   1.989   8.106  0.4618 -0.3570  0.3526
   29SAPC  H13X 3931   5.884   1.970   8.170 -3.0093  0.9217 -3.6298
   29SAPC  H13Y 3932   5.966   2.098   8.082 -1.0262 -0.5100  0.0157
   29SAPC  C314 3933   6.097   1.937   8.174 -0.0087  0.4303 -0.9972
   29SAPC  H14X 3934   6.184   1.953   8.107  1.3121  2.5391  1.0338
   29SAPC  H14Y 3935   6.087   1.828   8.192  0.0214  0.6585  0.6138
   29SAPC  C315 3936   6.111   2.001   8.317  0.0917 -0.6297  0.0751
   29SAPC  H15X 3937   6.015   1.983   8.370 -0.4127  0.6636 -0.3512
   29SAPC  H15Y 3938   6.130   2.110   8.302  1.7663 -0.2056  3.9519
   29SAPC  C316 3939   6.236   1.944   8.386 -0.4111  0.0943 -0.1664
   29SAPC  H16X 3940   6.242   1.835   8.368 -0.7915  0.5893 -4.3020
   29SAPC  H16Y 3941   6.237   1.971   8.494  0.2131  0.7682 -0.3281
   29SAPC  C317 3942   6.362   2.002   8.325  0.6320 -0.1676 -0.7777
   29SAPC  H17X 3943   6.352   2.112   8.311  0.7634 -0.2866 -1.8524
   29SAPC  H17Y 3944   6.373   1.962   8.222  2.0082  2.2567 -1.6568
   29SAPC  C318 3945   6.489   1.964   8.409  0.5550  0.8062 -0.3771
   29SAPC  H18X 3946   6.464   1.977   8.517 -0.9745 -0.1268 -0.5827
   29SAPC  H18Y 3947   6.572   2.026   8.371  1.7086 -0.5309 -0.1298
   29SAPC  H18Z 3948   6.514   1.860   8.377 -1.3025  0.0865  0.3058
   30SAPC     N 3949   0.564   1.790   6.000  0.5571 -0.0135 -0.0753
   30SAPC   C12 3950   0.666   1.798   5.885  0.1435  0.1668  0.7468
   30SAPC  H12A 3951   0.694   1.900   5.861  0.3951  0.0303  0.4621
   30SAPC  H12B 3952   0.610   1.769   5.798 -1.4703 -2.1648  2.4375
   30SAPC   C13 3953   0.497   1.664   6.000  0.4081  0.0245 -0.5711
   30SAPC  H13A 3954   0.461   1.643   5.900 -1.4680  0.9140 -0.1201
   30SAPC  H13B 3955   0.573   1.589   6.018  0.8125  0.2700 -1.2432
   30SAPC  H13C 3956   0.419   1.660   6.075  0.2189  1.7582 -0.6445
   30SAPC   C14 3957   0.635   1.816   6.135 -0.0219  0.1606  0.6464
   30SAPC  H14A 3958   0.653   1.921   6.156  0.9386  0.2210 -0.3573
   30SAPC  H14B 3959   0.582   1.769   6.216  1.0815 -1.2450  0.6068
   30SAPC  H14C 3960   0.734   1.772   6.129 -0.7817 -1.4701 -1.1233
   30SAPC   C15 3961   0.459   1.893   5.966  0.0017  0.0958  0.2911
   30SAPC  H15A 3962   0.402   1.878   5.876  0.7418  0.6844 -0.2835
   30SAPC  H15B 3963   0.381   1.903   6.041 -0.8863  2.6482 -0.8347
   30SAPC  H15C 3964   0.504   1.991   5.965 -0.4689  0.3550 -2.4668
   30SAPC   C11 3965   0.791   1.718   5.902  0.0708 -0.1636 -0.3059
   30SAPC  H11A 3966   0.829   1.711   5.797 -0.0244 -0.0308 -0.3491
   30SAPC  H11B 3967   0.758   1.624   5.951 -0.1156  0.2772  0.4182
   30SAPC     P 3968   1.015   1.729   6.048  0.2211 -0.3228 -0.2244
   30SAPC   O13 3969   1.024   1.587   5.998 -0.2541  0.2169 -0.7091
   30SAPC   O14 3970   1.124   1.828   6.027 -0.0199  0.5930  0.1210
   30SAPC   O12 3971   0.884   1.797   5.977 -0.0291  0.5551 -0.0945
   30SAPC   O11 3972   0.972   1.718   6.206  0.1216  0.6851 -0.3151
   30SAPC    C1 3973   0.948   1.831   6.283 -0.4340  0.4952  0.1753
   30SAPC    HA 3974   0.964   1.920   6.219 -1.7460 -0.2306 -1.2053
   30SAPC    HB 3975   0.849   1.831   6.333 -0.5895  0.4426 -0.1343
   30SAPC    C2 3976   1.056   1.859   6.400 -0.5442  0.8922 -0.5318
   30SAPC    HS 3977   1.158   1.865   6.357  0.8225  0.0396  2.3221
   30SAPC   O21 3978   1.049   1.754   6.494 -0.0094  0.5654 -0.1104
   30SAPC   C21 3979   1.167   1.702   6.532  0.2828  0.3034  0.5763
   30SAPC   O22 3980   1.272   1.764   6.514 -0.5555 -0.1699 -0.5256
   30SAPC   C22 3981   1.142   1.569   6.606  0.1155  0.0166 -0.1057
   30SAPC   H2R 3982   1.037   1.560   6.640  0.9269 -4.4681  1.8116
   30SAPC   H2S 3983   1.160   1.498   6.522  0.0944  1.5983 -1.5090
   30SAPC    C3 3984   1.045   1.997   6.463  0.5005  0.3050  0.6648
   30SAPC    HX 3985   0.953   1.993   6.525  1.3531  0.3329  1.9895
   30SAPC    HY 3986   1.037   2.075   6.385 -3.1243  1.6513  2.1541
   30SAPC   O31 3987   1.156   2.025   6.545  0.1372 -0.8566 -0.3512
   30SAPC   C31 3988   1.132   2.111   6.649  0.5039  0.5299  0.7956
   30SAPC   O32 3989   1.027   2.178   6.661 -0.0234  0.4791 -0.0435
   30SAPC   C32 3990   1.258   2.117   6.732  0.4266  0.2307  0.2760
   30SAPC   H2X 3991   1.286   2.224   6.722 -0.3154  0.7540  2.9058
   30SAPC   H2Y 3992   1.332   2.041   6.700 -0.5410 -0.4080 -0.4760
   30SAPC   C23 3993   1.246   1.558   6.715 -0.4271 -0.1045 -0.3256
   30SAPC   H3R 3994   1.249   1.648   6.780 -0.1905 -1.2776  1.3628
   30SAPC   H3S 3995   1.345   1.546   6.666 -0.4536 -0.9032 -0.2049
   30SAPC   C24 3996   1.229   1.444   6.818 -0.2636  0.3703  0.2269
   30SAPC   H4R 3997   1.303   1.456   6.901  1.5023 -1.6443 -0.9430
   30SAPC   H4S 3998   1.251   1.345   6.773  1.1935  0.4314  0.7253
   30SAPC   C25 3999   1.091   1.437   6.882  0.6609  0.1251  0.3513
   30SAPC   H5R 4000   1.020   1.495   6.820 -0.3113 -0.6520  0.6975
   30SAPC   C26 4001   1.048   1.382   6.996 -0.1548 -0.3087  0.1156
   30SAPC   H6R 4002   0.941   1.400   7.017 -0.5167  1.9731 -2.8711
   30SAPC   C27 4003   1.131   1.305   7.092 -0.1973 -0.4376  0.0264
   30SAPC   H7R 4004   1.236   1.324   7.060 -0.0981  4.2085  2.1967
   30SAPC   H7S 4005   1.115   1.196   7.086  2.4242 -1.0140  1.7241
   30SAPC   C28 4006   1.101   1.335   7.235  0.6993 -0.3252 -0.3044
   30SAPC   H8R 4007   0.998   1.312   7.266  1.2483 -1.2915  0.8653
   30SAPC   C29 4008   1.190   1.384   7.321  0.4578  0.0795  0.4033
   30SAPC   H9R 4009   1.149   1.388   7.423 -0.4101  0.5004  0.0417
   30SAPC  C210 4010   1.334   1.429   7.291 -0.2914 -0.5242  0.1873
   30SAPC  H10R 4011   1.353   1.505   7.370 -1.4291 -1.5747  1.5014
   30SAPC  H10S 4012   1.342   1.491   7.198 -2.0684 -1.8529 -0.9170
   30SAPC  C211 4013   1.450   1.330   7.295  0.5034 -0.0309  0.0536
   30SAPC  H11R 4014   1.456   1.271   7.202  1.7848  0.0151  0.0952
   30SAPC  C212 4015   1.529   1.307   7.402  0.3731 -0.2010 -0.0134
   30SAPC  H12R 4016   1.613   1.236   7.392  0.6389 -0.0325  0.9336
   30SAPC  C213 4017   1.528   1.359   7.539 -0.3712 -0.3248 -0.3389
   30SAPC  H13R 4018   1.483   1.284   7.607  0.9099  1.2510  2.4177
   30SAPC  H13S 4019   1.462   1.448   7.547 -0.7296 -0.5457 -0.7843
   30SAPC  C214 4020   1.662   1.401   7.597  0.4006  0.4255  0.4730
   30SAPC  H14R 4021   1.728   1.462   7.533 -1.0593  0.4353 -1.0809
   30SAPC  C215 4022   1.712   1.354   7.717  0.5914  0.3246  0.4286
   30SAPC  H15R 4023   1.814   1.373   7.750  0.2743 -1.4405  2.6509
   30SAPC  C216 4024   1.633   1.265   7.806 -0.4410  0.3729 -0.4453
   30SAPC  H16R 4025   1.683   1.166   7.800 -1.3648 -0.1592  0.2692
   30SAPC  H16S 4026   1.527   1.241   7.783 -1.3196  2.5417  1.0194
   30SAPC  C217 4027   1.637   1.313   7.956  0.8895 -0.0895  0.2540
   30SAPC  H17R 4028   1.735   1.355   7.988  1.2355  1.6954 -2.8095
   30SAPC  H17S 4029   1.596   1.230   8.017 -4.1539  2.6912  1.1973
   30SAPC  C218 4030   1.527   1.426   7.975 -0.0701 -0.2563  0.4622
   30SAPC  H18R 4031   1.421   1.405   7.946  0.2247  0.9677 -1.7269
   30SAPC  H18S 4032   1.557   1.510   7.909  2.1382 -1.2258  0.1549
   30SAPC  C219 4033   1.511   1.470   8.117 -0.2893  0.1566  0.3007
   30SAPC  H19R 4034   1.486   1.578   8.122 -3.4649 -0.5333  0.9938
   30SAPC  H19S 4035   1.609   1.457   8.168  0.2262 -1.7354 -1.0440
   30SAPC  C220 4036   1.405   1.394   8.199  0.0643  0.1984  0.1292
   30SAPC  H20R 4037   1.306   1.430   8.164  0.0571  0.7608  0.7072
   30SAPC  H20S 4038   1.436   1.405   8.305  2.5646  1.7641 -0.6664
   30SAPC  H20T 4039   1.412   1.285   8.179  1.0773  0.4528 -1.0397
   30SAPC   C33 4040   1.243   2.099   6.878 -0.2231  0.3924  0.8243
   30SAPC   H3X 4041   1.338   2.137   6.923  1.1635  0.1825 -1.7296
   30SAPC   H3Y 4042   1.227   1.992   6.902 -1.0781  0.2668 -0.2265
   30SAPC   C34 4043   1.128   2.164   6.943  0.0510 -0.5794 -0.2011
   30SAPC   H4X 4044   1.031   2.115   6.918 -0.9546  0.9415  0.5401
   30SAPC   H4Y 4045   1.115   2.271   6.916  3.4363 -0.6081 -2.5287
   30SAPC   C35 4046   1.151   2.164   7.097 -0.9871 -0.2082 -0.3559
   30SAPC   H5X 4047   1.246   2.216   7.121  0.3516 -2.3313 -0.8327
   30SAPC   H5Y 4048   1.166   2.058   7.125  2.6476 -0.3219 -2.1486
   30SAPC   C36 4049   1.033   2.234   7.176  0.5624 -0.1353  1.1097
   30SAPC   H6X 4050   0.939   2.180   7.152  1.8721 -2.3781  0.7201
   30SAPC   H6Y 4051   1.036   2.339   7.139  0.4332 -0.9621 -1.3839
   30SAPC   C37 4052   1.043   2.245   7.323  0.3608 -0.8517  0.2216
   30SAPC   H7X 4053   0.965   2.318   7.353 -1.6593 -2.8542  0.1108
   30SAPC   H7Y 4054   1.144   2.281   7.350  0.2498  0.1287 -0.6157
   30SAPC   C38 4055   1.027   2.116   7.408  0.4576 -0.1949  0.8286
   30SAPC   H8X 4056   1.101   2.047   7.362  2.6342  1.8163  1.1346
   30SAPC   H8Y 4057   0.925   2.075   7.397 -0.4717  2.2601 -0.4170
   30SAPC   C39 4058   1.070   2.129   7.560  0.2834  0.1060 -0.7069
   30SAPC   H9X 4059   1.169   2.176   7.577  0.3748 -0.5860  0.9373
   30SAPC   H9Y 4060   1.063   2.023   7.593 -0.6656 -0.3990 -2.4101
   30SAPC  C310 4061   0.963   2.217   7.629  0.5486  0.4543 -0.3159
   30SAPC  H10X 4062   0.859   2.180   7.615 -0.3474  1.8202  2.2095
   30SAPC  H10Y 4063   0.975   2.319   7.587 -0.2656  1.4867  1.8356
   30SAPC  C311 4064   1.002   2.224   7.778 -0.0409  0.0945  0.3433
   30SAPC  H11X 4065   1.109   2.254   7.792  0.9779  0.3193 -5.3773
   30SAPC  H11Y 4066   0.981   2.128   7.828  0.5212  1.1552  2.7790
   30SAPC  C312 4067   0.915   2.320   7.859 -0.1523  0.9423  0.0963
   30SAPC  H12X 4068   0.919   2.309   7.969 -0.6949  0.2181  0.0558
   30SAPC  H12Y 4069   0.812   2.286   7.836  0.1867 -0.0580 -0.0092
   30SAPC  C313 4070   0.917   2.466   7.817 -0.9565 -0.2312  0.4679
   30SAPC  H13X 4071   0.886   2.478   7.711 -1.5423  0.7799  0.7342
   30SAPC  H13Y 4072   1.020   2.507   7.810 -1.0172 -0.1837 -0.2661
   30SAPC  C314 4073   0.845   2.571   7.903 -0.5343  1.0530 -0.6651
   30SAPC  H14X 4074   0.739   2.541   7.920  0.1681 -0.3569  1.7047
   30SAPC  H14Y 4075   0.858   2.674   7.863  0.8992  0.8001 -0.8888
   30SAPC  C315 4076   0.906   2.576   8.042  0.1847 -0.6181 -0.0058
   30SAPC  H15X 4077   0.997   2.639   8.055  1.2833 -2.2290  0.5404
   30SAPC  H15Y 4078   0.932   2.473   8.075 -2.3723 -1.1382  0.5666
   30SAPC  C316 4079   0.801   2.634   8.141 -0.7702 -0.0261  0.8110
   30SAPC  H16X 4080   0.762   2.728   8.097  3.4283  2.3422  1.6079
   30SAPC  H16Y 4081   0.850   2.660   8.237 -1.0964 -1.9575  1.5488
   30SAPC  C317 4082   0.693   2.539   8.186 -0.3892 -0.0338  0.0800
   30SAPC  H17X 4083   0.743   2.455   8.238  1.9175 -0.1056 -2.0627
   30SAPC  H17Y 4084   0.637   2.495   8.101 -2.1513  1.3213  0.4659
   30SAPC  C318 4085   0.596   2.601   8.290  0.0515 -0.1112 -0.9473
   30SAPC  H18X 4086   0.641   2.622   8.389 -0.4662  0.6945 -0.8693
   30SAPC  H18Y 4087   0.517   2.523   8.293  1.6740 -1.7955 -0.9439
   30SAPC  H18Z 4088   0.534   2.691   8.266 -0.2678  0.8708  2.8373
   31SAPC     N 4089   0.667   3.160   6.050  0.2893 -0.5117 -0.0622
   31SAPC   C12 4090   0.701   3.303   5.997 -0.0925 -0.6860 -0.0589
   31SAPC  H12A 4091   0.616   3.353   5.953  0.1675 -0.3961 -0.2437
   31SAPC  H12B 4092   0.763   3.283   5.911 -1.8796  2.3598 -2.2689
   31SAPC   C13 4093   0.568   3.088   5.956 -0.1907 -0.3862  0.6930
   31SAPC  H13A 4094   0.485   3.154   5.937  1.4503  1.4700 -0.4225
   31SAPC  H13B 4095   0.612   3.079   5.858 -3.1444 -0.8694 -0.6759
   31SAPC  H13C 4096   0.542   2.993   5.999 -2.0217 -0.5379 -0.6301
   31SAPC   C14 4097   0.788   3.077   6.064  0.2411  0.4143 -0.0353
   31SAPC  H14A 4098   0.863   3.135   6.117  1.1296 -1.3337  0.7137
   31SAPC  H14B 4099   0.757   2.987   6.115  0.0912  0.0499 -0.7620
   31SAPC  H14C 4100   0.829   3.058   5.966  0.3056  1.4773 -0.2320
   31SAPC   C15 4101   0.601   3.173   6.191 -0.0502 -0.0177  0.4986
   31SAPC  H15A 4102   0.689   3.195   6.249  2.9086  0.3662 -3.6519
   31SAPC  H15B 4103   0.520   3.243   6.174 -1.2635 -1.3603  0.5795
   31SAPC  H15C 4104   0.571   3.078   6.233  3.7842 -1.2653  0.7782
   31SAPC   C11 4105   0.780   3.407   6.083  0.0750  0.2218  0.4086
   31SAPC  H11A 4106   0.736   3.409   6.185  1.2525  1.2723  0.9216
   31SAPC  H11B 4107   0.757   3.502   6.031 -0.3397 -1.2801 -2.3823
   31SAPC     P 4108   1.013   3.374   6.199 -0.3454 -0.5648  0.5646
   31SAPC   O13 4109   0.972   3.480   6.295 -0.2705 -0.0004  0.3937
   31SAPC   O14 4110   1.035   3.235   6.244  0.7172  0.0395 -0.0058
   31SAPC   O12 4111   0.918   3.371   6.082 -0.0488  0.3867  0.5469
   31SAPC   O11 4112   1.145   3.420   6.135  0.6326 -0.5437  0.0572
   31SAPC    C1 4113   1.231   3.533   6.176  0.7938  0.6195 -0.0652
   31SAPC    HA 4114   1.260   3.568   6.074 -0.0006 -1.9834 -1.2697
   31SAPC    HB 4115   1.178   3.614   6.231 -0.7251  0.7257 -1.5817
   31SAPC    C2 4116   1.349   3.470   6.252 -0.0051  0.5568  0.1489
   31SAPC    HS 4117   1.397   3.396   6.185 -0.3942 -0.5617  1.0823
   31SAPC   O21 4118   1.297   3.419   6.376 -0.0503  0.3582  0.2909
   31SAPC   C21 4119   1.342   3.300   6.400 -0.0767 -0.3951 -0.6168
   31SAPC   O22 4120   1.414   3.228   6.339  0.1984  0.5773  0.8313
   31SAPC   C22 4121   1.279   3.260   6.537  0.5519 -0.1314 -0.1021
   31SAPC   H2R 4122   1.260   3.351   6.599 -0.7780  0.0766 -0.7888
   31SAPC   H2S 4123   1.186   3.205   6.511  0.4064 -1.1358  2.2982
   31SAPC    C3 4124   1.456   3.578   6.283 -0.6892  0.1875 -0.4694
   31SAPC    HX 4125   1.400   3.656   6.338 -0.3500 -0.6214  1.1013
   31SAPC    HY 4126   1.491   3.624   6.188  1.3457  0.4159  0.3488
   31SAPC   O31 4127   1.556   3.515   6.359 -0.2225  0.3692  0.1241
   31SAPC   C31 4128   1.631   3.590   6.442 -0.5948  0.7281  0.1790
   31SAPC   O32 4129   1.626   3.712   6.441 -0.7993  0.4975  0.3255
   31SAPC   C32 4130   1.741   3.506   6.504  0.0044  0.0455 -0.1782
   31SAPC   H2X 4131   1.825   3.577   6.518 -1.6178  2.0111  0.0485
   31SAPC   H2Y 4132   1.762   3.429   6.426  1.5405  0.7464 -0.4860
   31SAPC   C23 4133   1.369   3.156   6.607  0.0503 -0.0040 -0.3835
   31SAPC   H3R 4134   1.456   3.216   6.640  2.2546 -2.7323 -0.8822
   31SAPC   H3S 4135   1.393   3.071   6.541 -1.2303 -0.5353 -0.1960
   31SAPC   C24 4136   1.283   3.100   6.723 -0.1636 -0.1025  0.1303
   31SAPC   H4R 4137   1.339   3.017   6.771 -1.0739 -0.9532 -0.2418
   31SAPC   H4S 4138   1.199   3.051   6.667 -0.1003  1.3372 -1.2922
   31SAPC   C25 4139   1.224   3.208   6.807 -0.4625  1.1836  0.3062
   31SAPC   H5R 4140   1.153   3.267   6.748 -2.0154 -0.1608  0.7497
   31SAPC   C26 4141   1.243   3.232   6.939 -0.0833  0.1180 -0.0584
   31SAPC   H6R 4142   1.195   3.320   6.984  1.9860  0.9000  0.7419
   31SAPC   C27 4143   1.348   3.170   7.033  0.1460 -0.1780 -0.0237
   31SAPC   H7R 4144   1.413   3.253   7.067  0.9508 -1.5073  1.8833
   31SAPC   H7S 4145   1.414   3.095   6.984 -0.0446  1.1195 -2.3894
   31SAPC   C28 4146   1.270   3.109   7.151 -0.3867 -0.2787  0.6906
   31SAPC   H8R 4147   1.200   3.033   7.112  0.1856 -0.2598 -0.4231
   31SAPC   C29 4148   1.268   3.152   7.278  0.4842  0.3626 -0.1667
   31SAPC   H9R 4149   1.214   3.097   7.357  0.4035  0.7317  0.0373
   31SAPC  C210 4150   1.340   3.260   7.340 -0.7637 -0.4156  0.1058
   31SAPC  H10R 4151   1.362   3.328   7.255 -1.8450 -0.6672 -0.3906
   31SAPC  H10S 4152   1.435   3.215   7.375 -0.7976 -2.0609 -1.7310
   31SAPC  C211 4153   1.277   3.327   7.459  0.0075 -0.0567  0.5761
   31SAPC  H11R 4154   1.248   3.249   7.531  1.4247 -0.7592  0.4298
   31SAPC  C212 4155   1.229   3.453   7.471  0.4775  0.6951 -0.0627
   31SAPC  H12R 4156   1.178   3.479   7.565 -0.1815 -0.1375 -0.1737
   31SAPC  C213 4157   1.235   3.571   7.372 -0.2005 -0.1012 -0.0975
   31SAPC  H13R 4158   1.161   3.648   7.404 -1.1814 -0.1198 -2.1419
   31SAPC  H13S 4159   1.206   3.539   7.270  0.7945  0.0650 -0.4437
   31SAPC  C214 4160   1.374   3.632   7.373  0.2783  0.3624 -0.3246
   31SAPC  H14R 4161   1.430   3.642   7.468  0.6332  1.6424 -0.6480
   31SAPC  C215 4162   1.432   3.681   7.266 -0.7860 -0.3665  1.0543
   31SAPC  H15R 4163   1.527   3.733   7.287 -1.2474  0.6863  0.6013
   31SAPC  C216 4164   1.387   3.697   7.123 -0.2319 -0.3868  0.0384
   31SAPC  H16R 4165   1.388   3.803   7.092 -0.1736 -0.7672 -1.3134
   31SAPC  H16S 4166   1.281   3.666   7.112  0.8941 -4.1826 -2.0375
   31SAPC  C217 4167   1.461   3.613   7.021  0.1698 -0.5400  0.3701
   31SAPC  H17R 4168   1.436   3.506   7.035 -0.7432 -0.4948 -0.7815
   31SAPC  H17S 4169   1.569   3.629   7.041 -0.5577  0.8555  3.9815
   31SAPC  C218 4170   1.417   3.657   6.880 -0.5413 -0.8636  0.8567
   31SAPC  H18R 4171   1.496   3.619   6.811 -0.5926 -0.8670  0.7992
   31SAPC  H18S 4172   1.436   3.766   6.876 -1.6177 -0.7007 -0.6875
   31SAPC  C219 4173   1.283   3.605   6.839  0.5098  0.5562  0.5344
   31SAPC  H19R 4174   1.205   3.660   6.896  0.2817 -1.0773  1.8513
   31SAPC  H19S 4175   1.266   3.497   6.857 -2.2250  0.6861 -0.7408
   31SAPC  C220 4176   1.274   3.625   6.690 -0.3705 -0.0396 -0.1104
   31SAPC  H20R 4177   1.328   3.554   6.624 -1.8690 -0.3324 -1.0761
   31SAPC  H20S 4178   1.294   3.730   6.659 -2.3302  0.9902  1.8417
   31SAPC  H20T 4179   1.167   3.616   6.663 -0.8414  2.5824  0.6070
   31SAPC   C33 4180   1.692   3.438   6.637  0.7679 -0.2373  0.0485
   31SAPC   H3X 4181   1.589   3.395   6.633  1.2042 -1.3761  0.3687
   31SAPC   H3Y 4182   1.696   3.525   6.705  1.3525  1.6917 -2.3280
   31SAPC   C34 4183   1.784   3.328   6.691  0.1110  0.5347  0.8155
   31SAPC   H4X 4184   1.886   3.372   6.695  0.1236  0.6628 -0.5194
   31SAPC   H4Y 4185   1.787   3.250   6.612 -1.1389  0.9165  0.3830
   31SAPC   C35 4186   1.743   3.258   6.815 -0.1241  0.1972 -0.5644
   31SAPC   H5X 4187   1.805   3.166   6.811 -1.1060 -0.5963  1.5482
   31SAPC   H5Y 4188   1.636   3.232   6.809  0.0555 -0.3361 -2.0405
   31SAPC   C36 4189   1.767   3.356   6.935 -0.4282 -0.0550 -0.5559
   31SAPC   H6X 4190   1.716   3.454   6.929 -1.7784 -0.8244 -2.8158
   31SAPC   H6Y 4191   1.875   3.367   6.959 -0.3134 -1.4261 -0.3392
   31SAPC   C37 4192   1.717   3.302   7.070  0.1506 -0.2731 -0.9805
   31SAPC   H7X 4193   1.758   3.203   7.100  0.3105 -0.1107 -0.6476
   31SAPC   H7Y 4194   1.607   3.290   7.067 -0.2827  1.6385  2.1317
   31SAPC   C38 4195   1.757   3.403   7.182  0.3687  0.0021  0.7950
   31SAPC   H8X 4196   1.722   3.506   7.156 -1.3878 -0.8321 -0.4080
   31SAPC   H8Y 4197   1.866   3.383   7.191  0.0960 -2.5299 -0.5738
   31SAPC   C39 4198   1.686   3.383   7.323  0.6870  0.8086  0.5020
   31SAPC   H9X 4199   1.679   3.276   7.353 -2.4561  0.8838  0.2814
   31SAPC   H9Y 4200   1.582   3.418   7.310 -0.0801 -1.9165 -1.5457
   31SAPC  C310 4201   1.727   3.467   7.442 -0.0889 -0.2745  0.3983
   31SAPC  H10X 4202   1.706   3.574   7.422 -0.9710 -0.7651 -1.5314
   31SAPC  H10Y 4203   1.837   3.453   7.446  0.4261  2.8183 -0.1724
   31SAPC  C311 4204   1.660   3.430   7.573  0.0046  0.1385  0.1743
   31SAPC  H11X 4205   1.716   3.339   7.604  0.0206 -0.0228 -0.3098
   31SAPC  H11Y 4206   1.556   3.395   7.555  0.6525 -1.9976  0.2504
   31SAPC  C312 4207   1.659   3.536   7.679 -0.7550  0.2159  0.0667
   31SAPC  H12X 4208   1.615   3.625   7.630 -0.0624 -1.2708 -3.6111
   31SAPC  H12Y 4209   1.761   3.559   7.716 -1.3008  1.8041  0.6670
   31SAPC  C313 4210   1.555   3.503   7.793 -0.1470 -0.1472 -0.5061
   31SAPC  H13X 4211   1.557   3.392   7.803 -0.2937  0.0209  2.7860
   31SAPC  H13Y 4212   1.456   3.542   7.763 -0.4691  0.0399  0.7288
   31SAPC  C314 4213   1.584   3.559   7.938  0.0851  0.2931 -0.1073
   31SAPC  H14X 4214   1.500   3.515   7.995  1.4876 -0.7238  1.2751
   31SAPC  H14Y 4215   1.568   3.669   7.943 -0.6888  0.1537  1.1074
   31SAPC  C315 4216   1.717   3.515   7.999  0.0291 -0.0325 -0.4405
   31SAPC  H15X 4217   1.797   3.541   7.927 -1.1200 -0.5404 -1.9515
   31SAPC  H15Y 4218   1.717   3.405   8.008  1.1068  0.1141  2.4789
   31SAPC  C316 4219   1.729   3.568   8.148  0.2307 -0.2143  1.1119
   31SAPC  H16X 4220   1.646   3.528   8.210 -1.1076 -0.3806 -0.6958
   31SAPC  H16Y 4221   1.715   3.678   8.148 -0.6349 -0.3121  0.3896
   31SAPC  C317 4222   1.860   3.515   8.213  1.1831  0.7282 -0.0471
   31SAPC  H17X 4223   1.952   3.526   8.151  1.8089 -0.9428  0.5257
   31SAPC  H17Y 4224   1.845   3.405   8.223  1.5721  0.6234 -0.5609
   31SAPC  C318 4225   1.880   3.568   8.351 -0.3133 -0.3124 -0.3141
   31SAPC  H18X 4226   1.796   3.539   8.417 -0.5178  1.5310  0.2899
   31SAPC  H18Y 4227   1.894   3.679   8.352 -0.6708 -0.2699  0.8810
   31SAPC  H18Z 4228   1.973   3.525   8.393 -1.7655 -2.0783  1.2454
   32SAPC     N 4229   4.557   6.097   5.974 -0.9358 -0.2847 -0.7812
   32SAPC   C12 4230   4.533   6.134   6.115  0.1124  0.1870  0.0945
   32SAPC  H12A 4231   4.628   6.154   6.164  0.6273 -2.0959  0.1310
   32SAPC  H12B 4232   4.478   6.059   6.170  1.0725 -0.4214  0.2471
   32SAPC   C13 4233   4.429   6.110   5.895  0.1402 -0.0489 -0.3797
   32SAPC  H13A 4234   4.393   6.210   5.877  0.7535  0.1702 -0.4087
   32SAPC  H13B 4235   4.431   6.056   5.802  0.6022  0.3897 -0.6266
   32SAPC  H13C 4236   4.358   6.051   5.951  1.3098  0.8099  2.2080
   32SAPC   C14 4237   4.664   6.183   5.915 -0.1229 -1.0400  0.1123
   32SAPC  H14A 4238   4.646   6.286   5.943  1.5185 -0.9029  0.7541
   32SAPC  H14B 4239   4.765   6.168   5.951  1.0480  2.7337 -1.0862
   32SAPC  H14C 4240   4.680   6.178   5.808 -1.1538  0.0221 -0.1212
   32SAPC   C15 4241   4.597   5.946   5.964  0.1577  0.5333 -0.0950
   32SAPC  H15A 4242   4.692   5.928   6.012  0.2987  1.2821 -0.0784
   32SAPC  H15B 4243   4.526   5.881   6.012  2.5051 -1.8186  0.4268
   32SAPC  H15C 4244   4.594   5.922   5.859 -0.8303 -1.6563  0.3788
   32SAPC   C11 4245   4.456   6.259   6.148  0.1784 -0.4349 -0.2330
   32SAPC  H11A 4246   4.414   6.264   6.250 -1.4474  2.0746 -0.9553
   32SAPC  H11B 4247   4.367   6.250   6.082  0.9620  2.1437 -1.7460
   32SAPC     P 4248   4.656   6.427   6.191  0.3206  0.0748 -0.0299
   32SAPC   O13 4249   4.757   6.455   6.084 -0.0098 -0.1097  0.3049
   32SAPC   O14 4250   4.605   6.544   6.270 -0.2844  0.0002 -0.4026
   32SAPC   O12 4251   4.524   6.381   6.121  0.0419 -0.2265  0.1354
   32SAPC   O11 4252   4.700   6.306   6.281 -0.3113 -0.2610 -0.1192
   32SAPC    C1 4253   4.779   6.336   6.400 -0.1536  0.5378 -0.1642
   32SAPC    HA 4254   4.880   6.367   6.365  1.2809 -2.1325  1.3345
   32SAPC    HB 4255   4.732   6.417   6.459  2.6635  0.9111  1.7467
   32SAPC    C2 4256   4.782   6.209   6.495 -0.4053 -0.0631  0.7742
   32SAPC    HS 4257   4.692   6.148   6.469  0.8501 -1.7907  0.3351
   32SAPC   O21 4258   4.802   6.253   6.628  0.2630  0.3911  0.0323
   32SAPC   C21 4259   4.700   6.243   6.706 -0.4694 -0.2938 -0.5484
   32SAPC   O22 4260   4.581   6.232   6.673 -0.3283 -0.0295  0.2994
   32SAPC   C22 4261   4.754   6.258   6.844  0.0700  0.4381  0.1974
   32SAPC   H2R 4262   4.811   6.164   6.861 -2.2497 -1.2105 -0.6610
   32SAPC   H2S 4263   4.830   6.340   6.842  0.6758 -0.1055  0.4138
   32SAPC    C3 4264   4.905   6.125   6.452 -0.5185  0.6570  0.0557
   32SAPC    HX 4265   4.997   6.187   6.460  1.1890 -1.7309 -0.1017
   32SAPC    HY 4266   4.898   6.097   6.345  2.0561  0.0032 -0.0274
   32SAPC   O31 4267   4.913   6.012   6.542  0.3671 -0.2586  0.5391
   32SAPC   C31 4268   5.009   6.003   6.624 -0.2149  0.9480  0.2370
   32SAPC   O32 4269   5.083   6.092   6.657  0.0766 -0.1121  0.4595
   32SAPC   C32 4270   5.008   5.858   6.678 -0.1734  0.5280 -0.1025
   32SAPC   H2X 4271   5.069   5.799   6.607 -0.8380  1.0468 -1.1288
   32SAPC   H2Y 4272   4.909   5.808   6.690  1.1588 -1.8455  1.9853
   32SAPC   C23 4273   4.649   6.259   6.954 -0.4818 -0.4594  0.1807
   32SAPC   H3R 4274   4.602   6.159   6.957  1.3686 -1.3465  1.5693
   32SAPC   H3S 4275   4.583   6.346   6.932  1.2829  0.6450 -1.0223
   32SAPC   C24 4276   4.711   6.296   7.092 -0.4679  0.2614 -0.8683
   32SAPC   H4R 4277   4.766   6.391   7.071 -0.5696  0.2226 -1.3117
   32SAPC   H4S 4278   4.789   6.225   7.127 -0.5469 -1.3741 -3.7226
   32SAPC   C25 4279   4.611   6.319   7.204 -0.5309 -0.5979  0.8583
   32SAPC   H5R 4280   4.514   6.357   7.169  0.0621  2.0890  1.8739
   32SAPC   C26 4281   4.623   6.275   7.327  0.0888  0.0579  0.4368
   32SAPC   H6R 4282   4.540   6.290   7.397  1.2899 -0.6421  2.0680
   32SAPC   C27 4283   4.735   6.194   7.389  0.1729 -0.6495  0.3436
   32SAPC   H7R 4284   4.822   6.178   7.322 -0.4837 -0.2662 -0.6177
   32SAPC   H7S 4285   4.700   6.090   7.409 -1.1162 -0.7077 -1.8838
   32SAPC   C28 4286   4.778   6.269   7.519 -0.9036 -0.2493  0.2648
   32SAPC   H8R 4287   4.857   6.344   7.504 -1.4698  0.1087 -1.0610
   32SAPC   C29 4288   4.722   6.249   7.636  0.0818  0.0931  0.2898
   32SAPC   H9R 4289   4.754   6.303   7.726  0.3409 -2.1059  1.5894
   32SAPC  C210 4290   4.607   6.146   7.656  0.7003 -0.7343  0.0858
   32SAPC  H10R 4291   4.660   6.049   7.653  2.3358  0.0899  1.0558
   32SAPC  H10S 4292   4.538   6.158   7.570 -0.4562 -0.7981  0.9862
   32SAPC  C211 4293   4.540   6.180   7.794  0.3604 -0.2213  0.2794
   32SAPC  H11R 4294   4.468   6.262   7.808 -2.5516 -2.9887  3.3720
   32SAPC  C212 4295   4.550   6.103   7.906 -0.5492  0.1238  0.4585
   32SAPC  H12R 4296   4.504   6.146   7.996 -1.6781  3.0935 -1.3933
   32SAPC  C213 4297   4.636   5.979   7.906 -0.3380 -0.5204 -0.3071
   32SAPC  H13R 4298   4.603   5.911   7.824 -2.4471  0.3984 -0.2791
   32SAPC  H13S 4299   4.616   5.915   7.994  0.5821 -0.8678 -0.3397
   32SAPC  C214 4300   4.792   6.001   7.896  1.3503  0.4607 -0.3103
   32SAPC  H14R 4301   4.825   6.017   7.792 -0.3105 -2.9324 -1.4968
   32SAPC  C215 4302   4.880   5.992   7.999 -0.0229 -0.1074 -0.1087
   32SAPC  H15R 4303   4.988   5.996   7.982  0.1173 -0.1538  0.7407
   32SAPC  C216 4304   4.832   5.965   8.137  0.1975  0.5741 -0.0278
   32SAPC  H16R 4305   4.821   5.855   8.149  1.7585  0.5154  1.2386
   32SAPC  H16S 4306   4.736   6.017   8.158  0.6099  0.7709  1.5063
   32SAPC  C217 4307   4.935   6.011   8.234  0.0931 -0.7523 -0.7591
   32SAPC  H17R 4308   4.966   6.117   8.225  0.8941 -0.6702  1.9376
   32SAPC  H17S 4309   5.028   5.950   8.236 -0.9263 -2.3815  1.5692
   32SAPC  C218 4310   4.874   6.017   8.374  0.0524  1.1038  0.4505
   32SAPC  H18R 4311   4.833   5.916   8.395  1.1488  0.7362  0.9065
   32SAPC  H18S 4312   4.777   6.072   8.378 -0.8934 -0.3442 -1.0878
   32SAPC  C219 4313   4.965   6.038   8.495 -0.1025 -1.1316  0.4500
   32SAPC  H19R 4314   4.916   6.027   8.594 -4.1034  2.0249 -0.9538
   32SAPC  H19S 4315   4.994   6.145   8.486 -3.5252 -0.2824 -3.7263
   32SAPC  C220 4316   5.092   5.948   8.503  0.4446 -0.6021 -0.3644
   32SAPC  H20R 4317   5.153   5.984   8.589 -1.5231  0.3218  0.7240
   32SAPC  H20S 4318   5.140   5.941   8.403  0.0981  2.1643 -0.7934
   32SAPC  H20T 4319   5.061   5.842   8.514  0.7402 -0.7175 -0.6444
   32SAPC   C33 4320   5.085   5.836   6.816  1.0003  0.4620 -0.3356
   32SAPC   H3X 4321   5.192   5.863   6.819  1.3822 -1.0215  1.4686
   32SAPC   H3Y 4322   5.072   5.729   6.843 -1.8041  1.0320  1.0399
   32SAPC   C34 4323   5.022   5.914   6.931  0.1961 -0.9792 -0.2644
   32SAPC   H4X 4324   4.911   5.905   6.922 -0.0402  1.5920 -0.8912
   32SAPC   H4Y 4325   5.045   6.022   6.919  0.0894 -1.0720 -1.3438
   32SAPC   C35 4326   5.061   5.861   7.072 -0.1883  0.3188  0.1487
   32SAPC   H5X 4327   5.169   5.835   7.073 -0.2529  0.0050 -0.5117
   32SAPC   H5Y 4328   4.999   5.769   7.071  0.4854 -0.1411 -0.7711
   32SAPC   C36 4329   5.023   5.941   7.203 -0.5552  0.2921  0.9921
   32SAPC   H6X 4330   4.915   5.967   7.203 -0.8938 -1.0332  0.6262
   32SAPC   H6Y 4331   5.091   6.028   7.198 -1.9111  1.3183 -1.2318
   32SAPC   C37 4332   5.047   5.852   7.328 -0.0957 -0.5565  0.9095
   32SAPC   H7X 4333   5.154   5.820   7.332 -1.2251 -4.9028  2.7476
   32SAPC   H7Y 4334   4.985   5.761   7.311 -1.9865  0.8231  0.0598
   32SAPC   C38 4335   4.996   5.930   7.451  0.2545  0.7206 -0.3427
   32SAPC   H8X 4336   4.887   5.923   7.432  0.1462  0.0325  0.5100
   32SAPC   H8Y 4337   5.042   6.031   7.451  0.2580  0.7594  2.0294
   32SAPC   C39 4338   5.017   5.857   7.589  0.1970 -0.1940 -0.0346
   32SAPC   H9X 4339   4.939   5.778   7.597 -1.2873  1.3610  2.8563
   32SAPC   H9Y 4340   4.992   5.934   7.666 -2.3002  0.5401 -1.4616
   32SAPC  C310 4341   5.149   5.784   7.605 -0.1378 -0.0979  0.3567
   32SAPC  H10X 4342   5.226   5.861   7.580 -2.4323  1.6128 -2.0040
   32SAPC  H10Y 4343   5.156   5.706   7.526  0.1532  0.3493 -0.0678
   32SAPC  C311 4344   5.163   5.737   7.749  0.2251 -0.3282 -0.0344
   32SAPC  H11X 4345   5.117   5.808   7.821 -1.2174 -0.0221 -1.1987
   32SAPC  H11Y 4346   5.272   5.724   7.768  0.4831  0.5397 -0.8023
   32SAPC  C312 4347   5.077   5.606   7.771  0.0208  0.5841  0.3457
   32SAPC  H12X 4348   5.111   5.538   7.689 -0.2645  0.0515  0.6605
   32SAPC  H12Y 4349   4.969   5.628   7.759 -0.1410 -0.7681 -1.1220
   32SAPC  C313 4350   5.091   5.539   7.906 -0.1276  0.7973 -0.2636
   32SAPC  H13X 4351   5.197   5.532   7.939 -0.4833  0.0788  0.7700
   32SAPC  H13Y 4352   5.066   5.433   7.886  1.4030  0.4859 -0.6876
   32SAPC  C314 4353   5.011   5.600   8.015 -0.2946  0.7295  0.2962
   32SAPC  H14X 4354   4.905   5.571   7.998 -0.5691  0.6586  2.0385
   32SAPC  H14Y 4355   5.019   5.710   8.024  1.2131  0.5938  0.8614
   32SAPC  C315 4356   5.045   5.550   8.156 -0.0840  0.2035 -0.7920
   32SAPC  H15X 4357   5.155   5.565   8.156 -0.1218  0.4894 -0.3301
   32SAPC  H15Y 4358   5.031   5.440   8.166 -0.0760  0.2582 -0.1486
   32SAPC  C316 4359   4.979   5.626   8.271 -0.1655 -0.1354  0.0135
   32SAPC  H16X 4360   4.870   5.611   8.258 -0.7727  2.4253  1.5067
   32SAPC  H16Y 4361   5.007   5.733   8.273 -1.6338  0.3040 -1.4836
   32SAPC  C317 4362   5.014   5.550   8.401 -0.2121 -0.6276 -0.0775
   32SAPC  H17X 4363   4.999   5.440   8.391  1.1909 -1.0391  1.7225
   32SAPC  H17Y 4364   4.954   5.588   8.486  1.0013  0.3829  0.3634
   32SAPC  C318 4365   5.164   5.565   8.448 -0.5557 -0.1284  0.1273
   32SAPC  H18X 4366   5.232   5.522   8.372  1.0239  1.0671  0.8262
   32SAPC  H18Y 4367   5.187   5.526   8.549  0.3817 -2.1071 -0.7802
   32SAPC  H18Z 4368   5.191   5.672   8.459  0.4454 -0.5837  2.7588
   33POPC     N 4369   0.589   5.152  10.697 -0.8637  0.3212 -0.0855
   33POPC   C12 4370   0.629   5.124  10.553  0.1621  0.1560 -0.7410
   33POPC  H12A 4371   0.548   5.087  10.494  1.3020 -0.4210 -1.9917
   33POPC  H12B 4372   0.714   5.058  10.562  1.0042  1.1573 -1.0915
   33POPC   C13 4373   0.494   5.267  10.707 -0.7649  0.3252  0.5172
   33POPC  H13A 4374   0.399   5.250  10.660 -1.9481  1.5050  2.3532
   33POPC  H13B 4375   0.472   5.295  10.809 -3.0363  3.0829 -0.5665
   33POPC  H13C 4376   0.540   5.354  10.662 -2.8941  1.8631  1.1487
   33POPC   C14 4377   0.531   5.023  10.752  0.3861 -0.0963  0.0990
   33POPC  H14A 4378   0.594   4.936  10.740 -0.5754 -0.7972  0.0463
   33POPC  H14B 4379   0.520   5.039  10.858  1.4354  0.5846  0.1261
   33POPC  H14C 4380   0.436   5.003  10.704  0.2448 -0.4191  0.5084
   33POPC   C15 4381   0.712   5.178  10.778 -0.0859 -0.3641 -0.4406
   33POPC  H15A 4382   0.791   5.110  10.748  0.2639 -1.6069  2.8684
   33POPC  H15B 4383   0.705   5.156  10.883 -0.9322  1.2382 -0.1349
   33POPC  H15C 4384   0.749   5.279  10.774  2.5663 -1.2521 -0.3863
   33POPC   C11 4385   0.676   5.250  10.474  0.5513 -0.3161 -0.5168
   33POPC  H11A 4386   0.593   5.324  10.466  1.7853  1.0940 -0.7875
   33POPC  H11B 4387   0.692   5.205  10.374 -1.6312  0.2884 -1.1835
   33POPC     P 4388   0.932   5.241  10.501 -0.3195 -0.2413  0.3316
   33POPC   O13 4389   0.926   5.104  10.549  0.0635  0.3183 -0.0110
   33POPC   O14 4390   1.029   5.332  10.564 -0.1093 -0.4909  0.0804
   33POPC   O12 4391   0.794   5.310  10.522  0.0638  0.2361 -0.3950
   33POPC   O11 4392   0.960   5.252  10.347  0.4844  0.3423  0.7581
   33POPC    C1 4393   0.929   5.382  10.281 -0.4532 -0.1138  0.0415
   33POPC    HA 4394   0.818   5.385  10.270 -0.3150 -0.7806 -1.9976
   33POPC    HB 4395   0.972   5.462  10.345  2.2918 -1.3825 -0.0717
   33POPC    C2 4396   0.993   5.400  10.146 -0.2603 -0.2644  0.5700
   33POPC    HS 4397   0.954   5.490  10.094 -0.5030 -0.1598  0.9248
   33POPC   O21 4398   0.978   5.275  10.067 -0.4487  0.3345 -0.3303
   33POPC   C21 4399   0.853   5.259  10.020 -0.3251  0.4349  0.3699
   33POPC   O22 4400   0.778   5.355  10.007  0.7255  0.9054 -0.3200
   33POPC   C22 4401   0.821   5.111   9.991 -0.2026  0.6422 -0.4161
   33POPC   H2R 4402   0.722   5.100   9.944 -0.4758 -2.6435  0.6968
   33POPC   H2S 4403   0.834   5.057  10.088  1.6041 -0.5560 -1.2733
   33POPC    C3 4404   1.149   5.425  10.169 -0.4978 -0.3461  0.1477
   33POPC    HX 4405   1.201   5.354  10.236  0.0747 -0.7390 -0.6940
   33POPC    HY 4406   1.162   5.521  10.221  1.9453 -0.8896  0.6414
   33POPC   O31 4407   1.213   5.444  10.042  0.2674 -0.2486 -0.0783
   33POPC   C31 4408   1.247   5.332   9.991  0.6817 -0.6302  0.5890
   33POPC   O32 4409   1.251   5.226  10.048 -0.3672  0.0359 -0.1970
   33POPC   C32 4410   1.286   5.354   9.848 -0.0441 -0.1319 -0.4301
   33POPC   H2X 4411   1.366   5.278   9.837  0.2017  0.2313 -1.2363
   33POPC   H2Y 4412   1.319   5.458   9.827 -0.4487  0.1611  0.3180
   33POPC   C23 4413   0.928   5.044   9.908 -0.0171  0.2173 -0.2315
   33POPC   H3R 4414   1.024   5.031   9.962 -0.4169 -0.7375  0.2781
   33POPC   H3S 4415   0.936   5.095   9.809  2.1652  0.2894 -0.0670
   33POPC   C24 4416   0.894   4.893   9.876  0.5496 -0.7072 -0.5556
   33POPC   H4R 4417   0.791   4.880   9.836  0.8563  1.1602 -2.1569
   33POPC   H4S 4418   0.897   4.839   9.973 -1.8640  0.2826  0.1434
   33POPC   C25 4419   0.990   4.825   9.784  0.3559  0.3049 -0.8950
   33POPC   H5R 4420   0.989   4.716   9.804  0.8404  0.2824 -0.9921
   33POPC   H5S 4421   1.095   4.861   9.797  0.5100 -0.3667 -0.2237
   33POPC   C26 4422   0.952   4.854   9.644  0.1986  0.2020 -0.2425
   33POPC   H6R 4423   0.979   4.957   9.613  0.8605 -0.5362 -2.2757
   33POPC   H6S 4424   0.843   4.831   9.634  0.3406 -0.5120 -0.1517
   33POPC   C27 4425   1.035   4.764   9.545  0.6800  0.2727  0.0638
   33POPC   H7R 4426   1.009   4.657   9.556  1.0936  0.2127  0.5119
   33POPC   H7S 4427   1.134   4.766   9.597  0.1394  0.6759  1.1174
   33POPC   C28 4428   1.045   4.817   9.400 -0.4186  0.9758 -0.7246
   33POPC   H8R 4429   1.099   4.914   9.394 -2.0149  2.0175  0.7772
   33POPC   H8S 4430   0.940   4.834   9.367 -1.5207 -0.9525  1.5643
   33POPC   C29 4431   1.111   4.713   9.311  0.0963 -0.3262 -0.6722
   33POPC   H91 4432   1.218   4.697   9.328  0.3777  0.3724 -1.7050
   33POPC  C210 4433   1.047   4.657   9.207 -0.3407 -0.1342  0.1439
   33POPC  H101 4434   1.096   4.566   9.170  1.8220 -0.1406  2.7075
   33POPC  C211 4435   0.906   4.689   9.153 -0.1561  0.2264  0.2038
   33POPC  H11R 4436   0.832   4.707   9.234 -0.4220  0.6779 -0.1341
   33POPC  H11S 4437   0.856   4.608   9.096 -0.2886  0.1327  0.4509
   33POPC  C212 4438   0.912   4.809   9.061  0.4747 -0.6144 -0.4512
   33POPC  H12R 4439   0.981   4.802   8.974 -0.2474 -2.1838 -0.9357
   33POPC  H12S 4440   0.950   4.892   9.124  1.3906 -1.4227  0.0812
   33POPC  C213 4441   0.762   4.848   9.026 -1.6094 -0.1138 -0.5425
   33POPC  H13R 4442   0.771   4.946   8.974 -0.2854 -0.6226 -1.3116
   33POPC  H13S 4443   0.705   4.875   9.118  0.0864  0.4741  0.3655
   33POPC  C214 4444   0.690   4.745   8.948  0.1206 -0.2917 -0.3896
   33POPC  H14R 4445   0.666   4.664   9.019  1.2366  1.0327  1.5908
   33POPC  H14S 4446   0.769   4.705   8.881 -0.0875 -2.1040  0.3842
   33POPC  C215 4447   0.586   4.799   8.853  0.0511  0.1956 -0.5094
   33POPC  H15R 4448   0.630   4.875   8.787 -1.6273  0.9859 -0.7681
   33POPC  H15S 4449   0.517   4.854   8.921 -1.1805 -1.0106 -0.7174
   33POPC  C216 4450   0.513   4.694   8.766 -0.0896 -0.1502 -0.4242
   33POPC  H16R 4451   0.588   4.630   8.715  0.0782 -1.3155  1.1813
   33POPC  H16S 4452   0.457   4.757   8.694  0.0608 -0.0410 -0.4458
   33POPC  C217 4453   0.415   4.595   8.851  0.1640  0.3030  0.6954
   33POPC  H17R 4454   0.477   4.519   8.904  1.9106  0.6906 -0.7096
   33POPC  H17S 4455   0.361   4.534   8.776  1.1679  0.4367 -0.1584
   33POPC  C218 4456   0.331   4.666   8.957 -0.0911 -0.0133 -0.0950
   33POPC  H18R 4457   0.270   4.745   8.909  0.8267  1.8517  1.6288
   33POPC  H18S 4458   0.388   4.723   9.034  2.4761 -0.1228 -1.8011
   33POPC  H18T 4459   0.257   4.604   9.012  1.6494 -1.4363  0.7714
   33POPC   C33 4460   1.167   5.307   9.760 -0.2578  0.3681  0.1436
   33POPC   H3X 4461   1.082   5.372   9.789  0.1713  1.2811 -0.5699
   33POPC   H3Y 4462   1.130   5.205   9.783  2.9553 -0.5421  1.9923
   33POPC   C34 4463   1.202   5.298   9.605 -0.7111  0.3526  0.3347
   33POPC   H4X 4464   1.101   5.300   9.561  0.4144  0.5116 -2.4096
   33POPC   H4Y 4465   1.245   5.199   9.579 -2.4730 -0.0633 -1.1990
   33POPC   C35 4466   1.273   5.421   9.548  0.4981 -0.5282  0.2734
   33POPC   H5X 4467   1.362   5.425   9.614  0.1690 -3.0153  0.9807
   33POPC   H5Y 4468   1.209   5.508   9.574  1.7761  0.3495  0.5561
   33POPC   C36 4469   1.320   5.418   9.403  0.1581 -0.0295 -0.0042
   33POPC   H6X 4470   1.394   5.337   9.383  1.4092  0.8307  1.0124
   33POPC   H6Y 4471   1.376   5.512   9.386 -1.6259  1.4373  1.8384
   33POPC   C37 4472   1.214   5.399   9.294 -0.4799 -0.4822  0.4310
   33POPC   H7X 4473   1.153   5.492   9.300  1.3136  0.7357  0.4636
   33POPC   H7Y 4474   1.144   5.317   9.321 -0.2920 -0.4437  1.0302
   33POPC   C38 4475   1.265   5.371   9.154 -0.3971 -0.0435 -0.0064
   33POPC   H8X 4476   1.190   5.361   9.073  1.5186 -0.4625 -1.7802
   33POPC   H8Y 4477   1.329   5.280   9.152  1.0344  0.9573 -0.8821
   33POPC   C39 4478   1.355   5.484   9.112 -0.0267  0.7072  0.6939
   33POPC   H9X 4479   1.454   5.472   9.161  0.9454 -0.6315 -1.4536
   33POPC   H9Y 4480   1.309   5.577   9.151 -0.7853 -0.4648  2.7897
   33POPC  C310 4481   1.372   5.499   8.955  0.5056 -0.9747  0.6831
   33POPC  H10X 4482   1.432   5.592   8.945 -1.4632  0.2440 -0.7199
   33POPC  H10Y 4483   1.274   5.531   8.912  1.0834 -0.1423 -0.0538
   33POPC  C311 4484   1.440   5.378   8.892 -0.2639 -0.7872  0.7852
   33POPC  H11X 4485   1.361   5.306   8.864  1.8976 -2.2200 -2.2451
   33POPC  H11Y 4486   1.502   5.324   8.967 -1.0870 -2.8415  0.0502
   33POPC  C312 4487   1.514   5.413   8.766 -0.4966 -0.1506 -0.0807
   33POPC  H12X 4488   1.573   5.501   8.799 -0.5305  0.2252 -0.9953
   33POPC  H12Y 4489   1.436   5.438   8.691  0.0380  3.2380  0.3511
   33POPC  C313 4490   1.614   5.313   8.705 -0.4476  0.3198 -0.2035
   33POPC  H13X 4491   1.712   5.335   8.754 -0.9352  0.5919  0.6794
   33POPC  H13Y 4492   1.627   5.359   8.605 -1.1773  0.9612 -0.0177
   33POPC  C314 4493   1.566   5.166   8.679 -0.2066  0.4486 -0.4188
   33POPC  H14X 4494   1.478   5.179   8.612  0.0141 -0.9116 -0.9956
   33POPC  H14Y 4495   1.531   5.132   8.778 -2.4966 -0.4586 -1.4536
   33POPC  C315 4496   1.671   5.077   8.602  0.5657 -0.2447 -0.3120
   33POPC  H15X 4497   1.770   5.095   8.649  0.9371  2.6509 -1.9401
   33POPC  H15Y 4498   1.670   5.107   8.494 -0.7151  0.0143 -0.2494
   33POPC  C316 4499   1.632   4.930   8.609  0.9405  0.4215 -0.4810
   33POPC  H16X 4500   1.694   4.869   8.540 -2.7845 -1.6416 -2.3032
   33POPC  H16Y 4501   1.528   4.915   8.573  0.2290  2.5250  0.5064
   33POPC  H16Z 4502   1.657   4.892   8.710  0.4309  2.9078  0.6617
   34POPC     N 4503   0.422   0.349  10.454  0.2789 -0.1258 -0.2668
   34POPC   C12 4504   0.342   0.222  10.486 -0.2598 -0.5422 -0.1141
   34POPC  H12A 4505   0.348   0.147  10.409 -2.9441  0.7310 -1.7343
   34POPC  H12B 4506   0.238   0.251  10.489  0.0412  0.6218 -0.2042
   34POPC   C13 4507   0.393   0.446  10.561 -0.0875  0.8083 -0.7542
   34POPC  H13A 4508   0.292   0.482  10.556 -0.4311 -0.0289 -0.0027
   34POPC  H13B 4509   0.416   0.402  10.657 -0.9041  0.8571 -0.5321
   34POPC  H13C 4510   0.456   0.534  10.556 -1.4810  1.8075 -1.3684
   34POPC   C14 4511   0.564   0.310  10.444 -0.7648 -1.0946  0.2869
   34POPC  H14A 4512   0.573   0.220  10.383 -0.4991  0.2237 -1.7262
   34POPC  H14B 4513   0.630   0.389  10.412  0.0898 -2.0310 -0.3449
   34POPC  H14C 4514   0.604   0.291  10.542  0.0840  0.5770  0.2936
   34POPC   C15 4515   0.373   0.410  10.326  0.2566 -0.7765  0.8333
   34POPC  H15A 4516   0.265   0.411  10.320  0.2724  1.3422 -0.2646
   34POPC  H15B 4517   0.423   0.359  10.245  0.4497  0.0012  0.4540
   34POPC  H15C 4518   0.402   0.514  10.323 -0.8101 -0.4510  1.3440
   34POPC   C11 4519   0.379   0.154  10.622 -0.4344  0.1990  0.1315
   34POPC  H11A 4520   0.304   0.077  10.650  0.2399  0.2248  2.1809
   34POPC  H11B 4521   0.377   0.230  10.703  1.4946  0.6149 -0.1602
   34POPC     P 4522   0.558  -0.050  10.609  0.1818 -0.1765  0.1302
   34POPC   O13 4523   0.496  -0.122  10.726 -0.0812 -0.0021  0.5136
   34POPC   O14 4524   0.708  -0.054  10.607  0.3775 -0.4135 -0.7256
   34POPC   O12 4525   0.516   0.096  10.620  0.5233  0.3608  0.5123
   34POPC   O11 4526   0.491  -0.091  10.468 -0.2629 -0.3108 -0.3560
   34POPC    C1 4527   0.413  -0.210  10.454 -0.5453 -0.4052  0.1688
   34POPC    HA 4528   0.360  -0.191  10.359  1.6961 -1.9443 -1.4995
   34POPC    HB 4529   0.337  -0.213  10.535 -0.3051  1.5025  0.5075
   34POPC    C2 4530   0.494  -0.336  10.430 -0.1352  0.1782  0.0616
   34POPC    HS 4531   0.575  -0.331  10.506  0.1813  3.0496 -0.3366
   34POPC   O21 4532   0.559  -0.328  10.304  0.3100  0.2271 -0.0215
   34POPC   C21 4533   0.674  -0.387  10.288  0.8217  0.2001  0.4988
   34POPC   O22 4534   0.742  -0.431  10.379  0.1837  0.1990 -0.1907
   34POPC   C22 4535   0.705  -0.389  10.146 -0.2465  0.1981  0.8613
   34POPC   H2R 4536   0.815  -0.401  10.135 -0.5883 -1.2800 -1.8676
   34POPC   H2S 4537   0.688  -0.285  10.111  1.0532 -0.2427 -1.2461
   34POPC    C3 4538   0.407  -0.464  10.451  0.3635  0.1917  0.4217
   34POPC    HX 4539   0.384  -0.461  10.560  0.2277 -0.4632  0.4136
   34POPC    HY 4540   0.472  -0.553  10.440 -0.1739 -0.2351  0.6755
   34POPC   O31 4541   0.286  -0.476  10.368  0.8270 -0.0598 -0.5713
   34POPC   C31 4542   0.241  -0.601  10.344  0.0412  0.0269 -0.5256
   34POPC   O32 4543   0.289  -0.703  10.384 -0.4839 -0.2586 -0.2830
   34POPC   C32 4544   0.107  -0.593  10.269 -0.6151  0.7428  0.2438
   34POPC   H2X 4545   0.100  -0.497  10.214 -1.1911 -0.2272 -1.4418
   34POPC   H2Y 4546   0.036  -0.609  10.354 -1.9790 -1.0121 -1.1596
   34POPC   C23 4547   0.631  -0.492  10.064 -1.0152 -0.1044  0.5032
   34POPC   H3R 4548   0.524  -0.481  10.090 -0.4969  2.9636  1.7519
   34POPC   H3S 4549   0.669  -0.589  10.103  0.2287  0.3760  0.5390
   34POPC   C24 4550   0.654  -0.479   9.911 -0.7461  0.0771 -0.3316
   34POPC   H4R 4551   0.763  -0.466   9.896 -0.4464 -0.7965  0.8547
   34POPC   H4S 4552   0.601  -0.388   9.876 -1.9679 -0.8663 -1.0199
   34POPC   C25 4553   0.620  -0.604   9.835  0.8980  0.6284  1.1192
   34POPC   H5R 4554   0.513  -0.631   9.827  0.0809  3.5814  1.1125
   34POPC   H5S 4555   0.669  -0.695   9.876  0.8452 -0.4165 -1.0119
   34POPC   C26 4556   0.670  -0.588   9.691  0.0465 -0.2887 -0.2995
   34POPC   H6R 4557   0.779  -0.565   9.694 -0.2012  0.8608  1.2480
   34POPC   H6S 4558   0.622  -0.499   9.645  3.6511  1.1145 -1.7624
   34POPC   C27 4559   0.649  -0.711   9.607  0.1911  0.3694  0.4662
   34POPC   H7R 4560   0.542  -0.740   9.615  0.4137 -0.0967  1.9932
   34POPC   H7S 4561   0.714  -0.791   9.649  0.2565 -0.7196 -1.5603
   34POPC   C28 4562   0.693  -0.675   9.460  0.0862 -0.1470 -0.2051
   34POPC   H8R 4563   0.731  -0.762   9.401 -0.7091  0.2197 -1.2967
   34POPC   H8S 4564   0.788  -0.618   9.462  0.7680 -1.2557  1.1246
   34POPC   C29 4565   0.590  -0.608   9.373  0.6383 -0.1556  0.7422
   34POPC   H91 4566   0.570  -0.512   9.423 -1.9818  0.2253 -0.8503
   34POPC  C210 4567   0.515  -0.648   9.264  0.1357  0.2620  0.2930
   34POPC  H101 4568   0.444  -0.576   9.222 -0.5661  0.1258  1.2089
   34POPC  C211 4569   0.530  -0.787   9.198 -0.3283 -0.6668 -0.3261
   34POPC  H11R 4570   0.436  -0.843   9.218 -0.1526 -1.8163 -2.4459
   34POPC  H11S 4571   0.612  -0.844   9.245 -0.7255 -1.9233 -1.1179
   34POPC  C212 4572   0.567  -0.774   9.047  0.6198  0.3612  0.0960
   34POPC  H12R 4573   0.602  -0.875   9.016  2.4253  0.6603  1.0323
   34POPC  H12S 4574   0.661  -0.716   9.034  0.7648  0.0832 -0.0929
   34POPC  C213 4575   0.445  -0.726   8.961  0.3107 -0.4136  0.3575
   34POPC  H13R 4576   0.445  -0.616   8.949  0.5993 -0.5331 -0.9731
   34POPC  H13S 4577   0.343  -0.746   9.000 -0.3923  0.0932 -1.1322
   34POPC  C214 4578   0.449  -0.805   8.826  0.1961  0.3614 -0.0133
   34POPC  H14R 4579   0.355  -0.787   8.771  0.0534  2.4601  0.8285
   34POPC  H14S 4580   0.454  -0.915   8.838  0.3323  0.0930 -2.1763
   34POPC  C215 4581   0.566  -0.777   8.732 -0.6516  0.6988  0.8426
   34POPC  H15R 4582   0.662  -0.792   8.786  0.5160 -0.9221 -1.5130
   34POPC  H15S 4583   0.568  -0.669   8.707 -1.4169  0.7207  0.8371
   34POPC  C216 4584   0.560  -0.858   8.601 -0.4945  0.0095  0.4474
   34POPC  H16R 4585   0.458  -0.841   8.560 -0.8250  0.1632  1.3123
   34POPC  H16S 4586   0.573  -0.968   8.606 -1.4269 -0.2209 -1.2535
   34POPC  C217 4587   0.656  -0.815   8.492 -0.8129  0.0001  0.7624
   34POPC  H17R 4588   0.662  -0.705   8.478 -2.5957 -0.0666 -0.8693
   34POPC  H17S 4589   0.619  -0.857   8.396  0.2664  0.6770  0.0165
   34POPC  C218 4590   0.794  -0.883   8.501 -0.0767  0.7555  0.2941
   34POPC  H18R 4591   0.867  -0.841   8.429 -0.2159 -1.2080 -1.0736
   34POPC  H18S 4592   0.778  -0.987   8.466 -1.8319  0.2561  2.3565
   34POPC  H18T 4593   0.831  -0.889   8.606  2.0811 -2.6062 -0.5201
   34POPC   C33 4594   0.089  -0.709  10.169  0.5374 -0.1621  0.0507
   34POPC   H3X 4595  -0.015  -0.714  10.128 -0.0571 -2.1635  1.5939
   34POPC   H3Y 4596   0.092  -0.801  10.231  0.1868 -1.4093 -1.6963
   34POPC   C34 4597   0.178  -0.700  10.051 -0.5174  0.1194 -0.7871
   34POPC   H4X 4598   0.284  -0.711  10.082 -0.7548  2.4771  1.2115
   34POPC   H4Y 4599   0.158  -0.596  10.016  0.8243  0.5340 -0.3929
   34POPC   C35 4600   0.134  -0.798   9.946  0.7125  0.6169 -0.6046
   34POPC   H5X 4601   0.029  -0.791   9.912  0.6214 -0.6289 -0.6229
   34POPC   H5Y 4602   0.138  -0.895  10.000 -2.9818  1.2451  1.1047
   34POPC   C36 4603   0.224  -0.793   9.825 -0.5791 -0.5633  0.2336
   34POPC   H6X 4604   0.331  -0.816   9.848  0.3568  2.4683 -0.6166
   34POPC   H6Y 4605   0.228  -0.684   9.805  1.0013 -0.3961  1.2581
   34POPC   C37 4606   0.167  -0.895   9.729 -0.7154  0.0280  0.5808
   34POPC   H7X 4607   0.062  -0.884   9.696 -0.0887 -2.5151 -2.8705
   34POPC   H7Y 4608   0.177  -0.998   9.769  1.1080 -1.7030 -3.6456
   34POPC   C38 4609   0.237  -0.910   9.590  0.0544 -0.8883 -0.5854
   34POPC   H8X 4610   0.337  -0.958   9.596  0.3412 -0.1778  0.5398
   34POPC   H8Y 4611   0.245  -0.809   9.546 -1.9876  0.0764  1.0666
   34POPC   C39 4612   0.153  -0.995   9.499  0.2383 -0.2441  0.5996
   34POPC   H9X 4613   0.054  -0.947   9.481  0.0512 -1.0538 -0.6113
   34POPC   H9Y 4614   0.132  -1.091   9.551  2.2604 -0.5096  0.9961
   34POPC  C310 4615   0.218  -1.026   9.363  0.1131  0.1037  0.5037
   34POPC  H10X 4616   0.318  -1.075   9.370  0.5282  0.8906  0.2051
   34POPC  H10Y 4617   0.222  -0.936   9.298 -1.7865 -0.1377 -0.0155
   34POPC  C311 4618   0.133  -1.126   9.281 -0.0684 -0.0949 -0.0860
   34POPC  H11X 4619   0.103  -1.208   9.350  0.3770 -0.3034 -0.1389
   34POPC  H11Y 4620   0.200  -1.176   9.207 -1.4877 -1.1468 -0.7116
   34POPC  C312 4621  -0.006  -1.071   9.233 -0.5793  0.2178  0.1772
   34POPC  H12X 4622   0.014  -1.004   9.147  2.7692 -2.5296 -1.4429
   34POPC  H12Y 4623  -0.051  -1.019   9.321  1.6485  1.7052  0.5248
   34POPC  C313 4624  -0.101  -1.188   9.196 -0.3414 -0.0532 -0.4596
   34POPC  H13X 4625  -0.200  -1.150   9.162 -0.0770  1.2737  0.1935
   34POPC  H13Y 4626  -0.113  -1.244   9.291  0.4470  1.5481  0.6294
   34POPC  C314 4627  -0.033  -1.272   9.094 -0.2469  0.3493 -0.0031
   34POPC  H14X 4628   0.048  -1.333   9.139 -0.5322  2.0280  3.0645
   34POPC  H14Y 4629   0.022  -1.200   9.030  1.7935 -0.0560  1.2074
   34POPC  C315 4630  -0.131  -1.353   9.010  0.0085  0.3646  0.3076
   34POPC  H15X 4631  -0.233  -1.311   8.999 -0.8146 -2.0961 -3.8971
   34POPC  H15Y 4632  -0.150  -1.452   9.058  1.7669  0.6486  1.6922
   34POPC  C316 4633  -0.075  -1.374   8.871 -0.3391 -0.0372  0.5423
   34POPC  H16X 4634  -0.135  -1.452   8.821  2.6960 -2.1319 -0.1244
   34POPC  H16Y 4635   0.031  -1.404   8.885 -0.1630  1.0524  1.7717
   34POPC  H16Z 4636  -0.079  -1.276   8.818  0.6645 -0.0381  0.4403
   35POPC     N 4637   5.440   3.717  11.062 -0.2090 -0.1624 -0.0897
   35POPC   C12 4638   5.338   3.821  11.118  0.0458 -0.4441  0.1926
   35POPC  H12A 4639   5.328   3.799  11.223 -0.1471 -0.2439  0.2176
   35POPC  H12B 4640   5.245   3.802  11.066 -0.2585 -1.7747  1.1658
   35POPC   C13 4641   5.406   3.580  11.111 -0.2235 -0.3788  0.4309
   35POPC  H13A 4642   5.319   3.554  11.051 -0.1724  3.3819 -1.6174
   35POPC  H13B 4643   5.484   3.509  11.089 -0.5285 -0.4434 -0.5150
   35POPC  H13C 4644   5.385   3.579  11.216 -0.3257  0.6817  0.4348
   35POPC   C14 4645   5.440   3.713  10.912  0.3167 -0.0860 -0.0492
   35POPC  H14A 4646   5.511   3.639  10.875  1.2955  1.4207 -1.3261
   35POPC  H14B 4647   5.341   3.688  10.876  0.3879  0.1918 -0.4462
   35POPC  H14C 4648   5.457   3.809  10.866 -0.7782  0.0947 -0.0966
   35POPC   C15 4649   5.574   3.765  11.104 -0.2737  0.1635  0.4906
   35POPC  H15A 4650   5.659   3.711  11.065 -0.9981 -0.7461  0.1343
   35POPC  H15B 4651   5.574   3.753  11.211  1.8613 -1.2041  0.3844
   35POPC  H15C 4652   5.585   3.871  11.085 -2.4737  0.3080 -0.2940
   35POPC   C11 4653   5.371   3.978  11.111  0.0967  0.5096 -0.3659
   35POPC  H11A 4654   5.453   3.998  11.183  1.3178 -0.3685 -1.4730
   35POPC  H11B 4655   5.278   4.023  11.152 -0.8742 -1.4690 -0.2796
   35POPC     P 4656   5.512   4.129  10.957 -0.3733  0.3673  0.6027
   35POPC   O13 4657   5.619   4.108  11.057  0.0379 -0.2918  0.4846
   35POPC   O14 4658   5.458   4.268  10.949  0.3239  0.2034  0.2255
   35POPC   O12 4659   5.392   4.021  10.976  0.1353 -0.5170  0.1499
   35POPC   O11 4660   5.565   4.083  10.811 -0.2593 -0.2642  0.7700
   35POPC    C1 4661   5.471   4.091  10.702 -0.9221  0.0582  0.1016
   35POPC    HA 4662   5.451   4.196  10.675 -0.6431 -0.1608 -0.9794
   35POPC    HB 4663   5.382   4.026  10.717 -0.7366  0.0300  1.2190
   35POPC    C2 4664   5.546   4.034  10.573 -0.3153  1.1119  0.1338
   35POPC    HS 4665   5.597   3.939  10.595 -1.2162 -0.0237 -2.2960
   35POPC   O21 4666   5.640   4.131  10.529  0.0831 -0.2170  0.3029
   35POPC   C21 4667   5.738   4.079  10.454  0.5180  0.7729  0.0465
   35POPC   O22 4668   5.753   3.958  10.442 -0.2421  0.5324  0.3988
   35POPC   C22 4669   5.827   4.187  10.397  0.0487  0.1177 -0.0560
   35POPC   H2R 4670   5.919   4.203  10.458  2.0370 -0.6413 -2.6968
   35POPC   H2S 4671   5.764   4.279  10.389  2.2597  2.1482  3.1185
   35POPC    C3 4672   5.454   3.986  10.460  0.6605 -0.1496 -0.3212
   35POPC    HX 4673   5.399   3.900  10.504 -1.5078  0.7403 -1.1601
   35POPC    HY 4674   5.490   3.934  10.369 -0.2697  0.7120 -1.2164
   35POPC   O31 4675   5.355   4.087  10.415 -0.5290  0.3701  0.6177
   35POPC   C31 4676   5.394   4.164  10.312  0.1223 -0.0382 -0.4215
   35POPC   O32 4677   5.508   4.180  10.270 -0.5490  0.3806 -0.1667
   35POPC   C32 4678   5.272   4.231  10.248  0.1813  0.4251  0.3618
   35POPC   H2X 4679   5.292   4.340  10.245 -0.6592  0.5944  0.6076
   35POPC   H2Y 4680   5.185   4.216  10.317 -1.3870  0.7123 -1.4598
   35POPC   C23 4681   5.862   4.139  10.249 -0.2658 -0.0214 -0.0859
   35POPC   H3R 4682   5.764   4.128  10.198 -0.2984  1.1549 -0.3196
   35POPC   H3S 4683   5.914   4.041  10.247  1.3367  0.7261  1.6590
   35POPC   C24 4684   5.939   4.249  10.177 -0.0700 -0.1393 -0.0659
   35POPC   H4R 4685   6.039   4.279  10.216 -0.1330  1.4376 -1.0243
   35POPC   H4S 4686   5.884   4.345  10.165  3.0242  1.5620 -2.2199
   35POPC   C25 4687   5.980   4.207  10.032  0.5984 -1.3531  0.0797
   35POPC   H5R 4688   6.057   4.128  10.042 -0.2201 -2.0433  1.1728
   35POPC   H5S 4689   6.037   4.294   9.993  0.7379 -0.6808  1.6841
   35POPC   C26 4690   5.864   4.166   9.944  0.1000 -0.0627 -0.6409
   35POPC   H6R 4691   5.796   4.253   9.932  0.3051  0.1254 -0.4424
   35POPC   H6S 4692   5.818   4.071   9.980  1.7951  0.0532  2.1205
   35POPC   C27 4693   5.921   4.146   9.795  0.1171  0.1642  0.0235
   35POPC   H7R 4694   5.828   4.119   9.741 -1.1299  3.3229  0.3656
   35POPC   H7S 4695   5.991   4.060   9.800  0.7377  0.6165 -0.6663
   35POPC   C28 4696   5.982   4.262   9.716  0.2148 -0.3422  0.1590
   35POPC   H8R 4697   6.065   4.306   9.776  1.7096 -1.5735 -0.9186
   35POPC   H8S 4698   5.913   4.345   9.689  0.6402 -0.8620 -2.8818
   35POPC   C29 4699   6.037   4.218   9.581  0.0346  0.6754  0.4983
   35POPC   H91 4700   6.140   4.182   9.585  0.0051  0.5553  0.1679
   35POPC  C210 4701   5.976   4.218   9.461  0.2546 -0.3246  0.5427
   35POPC  H101 4702   6.032   4.193   9.369 -0.1469 -2.8140  0.9019
   35POPC  C211 4703   5.833   4.265   9.433 -0.2952  0.7504 -0.5489
   35POPC  H11R 4704   5.803   4.332   9.517 -0.0953 -1.8184  1.6857
   35POPC  H11S 4705   5.758   4.184   9.439 -0.2574  0.7698  0.3477
   35POPC  C212 4706   5.808   4.344   9.304 -0.0235 -1.4100  0.1443
   35POPC  H12R 4707   5.883   4.426   9.301  0.4350 -1.8323  0.0239
   35POPC  H12S 4708   5.710   4.396   9.304  2.0096  2.8391 -0.3351
   35POPC  C213 4709   5.819   4.258   9.176  0.0054  0.2757  0.7828
   35POPC  H13R 4710   5.765   4.161   9.180  1.2923 -0.4109  3.1418
   35POPC  H13S 4711   5.923   4.221   9.165 -1.0675 -2.1127 -3.1784
   35POPC  C214 4712   5.798   4.339   9.045  0.4019  0.0588 -0.2785
   35POPC  H14R 4713   5.858   4.432   9.042  3.2743 -1.6987 -2.2911
   35POPC  H14S 4714   5.691   4.369   9.039  0.6473  1.4524  1.3748
   35POPC  C215 4715   5.832   4.262   8.920 -0.0521 -0.3948 -0.4034
   35POPC  H15R 4716   5.766   4.174   8.900 -2.4528  1.0870  0.5414
   35POPC  H15S 4717   5.934   4.221   8.934  0.4282  1.5118  2.5565
   35POPC  C216 4718   5.840   4.363   8.792 -0.4335 -0.1300 -0.7405
   35POPC  H16R 4719   5.878   4.303   8.707 -0.7959 -0.2491 -0.8203
   35POPC  H16S 4720   5.918   4.440   8.809 -0.0657 -0.2023 -2.0345
   35POPC  C217 4721   5.702   4.413   8.740 -0.6555 -0.3557 -0.4691
   35POPC  H17R 4722   5.724   4.510   8.691 -1.7644  0.9371  1.4409
   35POPC  H17S 4723   5.639   4.421   8.832  0.4846 -0.6614  0.3681
   35POPC  C218 4724   5.639   4.325   8.633  0.2308 -1.1357 -0.0102
   35POPC  H18R 4725   5.555   4.373   8.577  1.2328  0.6272 -0.0723
   35POPC  H18S 4726   5.610   4.223   8.667  0.6546 -0.8764  1.1555
   35POPC  H18T 4727   5.718   4.310   8.556 -0.3728 -1.3354 -0.6071
   35POPC   C33 4728   5.243   4.177  10.105  0.1062  0.1372 -0.6001
   35POPC   H3X 4729   5.201   4.075  10.118 -2.8594  1.3439  0.2999
   35POPC   H3Y 4730   5.340   4.168  10.053 -0.8068 -2.2037 -2.0571
   35POPC   C34 4731   5.140   4.270  10.048  0.2674  0.3234 -0.1772
   35POPC   H4X 4732   5.180   4.373  10.050  2.4638 -0.4605 -1.1927
   35POPC   H4Y 4733   5.041   4.273  10.099  0.6204 -0.4269  0.5813
   35POPC   C35 4734   5.121   4.262   9.896 -0.1499  0.4434  0.5218
   35POPC   H5X 4735   5.215   4.298   9.851 -1.0289  2.0444 -0.1031
   35POPC   H5Y 4736   5.050   4.341   9.862  0.5212  0.7286 -0.2331
   35POPC   C36 4737   5.072   4.129   9.850 -0.0587 -0.2297 -0.2739
   35POPC   H6X 4738   4.979   4.100   9.904 -0.6836  1.8220 -0.1672
   35POPC   H6Y 4739   5.149   4.051   9.869  0.6476  0.5143 -0.0096
   35POPC   C37 4740   5.042   4.129   9.695  0.4384  0.1351 -0.8614
   35POPC   H7X 4741   5.140   4.136   9.643  1.1589  0.9636  0.5512
   35POPC   H7Y 4742   4.981   4.219   9.671 -0.8170 -0.3166  0.5156
   35POPC   C38 4743   4.981   4.005   9.641 -0.3574 -0.0503  0.0747
   35POPC   H8X 4744   4.872   4.008   9.663  0.0472 -0.8220  2.5627
   35POPC   H8Y 4745   5.014   3.914   9.696 -1.5454  0.2989  1.4321
   35POPC   C39 4746   4.993   3.997   9.490 -0.1979 -0.3516  0.2663
   35POPC   H9X 4747   5.092   4.020   9.445 -0.1585  1.5685  1.2275
   35POPC   H9Y 4748   4.937   4.086   9.453  0.2613 -0.4304 -0.6505
   35POPC  C310 4749   4.939   3.872   9.429  0.5521  0.0511  0.4823
   35POPC  H10X 4750   4.837   3.846   9.464  0.3561  0.7084  0.4041
   35POPC  H10Y 4751   5.006   3.787   9.456  0.1524 -0.2094  0.6752
   35POPC  C311 4752   4.955   3.879   9.274  0.7388 -0.4194 -0.2608
   35POPC  H11X 4753   5.058   3.907   9.243  0.1095  2.0000 -0.3914
   35POPC  H11Y 4754   4.896   3.962   9.228  1.7436  0.6686  0.3602
   35POPC  C312 4755   4.914   3.759   9.197  0.7546  0.2849  0.7851
   35POPC  H12X 4756   4.806   3.738   9.186  1.3100 -1.6621 -2.5964
   35POPC  H12Y 4757   4.954   3.669   9.248 -2.2241 -0.5933  1.7509
   35POPC  C313 4758   4.976   3.750   9.045 -0.1647 -0.4534  0.2564
   35POPC  H13X 4759   5.086   3.741   9.049 -0.2107 -1.3771 -0.0986
   35POPC  H13Y 4760   4.937   3.838   8.990 -0.8284 -0.1760  1.1298
   35POPC  C314 4761   4.921   3.619   8.982 -0.4358 -0.3692 -0.2311
   35POPC  H14X 4762   4.811   3.626   8.978 -0.4224  1.3212  1.0650
   35POPC  H14Y 4763   4.943   3.533   9.049 -0.6784  0.1012  0.4611
   35POPC  C315 4764   4.972   3.596   8.842 -0.3991  0.1269  0.3752
   35POPC  H15X 4765   5.077   3.560   8.848 -0.2930  0.5769  1.5368
   35POPC  H15Y 4766   4.988   3.693   8.790  0.2554 -1.1036 -1.8297
   35POPC  C316 4767   4.878   3.523   8.748 -0.0438  0.2673  0.6226
   35POPC  H16X 4768   4.915   3.527   8.643  1.8706  0.0175  1.2501
   35POPC  H16Y 4769   4.778   3.571   8.750 -0.5410 -0.6957 -0.2756
   35POPC  H16Z 4770   4.870   3.414   8.769  0.1071 -0.6309 -3.2389
   36POPC     N 4771   5.985   1.941  11.032 -0.4811  0.1268 -0.0188
   36POPC   C12 4772   5.880   2.041  10.969  0.0032  0.0092  0.1567
   36POPC  H12A 4773   5.870   2.127  11.035  1.7371  0.2763  0.1020
   36POPC  H12B 4774   5.780   2.002  10.979 -0.2610  0.3124 -1.1608
   36POPC   C13 4775   5.974   1.809  10.964  0.0059 -0.0174  0.4413
   36POPC  H13A 4776   5.873   1.772  10.963 -0.0168  0.0498 -0.0591
   36POPC  H13B 4777   6.003   1.824  10.861 -0.9206 -1.6291 -0.0900
   36POPC  H13C 4778   6.036   1.729  11.002 -0.3933 -1.7097 -2.2355
   36POPC   C14 4779   6.122   1.991  11.011  0.4122  0.1357 -0.5690
   36POPC  H14A 4780   6.117   2.071  10.939 -0.4429  1.0171  0.4368
   36POPC  H14B 4781   6.153   2.049  11.097 -1.3606 -0.9800  0.9270
   36POPC  H14C 4782   6.193   1.910  11.000  0.4921 -0.1286  1.4885
   36POPC   C15 4783   5.952   1.921  11.178 -0.5292  0.1298 -0.6020
   36POPC  H15A 4784   6.008   1.841  11.225  0.3327  0.5419 -0.8978
   36POPC  H15B 4785   5.852   1.880  11.181 -0.8821  0.9918 -0.5119
   36POPC  H15C 4786   5.959   2.011  11.237 -0.4771 -0.6167  0.5711
   36POPC   C11 4787   5.905   2.087  10.822  0.2044 -0.8134 -0.5624
   36POPC  H11A 4788   5.813   2.129  10.776  0.7864  0.4717 -0.6000
   36POPC  H11B 4789   5.921   1.991  10.768  0.0443 -0.6406 -0.9232
   36POPC     P 4790   6.034   2.309  10.893 -0.3035 -0.1607  0.2484
   36POPC   O13 4791   6.173   2.306  10.947 -0.3225  0.3987 -0.4481
   36POPC   O14 4792   5.919   2.315  10.990  0.0309 -0.9612  0.3986
   36POPC   O12 4793   6.016   2.179  10.805  0.2704  0.5874 -0.1303
   36POPC   O11 4794   6.013   2.433  10.794  0.2391  0.2874  0.4167
   36POPC    C1 4795   6.039   2.406  10.654 -0.4155  0.0411 -0.4242
   36POPC    HA 4796   5.951   2.357  10.607 -3.4156  3.4650  1.1724
   36POPC    HB 4797   6.142   2.368  10.639  0.3310  1.3444  1.0842
   36POPC    C2 4798   6.024   2.534  10.563 -0.7308 -0.6599 -0.4733
   36POPC    HS 4799   6.099   2.601  10.610  0.5177 -2.4378  0.2088
   36POPC   O21 4800   5.890   2.580  10.569 -0.2989  0.1817  1.4649
   36POPC   C21 4801   5.869   2.709  10.536 -0.3425  0.7311 -0.6950
   36POPC   O22 4802   5.959   2.788  10.517  0.4761  0.1570  0.5520
   36POPC   C22 4803   5.710   2.744  10.526 -0.2391 -0.5207  0.2431
   36POPC   H2R 4804   5.679   2.798  10.617 -1.5100  1.4059 -1.2568
   36POPC   H2S 4805   5.655   2.648  10.516  0.2662 -0.7506 -0.4373
   36POPC    C3 4806   6.073   2.509  10.422  0.6332 -0.6869 -0.6614
   36POPC    HX 4807   6.174   2.463  10.432  0.7413  0.0209  2.9474
   36POPC    HY 4808   6.078   2.604  10.364 -3.3871  0.1344  0.0231
   36POPC   O31 4809   5.987   2.409  10.353  0.0674  0.0591 -0.5278
   36POPC   C31 4810   5.903   2.453  10.269 -0.4040 -0.0169 -0.3972
   36POPC   O32 4811   5.881   2.566  10.236 -0.5999 -0.4439 -0.3871
   36POPC   C32 4812   5.821   2.329  10.218 -0.3020 -0.0838  0.3429
   36POPC   H2X 4813   5.741   2.360  10.148 -0.3661 -1.4064 -0.2129
   36POPC   H2Y 4814   5.780   2.273  10.304 -0.3951 -1.6885 -0.6828
   36POPC   C23 4815   5.676   2.846  10.417 -0.0683 -0.6410 -0.1849
   36POPC   H3R 4816   5.677   2.791  10.320  0.5733 -2.1180  0.6087
   36POPC   H3S 4817   5.759   2.918  10.401 -0.4331 -0.0902  0.3733
   36POPC   C24 4818   5.551   2.941  10.435 -0.4265  0.3439  0.2594
   36POPC   H4R 4819   5.574   3.022  10.508 -0.2234  1.0750 -0.6054
   36POPC   H4S 4820   5.478   2.872  10.482  0.6739 -1.0544 -0.0129
   36POPC   C25 4821   5.484   2.995  10.309  0.2821 -0.0682  0.6378
   36POPC   H5R 4822   5.374   2.974  10.311  0.2030  0.0900  4.4494
   36POPC   H5S 4823   5.528   2.936  10.225 -1.7613 -1.6623  0.6001
   36POPC   C26 4824   5.509   3.140  10.285 -0.3869  0.5241 -0.0027
   36POPC   H6R 4825   5.489   3.204  10.374  1.9335 -1.4346  2.0645
   36POPC   H6S 4826   5.436   3.176  10.209  0.6389  0.5886 -0.9868
   36POPC   C27 4827   5.653   3.159  10.231 -0.3462  0.2766  0.1392
   36POPC   H7R 4828   5.675   3.083  10.153  2.5038  0.1770  0.9278
   36POPC   H7S 4829   5.721   3.132  10.315  1.7172  1.4657 -1.0457
   36POPC   C28 4830   5.676   3.303  10.179 -0.5627  0.3567 -0.1061
   36POPC   H8R 4831   5.648   3.381  10.254 -0.4578 -0.3583  0.6956
   36POPC   H8S 4832   5.616   3.324  10.088 -1.2545 -1.2279 -0.0412
   36POPC   C29 4833   5.826   3.317  10.159  0.6375  0.0307 -0.4054
   36POPC   H91 4834   5.875   3.344  10.254 -1.3179 -3.6510  1.8994
   36POPC  C210 4835   5.885   3.330  10.039 -0.5455  0.8668  0.0405
   36POPC  H101 4836   5.990   3.359  10.026 -0.4000 -0.5576 -2.7471
   36POPC  C211 4837   5.823   3.326   9.907  0.0537  0.6562  0.4275
   36POPC  H11R 4838   5.786   3.427   9.878 -1.4635 -0.9050 -3.8112
   36POPC  H11S 4839   5.738   3.255   9.906  1.4848 -1.1270  0.4552
   36POPC  C212 4840   5.923   3.287   9.792 -0.0648 -0.1067  0.7651
   36POPC  H12R 4841   5.970   3.191   9.824 -2.5972 -1.6279  0.2287
   36POPC  H12S 4842   5.999   3.367   9.783 -1.3319  1.0139 -0.1667
   36POPC  C213 4843   5.855   3.262   9.659 -0.4975  0.5459 -0.1617
   36POPC  H13R 4844   5.786   3.343   9.628 -3.4210 -1.7024  0.0497
   36POPC  H13S 4845   5.786   3.175   9.664 -0.8612  0.7164 -1.7664
   36POPC  C214 4846   5.947   3.228   9.549 -0.5774  0.8440  0.4077
   36POPC  H14R 4847   6.004   3.137   9.580 -2.3993 -0.9218 -1.0948
   36POPC  H14S 4848   6.017   3.314   9.547  0.3019  0.1554 -2.3388
   36POPC  C215 4849   5.890   3.208   9.411 -0.0677 -0.0512 -0.4455
   36POPC  H15R 4850   5.797   3.150   9.431  1.5898 -2.6058  0.3488
   36POPC  H15S 4851   5.961   3.159   9.341  2.4199  1.3980  0.8948
   36POPC  C216 4852   5.865   3.342   9.344 -0.0096  0.4379  0.4962
   36POPC  H16R 4853   5.960   3.399   9.344  0.5429 -0.3705 -2.1133
   36POPC  H16S 4854   5.783   3.389   9.403 -1.7101 -0.9413 -0.6755
   36POPC  C217 4855   5.819   3.343   9.197 -0.2327  0.0664 -0.2907
   36POPC  H17R 4856   5.782   3.445   9.175 -0.7850  0.0978  0.7353
   36POPC  H17S 4857   5.738   3.267   9.193  0.0399 -0.2015 -1.3777
   36POPC  C218 4858   5.928   3.313   9.087  0.8993  0.0787 -0.0624
   36POPC  H18R 4859   5.874   3.293   8.992 -2.1327  1.9293  1.1143
   36POPC  H18S 4860   6.002   3.237   9.120 -0.0470 -0.6323  0.4832
   36POPC  H18T 4861   5.978   3.411   9.075  0.4945  0.5728  1.8986
   36POPC   C33 4862   5.925   2.238  10.153  0.1790  0.1279  0.8868
   36POPC   H3X 4863   5.887   2.133  10.147 -0.4795  0.3825  0.4782
   36POPC   H3Y 4864   6.016   2.221  10.214 -0.8689 -0.5772  2.3362
   36POPC   C34 4865   5.963   2.289  10.010 -0.4184 -0.3153 -0.0640
   36POPC   H4X 4866   5.957   2.400  10.003 -1.2501 -0.4469 -2.3978
   36POPC   H4Y 4867   5.881   2.256   9.942  0.7000  0.1261 -1.6863
   36POPC   C35 4868   6.090   2.238   9.955 -0.1011 -0.2421 -0.5968
   36POPC   H5X 4869   6.091   2.130   9.982  0.8197  0.0020  0.3811
   36POPC   H5Y 4870   6.166   2.264  10.031 -0.0897 -1.8149 -0.0320
   36POPC   C36 4871   6.116   2.268   9.814 -0.4698  0.0352  0.4318
   36POPC   H6X 4872   6.156   2.370   9.799  0.0650 -0.1682  0.4480
   36POPC   H6Y 4873   6.019   2.251   9.764  0.2679  1.2688 -1.5007
   36POPC   C37 4874   6.216   2.179   9.737 -0.3685 -0.3062  0.3044
   36POPC   H7X 4875   6.191   2.071   9.727  0.2025 -0.5455  1.2927
   36POPC   H7Y 4876   6.308   2.191   9.798 -0.6079 -1.0271  0.8221
   36POPC   C38 4877   6.248   2.235   9.591 -0.2315 -0.4330  0.2794
   36POPC   H8X 4878   6.295   2.335   9.601 -1.3501  0.0945  0.3967
   36POPC   H8Y 4879   6.153   2.232   9.534  0.6946 -2.2667 -1.3065
   36POPC   C39 4880   6.348   2.152   9.509  0.5173 -0.4731  0.7676
   36POPC   H9X 4881   6.441   2.137   9.569  0.1701  2.1288  2.0929
   36POPC   H9Y 4882   6.382   2.201   9.415 -1.2034  0.0336  0.3699
   36POPC  C310 4883   6.296   2.028   9.445 -0.4536  0.0955  0.3646
   36POPC  H10X 4884   6.238   2.049   9.353 -0.6154 -0.4360  0.3407
   36POPC  H10Y 4885   6.220   1.974   9.506 -3.5085  1.1798 -2.2040
   36POPC  C311 4886   6.409   1.934   9.406 -1.0457  0.0622  0.4652
   36POPC  H11X 4887   6.454   1.896   9.501 -0.6467 -1.4632 -0.2973
   36POPC  H11Y 4888   6.482   2.004   9.360 -0.9725 -1.6420 -2.2745
   36POPC  C312 4889   6.375   1.828   9.300 -0.2169  0.3199 -0.1069
   36POPC  H12X 4890   6.358   1.879   9.202 -1.7665  0.3204  0.1399
   36POPC  H12Y 4891   6.279   1.776   9.319 -0.9340  1.4304 -0.5382
   36POPC  C313 4892   6.490   1.726   9.282  0.1865 -0.4427  0.3019
   36POPC  H13X 4893   6.526   1.683   9.378  0.9665  1.0990  0.7306
   36POPC  H13Y 4894   6.574   1.789   9.244  1.1646 -0.5858  2.0928
   36POPC  C314 4895   6.446   1.604   9.202 -0.5748 -0.2154  0.0458
   36POPC  H14X 4896   6.542   1.558   9.171 -1.3112 -2.9865  1.5376
   36POPC  H14Y 4897   6.388   1.634   9.112 -0.6037  1.1963  0.5028
   36POPC  C315 4898   6.364   1.502   9.283 -0.1499  0.2022 -0.1970
   36POPC  H15X 4899   6.265   1.543   9.312 -0.1480 -1.0846  1.7984
   36POPC  H15Y 4900   6.433   1.476   9.366 -1.3332  0.5220  0.9216
   36POPC  C316 4901   6.338   1.370   9.205 -1.1059  0.0499  0.0874
   36POPC  H16X 4902   6.290   1.294   9.270  1.8068 -1.8606  0.2027
   36POPC  H16Y 4903   6.429   1.331   9.154 -2.0902 -0.7405 -1.0964
   36POPC  H16Z 4904   6.267   1.394   9.122 -1.7463 -1.4165  0.1875
   37POPC     N 4905   0.215   4.772   6.567  0.0123  0.1638  0.2979
   37POPC   C12 4906   0.080   4.739   6.515  0.0763  0.0960 -0.1093
   37POPC  H12A 4907   0.091   4.695   6.417  2.5491  2.4146 -0.9694
   37POPC  H12B 4908   0.025   4.831   6.501 -1.1535 -0.6821 -0.5671
   37POPC   C13 4909   0.297   4.648   6.598 -1.0191  0.0732 -0.3948
   37POPC  H13A 4910   0.264   4.600   6.689 -0.4840  2.6361  1.2854
   37POPC  H13B 4911   0.279   4.575   6.521 -1.3616  1.0258 -1.2425
   37POPC  H13C 4912   0.401   4.672   6.613 -0.6456 -2.2583  1.3851
   37POPC   C14 4913   0.290   4.849   6.463  0.3646 -0.3427  0.1479
   37POPC  H14A 4914   0.316   4.783   6.381  2.6881  1.2205 -0.4970
   37POPC  H14B 4915   0.229   4.931   6.431 -2.1707 -2.4845 -0.8920
   37POPC  H14C 4916   0.383   4.895   6.493  1.2857 -1.3869 -0.9901
   37POPC   C15 4917   0.187   4.848   6.699 -0.1160 -0.5574  0.8045
   37POPC  H15A 4918   0.274   4.891   6.747 -0.0063  3.1057 -2.1347
   37POPC  H15B 4919   0.144   4.784   6.774  0.7696 -0.9616  0.9738
   37POPC  H15C 4920   0.133   4.940   6.677  0.0318 -0.3793  1.1728
   37POPC   C11 4921  -0.009   4.635   6.582 -0.1000  0.3322  0.6253
   37POPC  H11A 4922  -0.107   4.639   6.530  0.4896 -0.9563 -0.6358
   37POPC  H11B 4923  -0.024   4.671   6.686  1.1805 -0.1893  1.0086
   37POPC     P 4924  -0.019   4.392   6.677  0.1487  0.2990 -0.3403
   37POPC   O13 4925   0.029   4.256   6.636 -0.1936  0.3476 -0.0971
   37POPC   O14 4926  -0.164   4.411   6.684 -0.2856 -0.0778  0.1734
   37POPC   O12 4927   0.043   4.502   6.576  0.0267 -0.7039  0.0264
   37POPC   O11 4928   0.042   4.412   6.814 -0.1595  0.1624  0.4863
   37POPC    C1 4929   0.181   4.389   6.852  0.1179 -0.5075  0.1011
   37POPC    HA 4930   0.256   4.438   6.787  1.2353  0.0052  1.7292
   37POPC    HB 4931   0.212   4.285   6.828  0.3334  0.1832 -3.0052
   37POPC    C2 4932   0.212   4.404   7.006  0.5781 -0.2219  0.1000
   37POPC    HS 4933   0.179   4.502   7.047  0.5780 -0.1118 -0.1624
   37POPC   O21 4934   0.355   4.385   7.026 -0.7025 -0.0087  0.4020
   37POPC   C21 4935   0.424   4.498   6.975  0.1421 -0.2334  0.0196
   37POPC   O22 4936   0.365   4.608   6.963  0.4583 -0.0828 -0.1976
   37POPC   C22 4937   0.572   4.472   6.957  0.3278  0.4680 -0.3242
   37POPC   H2R 4938   0.602   4.492   6.852 -2.7033 -1.1864 -1.6118
   37POPC   H2S 4939   0.581   4.363   6.975  4.7646  1.0975  3.0219
   37POPC    C3 4940   0.141   4.291   7.088 -0.6662  0.5759 -0.1457
   37POPC    HX 4941   0.184   4.190   7.073  0.9893  1.1413  0.4952
   37POPC    HY 4942   0.036   4.294   7.050 -0.4008  1.4075 -0.8455
   37POPC   O31 4943   0.144   4.321   7.226  0.1609  0.3716 -0.0672
   37POPC   C31 4944   0.116   4.214   7.296 -0.3903 -0.4460 -0.3944
   37POPC   O32 4945   0.080   4.103   7.252  0.4174  0.2513  0.1292
   37POPC   C32 4946   0.124   4.239   7.445 -0.1695  0.1849  0.4688
   37POPC   H2X 4947   0.025   4.289   7.451 -1.3623 -1.5932 -2.3740
   37POPC   H2Y 4948   0.216   4.300   7.463 -0.6806  0.9596  0.5377
   37POPC   C23 4949   0.660   4.540   7.065 -0.3210  0.0025 -0.4826
   37POPC   H3R 4950   0.649   4.650   7.073  0.6990  0.0025  1.4237
   37POPC   H3S 4951   0.766   4.522   7.035  0.4595  2.3738  0.5773
   37POPC   C24 4952   0.626   4.482   7.206  0.4867  0.4902 -0.2081
   37POPC   H4R 4953   0.621   4.373   7.189 -0.8132  0.7015 -1.4198
   37POPC   H4S 4954   0.524   4.513   7.239 -0.0526 -0.6609 -0.7510
   37POPC   C25 4955   0.732   4.515   7.310 -0.2570  0.5761 -0.2108
   37POPC   H5R 4956   0.741   4.625   7.306 -1.3902  0.7581  1.2588
   37POPC   H5S 4957   0.834   4.475   7.291 -0.7028 -0.7147  0.0211
   37POPC   C26 4958   0.691   4.468   7.455  0.5385  0.0196  0.6340
   37POPC   H6R 4959   0.691   4.357   7.451  0.2091  0.0554 -1.5563
   37POPC   H6S 4960   0.591   4.511   7.477  1.2923  2.2759 -0.0059
   37POPC   C27 4961   0.791   4.513   7.563 -0.4754 -0.5309  0.5271
   37POPC   H7R 4962   0.814   4.620   7.544  0.4723 -0.9566 -0.8227
   37POPC   H7S 4963   0.890   4.468   7.539  0.1588 -0.0761  2.1139
   37POPC   C28 4964   0.760   4.486   7.700 -0.1656 -0.2609  0.2720
   37POPC   H8R 4965   0.737   4.377   7.705 -2.2060  0.1240  0.3379
   37POPC   H8S 4966   0.665   4.533   7.732  1.0252  0.9743  2.1894
   37POPC   C29 4967   0.864   4.521   7.805 -0.1873  0.2273 -0.1533
   37POPC   H91 4968   0.872   4.629   7.825  1.4019  0.4862 -1.9390
   37POPC  C210 4969   0.942   4.426   7.866  0.2005  0.3769  0.4278
   37POPC  H101 4970   1.014   4.458   7.943  1.3047 -0.8818 -0.0452
   37POPC  C211 4971   0.940   4.283   7.841 -0.1263 -0.1375 -0.3735
   37POPC  H11R 4972   1.037   4.229   7.844  1.6764  2.8886 -0.7654
   37POPC  H11S 4973   0.896   4.254   7.743 -1.1516  1.2684 -0.3554
   37POPC  C212 4974   0.850   4.204   7.944 -0.3129 -0.9372  0.3141
   37POPC  H12R 4975   0.825   4.111   7.890 -2.8128 -0.2979  0.2422
   37POPC  H12S 4976   0.765   4.276   7.953 -0.5686 -0.8919 -1.9054
   37POPC  C213 4977   0.924   4.170   8.075 -0.8106  0.0525 -0.4786
   37POPC  H13R 4978   0.974   4.264   8.106  1.0753 -1.3131  0.8361
   37POPC  H13S 4979   0.998   4.092   8.046 -1.5198 -0.2284 -1.5873
   37POPC  C214 4980   0.822   4.130   8.188 -0.4530  0.8094  0.9707
   37POPC  H14R 4981   0.775   4.031   8.168  2.7083 -0.3551 -1.8611
   37POPC  H14S 4982   0.731   4.192   8.181 -1.3874 -0.7144 -1.5000
   37POPC  C215 4983   0.877   4.160   8.329 -0.3483 -0.9062 -0.2477
   37POPC  H15R 4984   0.791   4.144   8.397 -0.3364 -1.1169 -0.2812
   37POPC  H15S 4985   0.903   4.268   8.319  2.6076 -1.5902 -1.1098
   37POPC  C216 4986   1.001   4.077   8.379  0.5382  0.2870  0.1635
   37POPC  H16R 4987   0.988   3.974   8.341 -1.4629 -0.8038  3.3679
   37POPC  H16S 4988   0.995   4.087   8.490 -1.4798 -1.3729  0.2660
   37POPC  C217 4989   1.139   4.132   8.333 -1.0273  0.5138 -0.3115
   37POPC  H17R 4990   1.152   4.159   8.226 -1.3001 -0.3068 -0.5565
   37POPC  H17S 4991   1.199   4.044   8.363  0.3044  1.2601 -0.7152
   37POPC  C218 4992   1.193   4.255   8.408 -0.4198 -0.3663 -0.1715
   37POPC  H18R 4993   1.298   4.268   8.374 -0.8482  1.1904 -0.9870
   37POPC  H18S 4994   1.188   4.253   8.519 -0.5105 -1.6522 -0.1845
   37POPC  H18T 4995   1.125   4.337   8.376 -2.7822 -2.0879  0.1959
   37POPC   C33 4996   0.121   4.111   7.527 -0.6523 -0.2658  0.8379
   37POPC   H3X 4997   0.214   4.051   7.515 -0.2584  0.2935  1.0830
   37POPC   H3Y 4998   0.035   4.048   7.495 -1.9630  1.6798  0.3588
   37POPC   C34 4999   0.090   4.134   7.678 -0.9552  0.2816 -0.8059
   37POPC   H4X 5000  -0.008   4.177   7.709 -1.6100 -2.7192  1.8202
   37POPC   H4Y 5001   0.171   4.195   7.723  0.3698 -0.4880 -2.0602
   37POPC   C35 5002   0.099   3.990   7.739 -0.2133  0.3547 -0.2666
   37POPC   H5X 5003   0.208   3.972   7.753  0.6021  1.7631 -3.7417
   37POPC   H5Y 5004   0.064   3.923   7.658  0.1395 -0.8433  0.5497
   37POPC   C36 5005   0.027   3.974   7.875  0.6107 -0.4204 -0.3120
   37POPC   H6X 5006   0.042   3.872   7.917  0.0634 -0.8384 -1.0979
   37POPC   H6Y 5007  -0.084   3.978   7.866  0.6169  0.4641 -0.0350
   37POPC   C37 5008   0.066   4.080   7.983  0.2168 -0.5230 -0.0659
   37POPC   H7X 5009   0.017   4.175   7.953 -0.7840 -0.4488  1.6558
   37POPC   H7Y 5010   0.176   4.086   7.966 -0.1139  0.1270 -2.3002
   37POPC   C38 5011   0.028   4.039   8.125  1.0786 -0.7269  0.2305
   37POPC   H8X 5012   0.051   3.931   8.133 -1.5657 -1.4351 -0.5143
   37POPC   H8Y 5013  -0.083   4.044   8.126  1.0122 -1.8274 -0.1270
   37POPC   C39 5014   0.083   4.114   8.238  0.6730 -1.2171 -0.3465
   37POPC   H9X 5015   0.066   4.065   8.336 -0.3805  0.5417  0.3877
   37POPC   H9Y 5016   0.026   4.209   8.247  3.7060  0.6375  0.7096
   37POPC  C310 5017   0.233   4.140   8.224 -0.2094  0.0383 -0.1902
   37POPC  H10X 5018   0.254   4.207   8.138  0.5057 -0.7717 -0.6687
   37POPC  H10Y 5019   0.279   4.041   8.201 -0.0055 -0.2955  1.5190
   37POPC  C311 5020   0.297   4.201   8.351 -0.5073  0.5842  0.0450
   37POPC  H11X 5021   0.265   4.129   8.430  0.3509 -2.0527 -1.8473
   37POPC  H11Y 5022   0.252   4.299   8.378 -0.1182  0.9740 -0.7014
   37POPC  C312 5023   0.450   4.187   8.347  0.6551 -0.2821  1.1305
   37POPC  H12X 5024   0.493   4.182   8.245  1.3689 -1.5566  1.4779
   37POPC  H12Y 5025   0.467   4.085   8.388  1.0319  0.0611  1.8447
   37POPC  C313 5026   0.516   4.293   8.434  0.6049  0.7653  0.1162
   37POPC  H13X 5027   0.622   4.263   8.451  0.0239 -1.9484 -0.6224
   37POPC  H13Y 5028   0.461   4.300   8.530  1.4435 -0.1976  0.6837
   37POPC  C314 5029   0.509   4.444   8.393 -0.3825 -0.6748 -0.3178
   37POPC  H14X 5030   0.524   4.502   8.486 -1.9560  1.1335 -1.1249
   37POPC  H14Y 5031   0.412   4.471   8.347  0.4153  0.4410 -1.4100
   37POPC  C315 5032   0.618   4.473   8.290  0.4805  0.2202  0.2208
   37POPC  H15X 5033   0.574   4.448   8.191  1.2239 -0.0970 -0.0380
   37POPC  H15Y 5034   0.704   4.409   8.318  1.0269  1.1582  0.7309
   37POPC  C316 5035   0.668   4.620   8.284  0.3504  0.6068 -0.0613
   37POPC  H16X 5036   0.583   4.689   8.263 -1.5786 -1.5486  0.2421
   37POPC  H16Y 5037   0.752   4.630   8.212  1.2240  1.6974  1.0639
   37POPC  H16Z 5038   0.712   4.650   8.381 -0.7289 -1.2944  1.0902
   38POPC     N 5039   5.565   1.762   6.189 -0.1402 -0.0448 -0.8269
   38POPC   C12 5040   5.494   1.690   6.299 -0.6295  0.3612  0.1147
   38POPC  H12A 5041   5.435   1.618   6.244 -1.5845  2.0841 -1.2160
   38POPC  H12B 5042   5.430   1.760   6.351 -1.3045  2.3604 -3.1406
   38POPC   C13 5043   5.463   1.846   6.124  0.7247  0.2780  0.6602
   38POPC  H13A 5044   5.516   1.909   6.055 -0.7761 -0.5755 -1.3638
   38POPC  H13B 5045   5.398   1.790   6.058 -0.3829  2.5219 -0.2521
   38POPC  H13C 5046   5.401   1.893   6.199 -0.1765  1.6874 -0.9013
   38POPC   C14 5047   5.659   1.867   6.245 -0.1826 -0.5291  0.2331
   38POPC  H14A 5048   5.737   1.894   6.175 -1.0150  0.6189 -0.2810
   38POPC  H14B 5049   5.605   1.958   6.269 -0.6605 -0.6601 -0.3331
   38POPC  H14C 5050   5.710   1.832   6.334  0.2334  1.2256  0.7129
   38POPC   C15 5051   5.633   1.674   6.095 -0.0194 -0.0647  0.1553
   38POPC  H15A 5052   5.671   1.738   6.016  1.5338 -0.5425  0.4835
   38POPC  H15B 5053   5.569   1.599   6.051 -1.2094  0.9581  0.0747
   38POPC  H15C 5054   5.719   1.630   6.143 -1.6373 -1.6749  1.7154
   38POPC   C11 5055   5.574   1.611   6.405 -0.3235  0.3379 -0.6326
   38POPC  H11A 5056   5.512   1.574   6.489  1.9300  0.9740  1.4373
   38POPC  H11B 5057   5.638   1.683   6.461  0.5191  1.4923 -2.9261
   38POPC     P 5058   5.788   1.476   6.354 -0.6392 -0.0025  0.0775
   38POPC   O13 5059   5.860   1.576   6.270  0.0383 -0.2898 -0.0871
   38POPC   O14 5060   5.805   1.333   6.320  0.1318  0.3614  0.5232
   38POPC   O12 5061   5.631   1.502   6.339 -0.5487  0.3748  0.1649
   38POPC   O11 5062   5.829   1.490   6.510  0.0208 -0.2646  0.0402
   38POPC    C1 5063   5.786   1.396   6.605  0.4574 -0.0964 -0.8780
   38POPC    HA 5064   5.775   1.295   6.562 -1.6203 -0.3999  0.2546
   38POPC    HB 5065   5.691   1.434   6.648  1.9970  1.5649  1.2619
   38POPC    C2 5066   5.881   1.383   6.731  0.2530 -0.0118 -0.3379
   38POPC    HS 5067   5.825   1.323   6.806  0.7854  0.4763  0.4624
   38POPC   O21 5068   5.922   1.514   6.780 -0.0470  0.0526  0.4809
   38POPC   C21 5069   5.836   1.578   6.854 -0.1407  0.3949 -0.1160
   38POPC   O22 5070   5.718   1.562   6.871  1.0725  0.6123  0.0528
   38POPC   C22 5071   5.914   1.697   6.908 -0.0072  0.6361 -0.7483
   38POPC   H2R 5072   5.844   1.783   6.916  1.8347  2.1051  0.4550
   38POPC   H2S 5073   5.993   1.725   6.835 -1.3541 -1.5696 -3.2390
   38POPC    C3 5074   6.001   1.290   6.697  0.1198 -0.0904  0.1523
   38POPC    HX 5075   6.035   1.319   6.596 -2.5356 -1.5325 -1.2686
   38POPC    HY 5076   5.967   1.185   6.690  0.9367 -0.2883 -1.0309
   38POPC   O31 5077   6.110   1.309   6.793  0.1033 -0.1162 -0.0345
   38POPC   C31 5078   6.115   1.231   6.900 -0.1822  0.3456  0.0088
   38POPC   O32 5079   6.052   1.130   6.915 -0.5967 -0.2132  0.4827
   38POPC   C32 5080   6.207   1.309   6.998  0.1339 -0.2110 -0.4302
   38POPC   H2X 5081   6.235   1.408   6.955 -0.3440 -0.3608 -1.0991
   38POPC   H2Y 5082   6.304   1.257   7.016  1.9316  3.2794  1.1893
   38POPC   C23 5083   5.971   1.676   7.050  0.3154 -0.4074  0.1004
   38POPC   H3R 5084   6.017   1.775   7.073 -1.1916 -0.1598  2.4182
   38POPC   H3S 5085   6.055   1.604   7.047  1.5774  1.0553 -0.9986
   38POPC   C24 5086   5.859   1.637   7.148 -0.2692 -0.3719 -0.1828
   38POPC   H4R 5087   5.832   1.530   7.131  1.0566 -0.6242 -0.8283
   38POPC   H4S 5088   5.767   1.697   7.134 -0.6292 -1.3876 -2.7127
   38POPC   C25 5089   5.878   1.638   7.299 -0.1550 -0.0583 -0.5410
   38POPC   H5R 5090   5.911   1.736   7.339  0.3719 -0.5523  0.2499
   38POPC   H5S 5091   5.969   1.577   7.317 -0.1809  0.4604  1.6492
   38POPC   C26 5092   5.750   1.587   7.369  0.3552 -0.6298  0.2159
   38POPC   H6R 5093   5.783   1.548   7.467  1.9078 -0.5014 -0.2236
   38POPC   H6S 5094   5.706   1.498   7.319 -0.3351 -0.4535  0.5080
   38POPC   C27 5095   5.642   1.696   7.382 -0.3033 -0.1827 -0.2252
   38POPC   H7R 5096   5.583   1.705   7.289 -0.7609  1.1912  0.1803
   38POPC   H7S 5097   5.704   1.785   7.405  0.6496 -0.6087 -1.0676
   38POPC   C28 5098   5.545   1.676   7.493  0.6628  0.2442 -0.3124
   38POPC   H8R 5099   5.470   1.758   7.493  0.7107  0.3592  1.8100
   38POPC   H8S 5100   5.586   1.656   7.595 -1.2026 -0.7347  0.2875
   38POPC   C29 5101   5.463   1.555   7.473 -1.1327 -0.8345 -0.0073
   38POPC   H91 5102   5.488   1.502   7.380  1.3163 -0.5456  0.4303
   38POPC  C210 5103   5.375   1.516   7.568 -0.0447  0.1711 -0.1237
   38POPC  H101 5104   5.321   1.422   7.547 -1.0672  0.2872  1.7858
   38POPC  C211 5105   5.346   1.590   7.701 -0.4944  1.2669 -0.2814
   38POPC  H11R 5106   5.288   1.681   7.676  0.5949  1.1361 -3.8925
   38POPC  H11S 5107   5.442   1.622   7.747 -0.2019  0.5617 -0.3779
   38POPC  C212 5108   5.274   1.507   7.819  0.8208  0.0615  0.8451
   38POPC  H12R 5109   5.177   1.486   7.769  0.6881 -0.5381  1.3435
   38POPC  H12S 5110   5.256   1.588   7.893 -1.3828 -0.0126  0.4456
   38POPC  C213 5111   5.350   1.388   7.869 -0.7075 -0.3481 -0.0143
   38POPC  H13R 5112   5.456   1.414   7.888 -0.9416  0.1221  0.7172
   38POPC  H13S 5113   5.350   1.300   7.802  4.2825 -2.4953  2.2858
   38POPC  C214 5114   5.292   1.350   8.005 -0.2019  1.0261  0.0655
   38POPC  H14R 5115   5.182   1.343   8.000 -0.2310  1.9862 -1.1139
   38POPC  H14S 5116   5.328   1.423   8.080  1.1107  3.1892 -2.4784
   38POPC  C215 5117   5.347   1.214   8.059  0.8474 -0.3231  0.7906
   38POPC  H15R 5118   5.454   1.205   8.031  0.8361  2.4088 -0.3810
   38POPC  H15S 5119   5.298   1.141   7.990 -1.2478  2.5341 -0.9572
   38POPC  C216 5120   5.328   1.191   8.210 -0.7939  0.0250 -0.0096
   38POPC  H16R 5121   5.219   1.195   8.228 -1.7525 -0.0790 -4.4945
   38POPC  H16S 5122   5.386   1.269   8.263  2.2394 -0.6620 -2.0142
   38POPC  C217 5123   5.381   1.054   8.256 -0.4021  0.3601  0.4096
   38POPC  H17R 5124   5.373   1.032   8.365 -0.2946  0.3784  0.4219
   38POPC  H17S 5125   5.488   1.047   8.226 -0.4147 -0.9355  0.5746
   38POPC  C218 5126   5.309   0.936   8.188 -0.6671 -0.0303 -1.1065
   38POPC  H18R 5127   5.300   0.951   8.078 -0.7028  2.0120 -0.8699
   38POPC  H18S 5128   5.204   0.935   8.222 -0.6986 -0.2959 -1.2064
   38POPC  H18T 5129   5.362   0.840   8.208 -0.8662  0.0110 -0.3885
   38POPC   C33 5130   6.143   1.340   7.135 -0.6116  0.3173  0.0152
   38POPC   H3X 5131   6.035   1.357   7.116 -0.6296 -0.7704 -0.9277
   38POPC   H3Y 5132   6.183   1.433   7.182 -3.4516  1.5080  0.2826
   38POPC   C34 5133   6.152   1.227   7.246  0.0894 -0.1238 -0.3205
   38POPC   H4X 5134   6.260   1.209   7.261  0.0668 -0.6092 -0.6913
   38POPC   H4Y 5135   6.089   1.142   7.212 -0.5115 -0.0595  0.6009
   38POPC   C35 5136   6.087   1.268   7.383  0.2130 -0.1222 -0.3188
   38POPC   H5X 5137   6.067   1.173   7.436 -1.4285  1.9743  3.1463
   38POPC   H5Y 5138   5.996   1.331   7.372 -0.2400 -0.4567  1.3277
   38POPC   C36 5139   6.185   1.344   7.482  0.4927 -0.6667  0.3246
   38POPC   H6X 5140   6.198   1.453   7.462  1.3791 -1.1969 -2.2697
   38POPC   H6Y 5141   6.283   1.293   7.488  0.7221 -0.3495 -0.5763
   38POPC   C37 5142   6.139   1.338   7.623  0.2004  0.1421  0.0120
   38POPC   H7X 5143   6.218   1.375   7.692 -1.3004  0.6767  1.5049
   38POPC   H7Y 5144   6.109   1.232   7.641 -0.2477  0.4242  0.9430
   38POPC   C38 5145   6.020   1.423   7.663 -0.3490 -0.2444  0.0440
   38POPC   H8X 5146   5.926   1.378   7.625  0.1991 -1.0816 -0.3351
   38POPC   H8Y 5147   6.022   1.530   7.634  2.3561  0.5086  2.4810
   38POPC   C39 5148   6.008   1.427   7.820 -0.8339 -0.4898 -0.0511
   38POPC   H9X 5149   6.096   1.483   7.857  0.5880 -2.9509  0.4925
   38POPC   H9Y 5150   6.033   1.325   7.857 -0.2354 -0.3583 -0.0889
   38POPC  C310 5151   5.882   1.490   7.884  0.1835 -0.1328 -0.4291
   38POPC  H10X 5152   5.800   1.415   7.883  0.8927 -0.9222 -0.1419
   38POPC  H10Y 5153   5.850   1.574   7.819  0.7956  0.2110 -0.3006
   38POPC  C311 5154   5.912   1.537   8.029 -0.2132 -0.8008 -0.1693
   38POPC  H11X 5155   5.979   1.626   8.024 -0.9734 -0.1978  0.0988
   38POPC  H11Y 5156   5.969   1.459   8.084  0.7932  1.6337  2.5486
   38POPC  C312 5157   5.783   1.569   8.121 -0.1307  0.4326 -0.1240
   38POPC  H12X 5158   5.754   1.469   8.160 -0.3960 -0.4331 -2.3864
   38POPC  H12Y 5159   5.705   1.601   8.049  0.3023  0.1974 -0.7135
   38POPC  C313 5160   5.814   1.668   8.229  0.3223  0.1911 -0.7079
   38POPC  H13X 5161   5.723   1.710   8.277 -0.1137 -0.5397 -0.8803
   38POPC  H13Y 5162   5.854   1.763   8.188  0.5727  0.1436 -0.5740
   38POPC  C314 5163   5.914   1.619   8.334 -0.2358 -0.1465  0.2657
   38POPC  H14X 5164   6.017   1.616   8.293  0.1521  0.1918  1.1835
   38POPC  H14Y 5165   5.897   1.513   8.363 -2.6769  0.7213  2.4248
   38POPC  C315 5166   5.915   1.695   8.470  0.0824 -0.7770  0.0948
   38POPC  H15X 5167   5.808   1.706   8.495  0.2910 -0.7780  1.0259
   38POPC  H15Y 5168   5.965   1.794   8.457  0.5876 -1.3478 -3.2517
   38POPC  C316 5169   5.979   1.609   8.573  0.4918 -0.6691 -0.2042
   38POPC  H16X 5170   6.081   1.579   8.540 -0.0182 -1.7207 -0.8598
   38POPC  H16Y 5171   5.918   1.521   8.603 -0.3167 -0.0163  0.0935
   38POPC  H16Z 5172   5.989   1.670   8.666 -2.0797  1.2244 -1.0586
   39POPC     N 5173   3.027   4.976   6.072 -0.5697 -0.3044  0.1454
   39POPC   C12 5174   3.095   5.077   5.985 -0.2022 -0.3077 -0.3194
   39POPC  H12A 5175   3.032   5.084   5.899 -1.8679 -0.3329  0.8519
   39POPC  H12B 5176   3.189   5.043   5.943 -0.1035 -0.1622 -0.2195
   39POPC   C13 5177   2.984   4.858   5.985  0.0347 -0.6115  0.1182
   39POPC  H13A 5178   2.943   4.775   6.040 -2.4318 -0.3992 -1.2639
   39POPC  H13B 5179   2.912   4.900   5.917  2.4075  0.6480 -1.8144
   39POPC  H13C 5180   3.068   4.831   5.923  0.2274  0.1844  0.0148
   39POPC   C14 5181   3.112   4.930   6.183 -0.3691  0.7464 -0.6893
   39POPC  H14A 5182   3.197   4.875   6.144 -1.8197 -1.7086 -0.5597
   39POPC  H14B 5183   3.144   5.015   6.240 -0.1787  1.0654 -1.2578
   39POPC  H14C 5184   3.054   4.856   6.236  2.6139 -1.5388 -0.3596
   39POPC   C15 5185   2.901   5.035   6.125 -0.1162 -0.6403 -0.0355
   39POPC  H15A 5186   2.836   5.058   6.042 -0.1425 -2.1814 -0.4595
   39POPC  H15B 5187   2.914   5.119   6.193 -1.8082 -1.4698  1.3934
   39POPC  H15C 5188   2.838   4.967   6.180 -2.5994  0.9989 -0.6358
   39POPC   C11 5189   3.108   5.221   6.030  0.3352  0.2350 -0.2014
   39POPC  H11A 5190   3.006   5.259   6.053 -0.2197 -0.0724 -2.0044
   39POPC  H11B 5191   3.137   5.293   5.951 -1.6445  0.9504 -0.3358
   39POPC     P 5192   3.336   5.287   6.142  0.1882  0.0288 -0.0266
   39POPC   O13 5193   3.321   5.406   6.056 -0.8443  0.3310 -0.2368
   39POPC   O14 5194   3.428   5.189   6.094 -0.0256  0.4605  0.0154
   39POPC   O12 5195   3.199   5.220   6.145  0.2569  0.4846 -0.3166
   39POPC   O11 5196   3.357   5.307   6.297 -0.3583 -0.2598  0.2626
   39POPC    C1 5197   3.278   5.403   6.368 -0.2549 -0.2915 -0.2486
   39POPC    HA 5198   3.170   5.377   6.371 -0.9643  2.3589 -0.3882
   39POPC    HB 5199   3.278   5.502   6.318 -1.8516  0.2214  0.6836
   39POPC    C2 5200   3.344   5.430   6.512  0.2968  1.1276 -0.0955
   39POPC    HS 5201   3.287   5.369   6.585  2.6376 -2.0745 -0.7220
   39POPC   O21 5202   3.341   5.569   6.545 -0.1689 -0.2383 -0.1334
   39POPC   C21 5203   3.221   5.617   6.589 -0.2637 -0.3932 -0.6812
   39POPC   O22 5204   3.115   5.563   6.573 -0.3455 -0.1106 -0.4905
   39POPC   C22 5205   3.248   5.760   6.645 -0.4905 -0.2427  0.0931
   39POPC   H2R 5206   3.274   5.831   6.564 -1.0372 -1.6174 -1.3357
   39POPC   H2S 5207   3.328   5.756   6.721 -2.5421  0.4268  2.4096
   39POPC    C3 5208   3.494   5.376   6.525 -0.0926  0.0146  0.8885
   39POPC    HX 5209   3.550   5.405   6.433  3.0854 -2.5177  1.8182
   39POPC    HY 5210   3.488   5.265   6.522  3.1423 -0.2747 -2.8705
   39POPC   O31 5211   3.556   5.418   6.645  0.0821 -0.0479  0.2819
   39POPC   C31 5212   3.681   5.468   6.629  0.3857  0.0998  0.3269
   39POPC   O32 5213   3.734   5.495   6.524  0.0345 -0.0133 -0.5242
   39POPC   C32 5214   3.751   5.473   6.765 -0.2121 -0.6622 -0.2719
   39POPC   H2X 5215   3.704   5.403   6.838 -1.9547 -1.8238 -2.4049
   39POPC   H2Y 5216   3.862   5.465   6.762 -0.1023  0.5667 -0.0637
   39POPC   C23 5217   3.120   5.816   6.712  0.2183  0.0381 -0.0123
   39POPC   H3R 5218   3.035   5.811   6.641  2.6276 -0.2768 -3.0801
   39POPC   H3S 5219   3.136   5.925   6.728  1.0805 -0.1227  0.2615
   39POPC   C24 5220   3.078   5.751   6.843  0.3724  0.3233  0.0461
   39POPC   H4R 5221   3.047   5.644   6.837  2.2750 -0.3633  1.4881
   39POPC   H4S 5222   2.988   5.809   6.873 -1.4019 -1.3714 -1.6939
   39POPC   C25 5223   3.194   5.767   6.946 -0.0375 -0.6328 -0.1625
   39POPC   H5R 5224   3.236   5.869   6.943  0.5941 -0.8105  1.6780
   39POPC   H5S 5225   3.276   5.704   6.905 -1.3407 -1.6997 -1.2922
   39POPC   C26 5226   3.154   5.734   7.091  0.2752  0.3272 -0.3802
   39POPC   H6R 5227   3.107   5.634   7.102  2.3298 -0.6230  0.1973
   39POPC   H6S 5228   3.071   5.802   7.120  1.0832  1.8340 -1.4653
   39POPC   C27 5229   3.271   5.748   7.191 -0.2525 -0.3304 -0.0823
   39POPC   H7R 5230   3.309   5.852   7.185  0.9003 -0.8127 -1.9002
   39POPC   H7S 5231   3.354   5.683   7.158 -0.0923 -1.4135  2.2403
   39POPC   C28 5232   3.239   5.695   7.328 -0.0997  0.4180 -0.0123
   39POPC   H8R 5233   3.333   5.699   7.388 -0.4110  0.5614  0.4670
   39POPC   H8S 5234   3.212   5.588   7.324  0.7565  0.1920  0.1419
   39POPC   C29 5235   3.129   5.771   7.405  0.4602  1.0418  0.7431
   39POPC   H91 5236   3.039   5.787   7.344  0.9003  1.3341  0.1685
   39POPC  C210 5237   3.147   5.826   7.525 -0.5136  0.1453  0.0843
   39POPC  H101 5238   3.078   5.896   7.575  1.8740  1.2114  2.0630
   39POPC  C211 5239   3.269   5.813   7.611 -0.3304 -0.9833  0.8079
   39POPC  H11R 5240   3.329   5.900   7.576 -1.8899  0.1307  0.8028
   39POPC  H11S 5241   3.329   5.722   7.587  0.8704 -0.3817  1.4382
   39POPC  C212 5242   3.238   5.832   7.758  1.0508 -0.1729 -0.6405
   39POPC  H12R 5243   3.161   5.759   7.789  0.6531  0.1804 -0.7807
   39POPC  H12S 5244   3.191   5.929   7.786 -0.0717 -1.0564  0.6617
   39POPC  C213 5245   3.354   5.797   7.850 -0.1767  0.1471  0.0009
   39POPC  H13R 5246   3.442   5.856   7.816 -2.7542  3.7334 -1.0704
   39POPC  H13S 5247   3.367   5.688   7.833  1.8745  0.7186 -2.7504
   39POPC  C214 5248   3.308   5.833   7.993 -0.7992 -0.2261  0.2760
   39POPC  H14R 5249   3.216   5.779   8.021 -0.8563 -0.3871 -0.2087
   39POPC  H14S 5250   3.297   5.944   7.999 -0.1631 -0.1068 -0.5282
   39POPC  C215 5251   3.430   5.796   8.079 -0.1598  0.3821  0.3801
   39POPC  H15R 5252   3.530   5.810   8.035  0.4445  0.6986  1.8054
   39POPC  H15S 5253   3.422   5.688   8.104 -2.2396  0.6854  1.2359
   39POPC  C216 5254   3.412   5.870   8.216 -0.7399 -0.1041  0.0447
   39POPC  H16R 5255   3.315   5.826   8.246 -2.1279  2.8697  0.2788
   39POPC  H16S 5256   3.402   5.980   8.214 -2.6010 -0.2426 -0.0391
   39POPC  C217 5257   3.506   5.820   8.330 -0.1328  0.4031 -0.0269
   39POPC  H17R 5258   3.538   5.715   8.316  2.6474  1.1798 -0.1169
   39POPC  H17S 5259   3.446   5.835   8.423 -0.1494 -2.1822  0.4416
   39POPC  C218 5260   3.622   5.909   8.358 -0.1646 -0.6300 -0.3027
   39POPC  H18R 5261   3.597   6.017   8.365  2.2649 -0.0212 -0.1730
   39POPC  H18S 5262   3.692   5.904   8.271  0.4807 -0.4999  0.2042
   39POPC  H18T 5263   3.687   5.881   8.443  2.0599  1.7598 -1.0696
   39POPC   C33 5264   3.728   5.616   6.825 -0.1814 -0.1252  0.2625
   39POPC   H3X 5265   3.724   5.695   6.747  0.1738 -0.2951  0.0671
   39POPC   H3Y 5266   3.809   5.636   6.898  0.9139 -1.5473 -0.4999
   39POPC   C34 5267   3.604   5.630   6.919 -0.1050 -0.0108  0.0703
   39POPC   H4X 5268   3.612   5.557   7.002 -2.4443 -3.3136 -2.3275
   39POPC   H4Y 5269   3.512   5.620   6.857 -0.3493  0.9247  0.2601
   39POPC   C35 5270   3.578   5.769   6.992 -0.3195 -0.4860  0.2225
   39POPC   H5X 5271   3.472   5.779   7.024 -0.2176  0.6891  0.2120
   39POPC   H5Y 5272   3.603   5.854   6.926 -1.0899 -1.6383 -1.6481
   39POPC   C36 5273   3.663   5.775   7.122  0.8097  0.3673  0.2547
   39POPC   H6X 5274   3.770   5.781   7.090  0.7611 -1.0612 -0.2489
   39POPC   H6Y 5275   3.653   5.687   7.188 -1.7494  1.2925  1.2273
   39POPC   C37 5276   3.625   5.891   7.213  0.0128 -0.7763  0.2592
   39POPC   H7X 5277   3.542   5.866   7.282  0.4132 -3.2182 -0.0633
   39POPC   H7Y 5278   3.580   5.968   7.147 -0.5431  0.0503  1.5758
   39POPC   C38 5279   3.746   5.946   7.291  0.6414  0.1653 -0.3119
   39POPC   H8X 5280   3.828   5.975   7.221 -1.3012 -0.0972 -2.8856
   39POPC   H8Y 5281   3.783   5.863   7.354 -2.3278 -1.0840 -0.0433
   39POPC   C39 5282   3.695   6.058   7.378  0.5563 -0.0351 -0.1021
   39POPC   H9X 5283   3.634   6.014   7.460 -1.2736  0.6632 -1.0353
   39POPC   H9Y 5284   3.643   6.134   7.317  0.7609  1.1596  1.1573
   39POPC  C310 5285   3.808   6.141   7.441 -0.1103 -0.4932 -0.4556
   39POPC  H10X 5286   3.873   6.187   7.363  1.1017 -0.1035  0.7448
   39POPC  H10Y 5287   3.872   6.062   7.487  3.0846  2.0350 -0.1302
   39POPC  C311 5288   3.752   6.242   7.537 -0.1350 -0.1894 -0.1974
   39POPC  H11X 5289   3.836   6.270   7.604 -0.4582 -1.1316  0.6247
   39POPC  H11Y 5290   3.668   6.203   7.599 -1.7394  3.0753 -0.0914
   39POPC  C312 5291   3.718   6.380   7.479 -0.1627 -0.6326 -0.0589
   39POPC  H12X 5292   3.646   6.367   7.396  1.3214 -2.8212 -1.0984
   39POPC  H12Y 5293   3.812   6.417   7.431 -1.0468  1.4814 -0.2867
   39POPC  C313 5294   3.679   6.482   7.588  0.8362 -0.0299  0.4176
   39POPC  H13X 5295   3.737   6.474   7.682 -1.3420  0.7006  1.8980
   39POPC  H13Y 5296   3.575   6.452   7.613  0.2241  1.3980 -0.3014
   39POPC  C314 5297   3.668   6.625   7.533 -0.5763  0.9950 -0.0805
   39POPC  H14X 5298   3.602   6.614   7.444 -0.2782  0.4008 -0.2353
   39POPC  H14Y 5299   3.767   6.667   7.504 -0.0332  1.6522  2.4937
   39POPC  C315 5300   3.606   6.723   7.628  0.7279 -0.4121 -0.6103
   39POPC  H15X 5301   3.499   6.697   7.644 -0.0079  2.1183 -0.8341
   39POPC  H15Y 5302   3.615   6.823   7.581 -0.4496 -0.5247 -1.1100
   39POPC  C316 5303   3.663   6.739   7.762  0.0174 -0.5561  0.1441
   39POPC  H16X 5304   3.635   6.654   7.827 -2.9828  0.4033  0.2942
   39POPC  H16Y 5305   3.614   6.830   7.805  1.3043  1.0936 -1.7280
   39POPC  H16Z 5306   3.773   6.750   7.763  0.0324 -0.6169 -0.8042
   40POPC     N 5307   2.918   3.103   6.294  0.2300  0.3866 -0.3673
   40POPC   C12 5308   2.881   3.200   6.411 -0.3309  0.5806  0.2807
   40POPC  H12A 5309   2.851   3.134   6.491 -1.3537 -1.2267 -1.4862
   40POPC  H12B 5310   2.795   3.259   6.380 -0.5291 -1.0192 -2.5703
   40POPC   C13 5311   3.034   3.018   6.341  0.1620 -0.2959  0.1257
   40POPC  H13A 5312   3.010   2.963   6.432 -0.7208  0.1469  0.1696
   40POPC  H13B 5313   3.061   2.954   6.259  0.1102 -0.9036  0.5732
   40POPC  H13C 5314   3.123   3.070   6.373 -0.9103  0.5806  1.8914
   40POPC   C14 5315   2.804   3.017   6.255  0.2106  0.2171 -0.4244
   40POPC  H14A 5316   2.786   2.937   6.325  0.7422  0.4835  0.0302
   40POPC  H14B 5317   2.720   3.084   6.246 -1.8600 -2.1767 -0.1454
   40POPC  H14C 5318   2.814   2.979   6.155 -2.1966 -1.9147  0.0485
   40POPC   C15 5319   2.942   3.177   6.172 -0.5802  0.6438 -0.0321
   40POPC  H15A 5320   2.965   3.111   6.090 -0.1464  1.2652 -0.4090
   40POPC  H15B 5321   3.022   3.248   6.184 -0.4090  0.5992 -0.8361
   40POPC  H15C 5322   2.853   3.237   6.155 -1.6526 -1.2755 -1.6463
   40POPC   C11 5323   2.985   3.302   6.465 -0.1787  0.5087 -0.0902
   40POPC  H11A 5324   3.065   3.257   6.528  0.6026  0.9136 -0.7744
   40POPC  H11B 5325   2.921   3.375   6.518 -1.7071 -2.3277  2.2864
   40POPC     P 5326   3.019   3.510   6.305  0.0550 -0.2392  0.4137
   40POPC   O13 5327   2.889   3.506   6.238  0.2990 -0.7658  0.6262
   40POPC   O14 5328   3.135   3.557   6.225 -0.4272  0.3660  0.2134
   40POPC   O12 5329   3.048   3.368   6.354 -0.3751  0.7157 -0.2753
   40POPC   O11 5330   3.016   3.598   6.434 -0.5669  0.2133 -0.1221
   40POPC    C1 5331   3.149   3.601   6.511  0.5375  0.4409 -0.0350
   40POPC    HA 5332   3.222   3.661   6.454 -0.4609 -0.0023 -1.8628
   40POPC    HB 5333   3.200   3.503   6.527  2.4252  1.1117 -1.5444
   40POPC    C2 5334   3.136   3.663   6.649 -0.0334 -0.9589 -0.2076
   40POPC    HS 5335   3.198   3.604   6.720  0.6152 -1.4549 -1.1540
   40POPC   O21 5336   3.006   3.672   6.698  0.6868 -0.3725 -0.2311
   40POPC   C21 5337   2.945   3.559   6.743 -0.6378 -0.7352  0.0846
   40POPC   O22 5338   2.999   3.452   6.765  0.4185 -0.0734  0.1025
   40POPC   C22 5339   2.796   3.581   6.776  0.4287 -0.3840 -0.4976
   40POPC   H2R 5340   2.752   3.484   6.745  0.7138 -1.3281  1.8645
   40POPC   H2S 5341   2.760   3.668   6.716 -2.1305 -1.9192 -1.3532
   40POPC    C3 5342   3.196   3.812   6.651  0.6462  1.0881 -0.0779
   40POPC    HX 5343   3.137   3.858   6.569 -0.6169 -2.1839 -1.1464
   40POPC    HY 5344   3.300   3.798   6.617  0.3097  0.5799 -0.9234
   40POPC   O31 5345   3.177   3.874   6.783  0.7336 -0.5002  0.2838
   40POPC   C31 5346   3.073   3.958   6.800 -0.3286  1.4609 -0.3176
   40POPC   O32 5347   2.991   3.983   6.714  0.8356  0.3821  0.1879
   40POPC   C32 5348   3.073   4.026   6.930 -0.3499 -1.1763  0.3971
   40POPC   H2X 5349   3.160   4.095   6.922 -1.4128  0.0132 -2.0510
   40POPC   H2Y 5350   3.092   3.951   7.010  3.6209 -0.0574  0.7263
   40POPC   C23 5351   2.764   3.598   6.928 -0.0253 -0.3799 -0.0571
   40POPC   H3R 5352   2.806   3.504   6.968 -1.4312 -1.1887 -0.4188
   40POPC   H3S 5353   2.657   3.600   6.955  0.5744  0.0482  2.5931
   40POPC   C24 5354   2.839   3.716   6.993  0.5028 -0.1181  0.5570
   40POPC   H4R 5355   2.782   3.805   6.958  0.2878  0.6854  2.8229
   40POPC   H4S 5356   2.942   3.700   6.956  0.2271 -4.3337  1.1380
   40POPC   C25 5357   2.846   3.708   7.143  0.1660 -0.8164  0.4588
   40POPC   H5R 5358   2.877   3.806   7.184 -0.3625 -0.1798 -0.6275
   40POPC   H5S 5359   2.924   3.631   7.164 -1.0234 -2.0230  0.6426
   40POPC   C26 5360   2.725   3.658   7.220  0.4368  0.6522 -0.3894
   40POPC   H6R 5361   2.695   3.558   7.183  0.9178 -0.0349  1.0248
   40POPC   H6S 5362   2.641   3.724   7.189  0.0188  0.7230  0.8482
   40POPC   C27 5363   2.729   3.644   7.368  0.2617  0.6984 -0.0409
   40POPC   H7R 5364   2.795   3.566   7.409  0.1142  0.3084 -0.5414
   40POPC   H7S 5365   2.625   3.616   7.397  0.7772  1.2734  2.6691
   40POPC   C28 5366   2.765   3.783   7.436 -0.0962 -0.3704 -0.3888
   40POPC   H8R 5367   2.686   3.816   7.506  1.5275  0.8042  1.0013
   40POPC   H8S 5368   2.757   3.865   7.360 -0.4335 -1.4425 -1.5393
   40POPC   C29 5369   2.901   3.796   7.505 -0.3508 -0.6805  0.2076
   40POPC   H91 5370   2.975   3.842   7.438 -2.6376  1.5156 -0.9625
   40POPC  C210 5371   2.931   3.764   7.636 -0.3998  0.4832  0.3032
   40POPC  H101 5372   3.030   3.787   7.679 -0.4987  1.9812 -0.2043
   40POPC  C211 5373   2.835   3.708   7.739  0.1736  0.1914 -0.2250
   40POPC  H11R 5374   2.859   3.605   7.772 -2.1423 -0.2549  0.2867
   40POPC  H11S 5375   2.734   3.712   7.691  1.0097  2.5550 -1.9605
   40POPC  C212 5376   2.837   3.804   7.863  0.7148  0.8702 -0.0717
   40POPC  H12R 5377   2.815   3.908   7.832  0.5009  0.6092 -0.8074
   40POPC  H12S 5378   2.934   3.804   7.917  1.1222  1.6612 -0.7857
   40POPC  C213 5379   2.735   3.764   7.965 -1.0458 -0.1211  0.1196
   40POPC  H13R 5380   2.763   3.660   7.995 -2.7336 -0.5409  0.3153
   40POPC  H13S 5381   2.632   3.762   7.924 -1.3736  4.5837  0.1741
   40POPC  C214 5382   2.735   3.840   8.100 -0.7823 -0.0836 -1.0108
   40POPC  H14R 5383   2.632   3.841   8.139 -0.9091  0.5252 -1.3299
   40POPC  H14S 5384   2.758   3.948   8.083  1.1833 -0.5270 -1.5506
   40POPC  C215 5385   2.837   3.785   8.202 -0.2073  0.5889  0.2221
   40POPC  H15R 5386   2.939   3.809   8.165 -0.4301  0.0609 -0.7681
   40POPC  H15S 5387   2.838   3.674   8.197  2.4495  0.5935 -0.9646
   40POPC  C216 5388   2.815   3.824   8.347  0.4666 -0.1026  0.0792
   40POPC  H16R 5389   2.819   3.935   8.343  0.0030 -0.0823  0.1422
   40POPC  H16S 5390   2.895   3.792   8.419 -0.0500 -0.6790  0.4076
   40POPC  C217 5391   2.686   3.770   8.413 -0.1392 -0.6271 -0.6091
   40POPC  H17R 5392   2.717   3.672   8.456 -0.2692 -0.5282 -0.2866
   40POPC  H17S 5393   2.615   3.757   8.328  2.0240 -1.3673 -2.4126
   40POPC  C218 5394   2.628   3.871   8.512  0.8080  0.3540  0.6803
   40POPC  H18R 5395   2.523   3.839   8.530  1.5328 -2.5958  0.0855
   40POPC  H18S 5396   2.629   3.978   8.481 -0.5937 -0.0216 -0.7363
   40POPC  H18T 5397   2.670   3.868   8.615 -1.2523 -0.7118  1.5418
   40POPC   C33 5398   2.940   4.101   6.962  0.1144  0.2062  0.2196
   40POPC   H3X 5399   2.857   4.053   6.906 -0.5525  2.5012 -0.9209
   40POPC   H3Y 5400   2.944   4.207   6.928  3.7095 -0.0783 -0.6288
   40POPC   C34 5401   2.904   4.112   7.119  0.9111 -0.3169  0.1348
   40POPC   H4X 5402   2.888   4.010   7.160 -0.6330 -0.6345 -1.1687
   40POPC   H4Y 5403   2.804   4.157   7.136  0.7508 -1.2446  1.8871
   40POPC   C35 5404   3.011   4.198   7.185 -0.2030 -0.2467  0.2242
   40POPC   H5X 5405   3.024   4.281   7.112  2.4619  0.8526  1.7965
   40POPC   H5Y 5406   3.107   4.144   7.189  0.3175  0.4617 -1.8279
   40POPC   C36 5407   2.968   4.257   7.317 -0.2541 -0.7630 -0.1808
   40POPC   H6X 5408   2.858   4.272   7.319 -0.4942 -2.3723  1.2621
   40POPC   H6Y 5409   3.005   4.360   7.333 -1.8025 -0.0714 -0.9183
   40POPC   C37 5410   3.015   4.186   7.447 -0.2986 -0.2084 -0.5520
   40POPC   H7X 5411   3.125   4.198   7.455 -0.2108 -0.0021 -1.8323
   40POPC   H7Y 5412   2.996   4.077   7.440  2.9077 -0.8976 -0.2916
   40POPC   C38 5413   2.942   4.229   7.573  0.1418  0.0765 -0.1406
   40POPC   H8X 5414   2.832   4.219   7.567  0.1130 -0.7098  1.1370
   40POPC   H8Y 5415   2.965   4.334   7.598  0.4426 -0.7797  4.1148
   40POPC   C39 5416   2.996   4.160   7.705 -0.1124 -0.7949 -0.9458
   40POPC   H9X 5417   3.106   4.174   7.697 -0.2558  1.0886  0.0486
   40POPC   H9Y 5418   2.965   4.053   7.712 -1.1525 -0.4341  0.4595
   40POPC  C310 5419   2.939   4.221   7.831  0.4975 -0.2559 -0.8972
   40POPC  H10X 5420   2.829   4.205   7.833  0.4887 -0.3403  2.1336
   40POPC  H10Y 5421   2.954   4.331   7.824  0.6002 -0.1834  0.2780
   40POPC  C311 5422   2.996   4.167   7.970  0.1179 -0.6066  0.9418
   40POPC  H11X 5423   3.102   4.202   7.967 -1.3258  4.5667 -2.2558
   40POPC  H11Y 5424   3.002   4.057   7.961  1.5231 -0.4842 -0.0036
   40POPC  C312 5425   2.924   4.214   8.098  0.1282  0.3445 -0.2759
   40POPC  H12X 5426   2.830   4.155   8.100  1.1249 -1.2969  1.5077
   40POPC  H12Y 5427   2.901   4.322   8.092 -2.1768 -0.1007 -0.2812
   40POPC  C313 5428   2.982   4.179   8.230 -0.1175  0.1952 -0.3606
   40POPC  H13X 5429   3.078   4.235   8.237 -0.3295  0.5121  0.0393
   40POPC  H13Y 5430   2.993   4.069   8.233 -0.0349  0.2098  2.5329
   40POPC  C314 5431   2.895   4.226   8.345  0.0873  0.6288 -0.5215
   40POPC  H14X 5432   2.795   4.177   8.343 -1.5469  3.3338  2.8143
   40POPC  H14Y 5433   2.885   4.336   8.330  1.7433  0.5881 -2.2037
   40POPC  C315 5434   2.953   4.196   8.487  0.2272  0.4631 -0.0530
   40POPC  H15X 5435   3.051   4.244   8.507 -0.1797  0.4939  2.0864
   40POPC  H15Y 5436   2.958   4.090   8.518  2.4274  0.3018 -0.8064
   40POPC  C316 5437   2.867   4.268   8.592  0.4580  0.0247 -0.4216
   40POPC  H16X 5438   2.908   4.370   8.610 -1.7741  1.0284 -0.7676
   40POPC  H16Y 5439   2.867   4.214   8.690  3.0545  1.0927  0.2699
   40POPC  H16Z 5440   2.760   4.270   8.564  0.5887 -0.9748 -1.0640
   41CHL1    C3 5441   1.307   2.617  10.111 -0.0835 -0.0900  0.5636
   41CHL1    H3 5442   1.306   2.722  10.076  0.2751 -0.7249 -1.5242
   41CHL1    O3 5443   1.340   2.622  10.251  0.2255  0.0343 -0.1091
   41CHL1   H3' 5444   1.345   2.526  10.261  0.5857 -0.2638 -2.4794
   41CHL1    C4 5445   1.166   2.569  10.091  0.1888 -0.4384  0.2425
   41CHL1   H4A 5446   1.159   2.463  10.124  0.7114 -0.0007  1.8942
   41CHL1   H4B 5447   1.094   2.635  10.146 -2.9281 -2.1075 -1.5572
   41CHL1    C5 5448   1.126   2.567   9.947  0.0639 -0.1520  0.1602
   41CHL1    C6 5449   1.016   2.626   9.906 -0.3364  0.5721 -0.3386
   41CHL1    H6 5450   0.936   2.641   9.981 -0.7456 -3.4386  0.2356
   41CHL1    C7 5451   0.973   2.630   9.764 -0.5476  0.7712 -0.2290
   41CHL1   H7A 5452   0.865   2.604   9.765 -0.5227  0.6771  0.1078
   41CHL1   H7B 5453   0.978   2.730   9.715  1.9451  0.9557  0.2731
   41CHL1    C8 5454   1.045   2.530   9.667  0.0402 -0.4082 -0.8273
   41CHL1    H8 5455   0.999   2.434   9.698 -1.1113  0.6843  1.0662
   41CHL1   C14 5456   1.018   2.552   9.525  0.0179 -0.0910 -0.1761
   41CHL1   H14 5457   1.054   2.655   9.502  1.1464 -0.1387  1.2493
   41CHL1   C15 5458   0.870   2.549   9.478 -0.2325 -0.3497 -0.2679
   41CHL1  H15A 5459   0.805   2.482   9.538  1.4516 -0.7034  1.2561
   41CHL1  H15B 5460   0.822   2.647   9.499 -0.6143 -0.4115 -0.8322
   41CHL1   C16 5461   0.888   2.532   9.330  0.5391  0.2426  0.4073
   41CHL1  H16A 5462   0.832   2.439   9.306 -1.2187  0.6390  2.7009
   41CHL1  H16B 5463   0.849   2.616   9.269 -0.5166 -0.6662 -0.2181
   41CHL1   C17 5464   1.046   2.509   9.295  0.3692 -0.2456 -0.7764
   41CHL1   H17 5465   1.082   2.613   9.277 -1.8313  0.7098 -0.0357
   41CHL1   C13 5466   1.093   2.459   9.430 -0.5283 -0.3270 -0.0991
   41CHL1   C18 5467   1.062   2.311   9.454  0.6237  0.1451 -0.1301
   41CHL1  H18A 5468   1.090   2.284   9.558  0.4652  2.2198  0.4903
   41CHL1  H18B 5469   0.953   2.292   9.444  0.5895  0.7285 -1.0020
   41CHL1  H18C 5470   1.100   2.237   9.381 -1.1508 -1.9872  0.9662
   41CHL1   C12 5471   1.242   2.486   9.444 -0.0337  0.2347  0.2378
   41CHL1  H12A 5472   1.307   2.423   9.379 -1.9813 -0.5851 -1.0185
   41CHL1  H12B 5473   1.259   2.591   9.413 -0.8936  1.1211  2.5443
   41CHL1   C11 5474   1.281   2.467   9.593  0.6087 -0.2208 -0.7138
   41CHL1  H11A 5475   1.294   2.358   9.610  2.1587  0.4887  4.6442
   41CHL1  H11B 5476   1.381   2.517   9.595  0.7759 -0.5684 -0.1097
   41CHL1    C9 5477   1.189   2.534   9.701 -0.5103  0.0681 -0.4701
   41CHL1    H9 5478   1.211   2.641   9.681 -2.1352  0.2761 -1.3155
   41CHL1   C10 5479   1.226   2.504   9.851 -0.6799 -0.4274 -0.3320
   41CHL1   C19 5480   1.214   2.354   9.865 -0.0398  0.1148  0.2023
   41CHL1  H19A 5481   1.307   2.310   9.823 -0.0053  0.5457 -0.1803
   41CHL1  H19B 5482   1.197   2.326   9.971  1.7672  0.0116  0.4966
   41CHL1  H19C 5483   1.120   2.325   9.813 -0.4050  0.9234  0.3881
   41CHL1    C1 5484   1.372   2.560   9.878 -0.1999  0.8106 -0.4686
   41CHL1   H1A 5485   1.438   2.501   9.812 -0.4597  0.3964 -0.3568
   41CHL1   H1B 5486   1.378   2.669   9.853  0.2856  1.1525  1.0148
   41CHL1    C2 5487   1.404   2.537  10.023  0.3171  0.1720  0.3140
   41CHL1   H2A 5488   1.506   2.577  10.040  0.1153  1.0668 -0.5140
   41CHL1   H2B 5489   1.404   2.432  10.058  0.2180 -0.2465 -0.9201
   41CHL1   C20 5490   1.062   2.416   9.179 -0.4544  0.1505 -0.2258
   41CHL1   H20 5491   1.029   2.315   9.212 -0.5480  0.4009  0.4546
   41CHL1   C21 5492   1.205   2.425   9.119  0.2636  0.6355  0.2502
   41CHL1  H21A 5493   1.223   2.528   9.082 -1.1845  0.5953 -0.6649
   41CHL1  H21B 5494   1.221   2.354   9.035 -0.2764  1.8720 -0.9279
   41CHL1  H21C 5495   1.286   2.404   9.191  2.8782  0.4490 -2.5527
   41CHL1   C22 5496   0.955   2.435   9.062  0.6445 -0.0444  0.2159
   41CHL1  H22A 5497   0.856   2.419   9.110  1.9155 -0.6306  2.8696
   41CHL1  H22B 5498   0.969   2.543   9.041  1.3001  0.4493  2.8340
   41CHL1   C23 5499   0.965   2.343   8.937  0.1793 -0.2193 -0.6765
   41CHL1  H23A 5500   1.057   2.349   8.875  0.6645 -1.1780 -0.0759
   41CHL1  H23B 5501   0.955   2.238   8.971 -0.6292  0.0495 -0.0410
   41CHL1   C24 5502   0.832   2.368   8.854 -0.0028  0.9509  0.7152
   41CHL1  H24A 5503   0.829   2.474   8.820 -1.5315  1.9685  3.6304
   41CHL1  H24B 5504   0.849   2.292   8.775 -1.9850 -0.3088  1.4413
   41CHL1   C25 5505   0.691   2.327   8.914 -0.1062 -0.4399  0.3367
   41CHL1   H25 5506   0.657   2.400   8.990  0.9905  0.4730 -0.0145
   41CHL1   C26 5507   0.572   2.337   8.815 -0.4088  0.6321 -0.4264
   41CHL1  H26A 5508   0.555   2.444   8.788 -0.3582  1.2585  1.7905
   41CHL1  H26B 5509   0.584   2.288   8.716 -2.7939 -0.8858 -0.0337
   41CHL1  H26C 5510   0.480   2.298   8.862 -0.7750  0.7717 -1.0260
   41CHL1   C27 5511   0.689   2.184   8.984 -0.5171 -0.6536  0.2435
   41CHL1  H27A 5512   0.587   2.172   9.025 -0.0815 -0.0853  1.5281
   41CHL1  H27B 5513   0.705   2.108   8.904  3.8074 -0.3242  0.5744
   41CHL1  H27C 5514   0.757   2.162   9.069 -1.3210 -1.2761  0.7346
   42CHL1    C3 5515   1.619   6.434   9.848 -0.3533  0.1609  1.0369
   42CHL1    H3 5516   1.542   6.372   9.797 -0.0263  1.9207 -1.8388
   42CHL1    O3 5517   1.610   6.415   9.990  0.1191 -0.0008  0.1167
   42CHL1   H3' 5518   1.535   6.472  10.011 -0.5687 -0.9208  0.2504
   42CHL1    C4 5519   1.755   6.377   9.797 -0.7262  0.6167  0.1400
   42CHL1   H4A 5520   1.833   6.439   9.846 -0.3267 -0.3581  0.7664
   42CHL1   H4B 5521   1.763   6.271   9.829 -0.6211  0.6218  0.1327
   42CHL1    C5 5522   1.765   6.391   9.645  0.1795 -1.0331  0.2491
   42CHL1    C6 5523   1.784   6.287   9.568 -0.2440  0.2597 -0.5160
   42CHL1    H6 5524   1.800   6.185   9.606 -1.3591 -0.4897 -1.9408
   42CHL1    C7 5525   1.805   6.300   9.417 -0.2116  0.0954 -0.2838
   42CHL1   H7A 5526   1.894   6.241   9.385 -0.2646  1.2359 -2.8128
   42CHL1   H7B 5527   1.713   6.259   9.370 -0.3775 -0.9854  0.9376
   42CHL1    C8 5528   1.821   6.443   9.372  0.2391  0.8136  1.1325
   42CHL1    H8 5529   1.922   6.483   9.396 -0.8183  3.6553  1.1867
   42CHL1   C14 5530   1.815   6.454   9.219 -0.2959 -0.2213 -0.1944
   42CHL1   H14 5531   1.712   6.420   9.199  0.5025 -0.8814 -3.8104
   42CHL1   C15 5532   1.892   6.355   9.130  0.2325 -0.5010 -0.4440
   42CHL1  H15A 5533   2.000   6.336   9.148  0.7847  1.1735 -1.7274
   42CHL1  H15B 5534   1.843   6.255   9.135 -0.7561  0.0338  1.9267
   42CHL1   C16 5535   1.888   6.422   8.992  0.5475  0.0579 -0.2297
   42CHL1  H16A 5536   1.989   6.449   8.954  0.2197  1.6751 -0.0299
   42CHL1  H16B 5537   1.849   6.344   8.923  0.2212 -0.3497  0.4091
   42CHL1   C17 5538   1.794   6.549   9.014 -0.3239 -0.5447  0.1421
   42CHL1   H17 5539   1.687   6.516   9.009 -0.1099 -1.1174 -1.0628
   42CHL1   C13 5540   1.823   6.593   9.154  0.6174  0.2390 -0.0693
   42CHL1   C18 5541   1.963   6.655   9.164  0.5185  0.0823 -0.1078
   42CHL1  H18A 5542   2.047   6.592   9.128  0.5191  0.8949 -1.6225
   42CHL1  H18B 5543   1.967   6.753   9.111  0.1561  0.5287  0.6882
   42CHL1  H18C 5544   1.985   6.686   9.268 -1.5161  0.7313  0.1572
   42CHL1   C12 5545   1.718   6.680   9.223 -0.4210 -0.6912  0.4672
   42CHL1  H12A 5546   1.731   6.780   9.178  0.9689 -0.7598  0.6852
   42CHL1  H12B 5547   1.615   6.646   9.198 -0.3283 -0.6337  0.0053
   42CHL1   C11 5548   1.739   6.681   9.377 -0.0856  0.0209 -0.0872
   42CHL1  H11A 5549   1.843   6.719   9.393  0.3615 -0.6146 -1.3561
   42CHL1  H11B 5550   1.662   6.744   9.426  1.3178  1.4962  0.2945
   42CHL1    C9 5551   1.725   6.537   9.435 -0.0462 -0.3854 -0.2974
   42CHL1    H9 5552   1.628   6.491   9.406  0.1810 -0.6593 -0.6339
   42CHL1   C10 5553   1.734   6.538   9.591 -0.1647  0.1071 -0.1174
   42CHL1   C19 5554   1.854   6.633   9.630  0.6216 -0.1946 -0.1330
   42CHL1  H19A 5555   1.875   6.625   9.738  1.3231  0.6266 -0.1917
   42CHL1  H19B 5556   1.944   6.596   9.575  0.7043 -1.3504  0.7552
   42CHL1  H19C 5557   1.829   6.738   9.601 -0.9448 -0.2630  0.8576
   42CHL1    C1 5558   1.610   6.599   9.651  0.4046  0.8120 -0.4328
   42CHL1   H1A 5559   1.609   6.709   9.637  2.1147  0.8132 -0.8421
   42CHL1   H1B 5560   1.511   6.560   9.620  0.4905 -1.1035  1.5049
   42CHL1    C2 5561   1.599   6.581   9.800  0.1805  0.8201 -1.1542
   42CHL1   H2A 5562   1.502   6.612   9.844 -0.6883 -3.3304  0.3210
   42CHL1   H2B 5563   1.676   6.641   9.855 -0.5525 -1.2621  2.5082
   42CHL1   C20 5564   1.810   6.655   8.907  0.5404  0.2984  0.2613
   42CHL1   H20 5565   1.903   6.715   8.912  0.3180  0.6439  0.2474
   42CHL1   C21 5566   1.692   6.755   8.919  0.0002  0.2859 -0.2731
   42CHL1  H21A 5567   1.669   6.809   8.825  1.4711 -0.6349 -1.1924
   42CHL1  H21B 5568   1.707   6.839   8.991  1.0667 -0.0771 -0.0495
   42CHL1  H21C 5569   1.602   6.697   8.947  0.2658 -0.6988 -1.3880
   42CHL1   C22 5570   1.812   6.589   8.768 -0.5120  0.7470 -0.0614
   42CHL1  H22A 5571   1.898   6.519   8.763 -0.0601  1.3725 -1.5377
   42CHL1  H22B 5572   1.723   6.528   8.742  0.6033 -0.4804 -1.1180
   42CHL1   C23 5573   1.829   6.679   8.644  0.2055 -0.7768 -0.4586
   42CHL1  H23A 5574   1.734   6.734   8.636  0.3328 -0.7724 -2.2979
   42CHL1  H23B 5575   1.913   6.750   8.660 -0.5977  0.3743 -1.2524
   42CHL1   C24 5576   1.846   6.587   8.522 -0.5978 -0.8908  0.2894
   42CHL1  H24A 5577   1.945   6.540   8.537 -0.1418  0.3899  1.5231
   42CHL1  H24B 5578   1.769   6.511   8.496  0.2552 -1.5018 -0.5531
   42CHL1   C25 5579   1.853   6.675   8.391  0.2234 -0.0873  0.2561
   42CHL1   H25 5580   1.896   6.772   8.425  0.8400  0.0451 -0.8755
   42CHL1   C26 5581   1.954   6.618   8.289  0.0197  0.4466 -0.2315
   42CHL1  H26A 5582   1.983   6.691   8.210 -0.8165 -1.0373 -1.9839
   42CHL1  H26B 5583   2.047   6.589   8.343  1.0989  2.5414 -0.8686
   42CHL1  H26C 5584   1.926   6.522   8.240 -1.3008 -1.5798  4.0115
   42CHL1   C27 5585   1.713   6.698   8.323 -0.4136  0.1863 -0.4705
   42CHL1  H27A 5586   1.673   6.599   8.291  1.5346 -1.0911  0.8024
   42CHL1  H27B 5587   1.649   6.734   8.407 -2.2441 -1.0071 -1.2876
   42CHL1  H27C 5588   1.719   6.766   8.236  2.0636  0.1783 -0.3738
   43CHL1    C3 5589   1.187   6.509   9.861  0.3401  0.0490 -0.0123
   43CHL1    H3 5590   1.290   6.549   9.852 -0.4771  1.9650 -1.6564
   43CHL1    O3 5591   1.139   6.534   9.989  0.4289 -0.2310 -1.0596
   43CHL1   H3' 5592   1.107   6.450  10.024 -1.2570  0.5275 -0.6916
   43CHL1    C4 5593   1.108   6.591   9.757 -0.3672 -0.3366 -0.0627
   43CHL1   H4A 5594   0.997   6.583   9.760 -0.4094  0.3663  1.5061
   43CHL1   H4B 5595   1.117   6.695   9.795 -1.5072  0.1121 -0.9555
   43CHL1    C5 5596   1.165   6.568   9.622  0.1140  0.5220  0.0810
   43CHL1    C6 5597   1.213   6.668   9.545  0.1772  0.2805  0.6521
   43CHL1    H6 5598   1.195   6.770   9.582  1.7582  0.1283  1.9403
   43CHL1    C7 5599   1.257   6.644   9.405 -0.7080  0.2080 -0.4860
   43CHL1   H7A 5600   1.195   6.712   9.343 -2.0966 -1.4288 -0.9810
   43CHL1   H7B 5601   1.365   6.665   9.389 -0.5404 -1.0777 -1.2273
   43CHL1    C8 5602   1.233   6.503   9.347  0.2486  0.9550  0.5035
   43CHL1    H8 5603   1.127   6.483   9.323  0.4246  0.4336  0.1198
   43CHL1   C14 5604   1.311   6.485   9.215 -0.0388 -0.4007  0.3453
   43CHL1   H14 5605   1.418   6.500   9.239  0.4545 -1.2453 -1.1572
   43CHL1   C15 5606   1.286   6.575   9.089  1.1866  0.1990 -0.3132
   43CHL1  H15A 5607   1.175   6.565   9.082  1.2135 -3.7501  1.5947
   43CHL1  H15B 5608   1.313   6.680   9.112 -1.1711  0.1259  4.0914
   43CHL1   C16 5609   1.354   6.497   8.978 -0.3992  0.5839  0.3414
   43CHL1  H16A 5610   1.279   6.486   8.897 -2.3410 -0.4321  2.1679
   43CHL1  H16B 5611   1.448   6.552   8.954 -0.3049  0.5815  0.7056
   43CHL1   C17 5612   1.388   6.356   9.030 -0.5320 -0.2859 -0.1494
   43CHL1   H17 5613   1.493   6.367   9.063 -0.9484  1.2093  0.7677
   43CHL1   C13 5614   1.302   6.344   9.159  0.1379  0.6551  0.1886
   43CHL1   C18 5615   1.157   6.314   9.111  0.1260  0.0624 -0.2313
   43CHL1  H18A 5616   1.086   6.319   9.197 -2.2314 -1.0780 -2.0106
   43CHL1  H18B 5617   1.109   6.385   9.041 -3.5903 -1.8241  0.1688
   43CHL1  H18C 5618   1.156   6.213   9.065  2.0103  0.3738 -1.0558
   43CHL1   C12 5619   1.348   6.245   9.266  0.0606  0.3165 -0.4696
   43CHL1  H12A 5620   1.334   6.139   9.236 -1.7990 -0.2984  2.1826
   43CHL1  H12B 5621   1.453   6.263   9.297 -0.9735  3.1653  1.8781
   43CHL1   C11 5622   1.271   6.252   9.410 -0.1571 -0.5186  0.1390
   43CHL1  H11A 5623   1.166   6.218   9.395 -0.1022 -1.3118  1.4181
   43CHL1  H11B 5624   1.315   6.189   9.490 -2.0001 -3.3214 -0.8968
   43CHL1    C9 5625   1.270   6.401   9.458  0.2634 -0.4452  0.7291
   43CHL1    H9 5626   1.371   6.433   9.491  1.1436 -0.7168 -1.5377
   43CHL1   C10 5627   1.187   6.420   9.590  0.6431  0.2913  0.3983
   43CHL1   C19 5628   1.041   6.369   9.558  0.8660  0.2391 -0.0617
   43CHL1  H19A 5629   1.041   6.259   9.543 -2.5178  0.1425 -0.0756
   43CHL1  H19B 5630   0.979   6.380   9.649  0.4310 -2.0673 -0.0286
   43CHL1  H19C 5631   0.995   6.412   9.466  1.0936 -0.2810 -0.4237
   43CHL1    C1 5632   1.246   6.331   9.698 -0.1384 -0.2390 -0.3828
   43CHL1   H1A 5633   1.244   6.224   9.666 -0.6155 -1.0155  2.0334
   43CHL1   H1B 5634   1.352   6.363   9.710 -0.0506 -1.0194  1.1621
   43CHL1    C2 5635   1.189   6.364   9.831  0.3186 -0.5038 -0.1990
   43CHL1   H2A 5636   1.246   6.302   9.904  0.7327 -2.5491 -2.1238
   43CHL1   H2B 5637   1.084   6.331   9.846  0.1853 -0.1005 -0.2372
   43CHL1   C20 5638   1.394   6.249   8.915  0.1814  0.3038  0.6576
   43CHL1   H20 5639   1.304   6.261   8.851  0.0115  1.7871  1.1271
   43CHL1   C21 5640   1.398   6.101   8.964 -0.4984 -0.4434 -0.6010
   43CHL1  H21A 5641   1.375   6.023   8.888  1.3388 -0.9455 -0.6816
   43CHL1  H21B 5642   1.329   6.080   9.048  0.7159  1.6980  1.0085
   43CHL1  H21C 5643   1.501   6.076   8.996 -0.0155  0.6635 -1.2343
   43CHL1   C22 5644   1.517   6.278   8.818  0.2457 -0.2303 -0.2305
   43CHL1  H22A 5645   1.519   6.385   8.791  3.0243  0.5916  2.6026
   43CHL1  H22B 5646   1.619   6.271   8.861  0.5435  1.4810 -0.5830
   43CHL1   C23 5647   1.520   6.178   8.701 -0.2284 -0.4272  0.7115
   43CHL1  H23A 5648   1.569   6.086   8.739  1.0181  0.0349  0.2797
   43CHL1  H23B 5649   1.417   6.159   8.665 -1.3479 -0.3993  3.6163
   43CHL1   C24 5650   1.595   6.234   8.579 -0.3320  0.0487 -0.2077
   43CHL1  H24A 5651   1.562   6.330   8.534 -0.3085 -0.3801 -1.1482
   43CHL1  H24B 5652   1.703   6.253   8.598 -0.3834 -0.0748  0.2319
   43CHL1   C25 5653   1.604   6.117   8.471  0.0197 -0.3604 -1.0009
   43CHL1   H25 5654   1.634   6.025   8.527 -0.3956 -0.2021 -0.5101
   43CHL1   C26 5655   1.464   6.095   8.412  0.1909  0.0858  0.1962
   43CHL1  H26A 5656   1.431   6.190   8.366  2.6280  1.4355  1.0395
   43CHL1  H26B 5657   1.462   6.022   8.329 -1.5452  1.0983 -0.7142
   43CHL1  H26C 5658   1.396   6.067   8.495  1.9704  1.3051  2.1716
   43CHL1   C27 5659   1.698   6.167   8.369  0.2901  0.0496 -0.4036
   43CHL1  H27A 5660   1.708   6.097   8.283 -1.6964  0.1901 -0.7811
   43CHL1  H27B 5661   1.662   6.265   8.333 -0.5749  0.5669  1.7204
   43CHL1  H27C 5662   1.800   6.185   8.411 -0.2462 -0.5192  1.2102
   44CHL1    C3 5663   2.526   0.782  10.049 -0.0621  0.2849  0.2595
   44CHL1    H3 5664   2.524   0.679  10.007 -0.7151  0.4509 -0.1397
   44CHL1    O3 5665   2.525   0.768  10.191 -0.0008  0.1530  0.3705
   44CHL1   H3' 5666   2.582   0.837  10.226 -0.0271 -0.8452  2.5170
   44CHL1    C4 5667   2.650   0.855  10.011 -0.4434  0.2179  0.6004
   44CHL1   H4A 5668   2.645   0.956  10.057  2.3926 -0.4234  2.5222
   44CHL1   H4B 5669   2.739   0.803  10.053  0.6882  2.6365  1.3567
   44CHL1    C5 5670   2.661   0.883   9.861 -0.1237  0.1453 -0.2224
   44CHL1    C6 5671   2.762   0.833   9.789 -0.3880 -0.2340  0.2891
   44CHL1    H6 5672   2.850   0.792   9.840  0.2310  1.0878  0.3508
   44CHL1    C7 5673   2.768   0.841   9.640 -0.0461  0.1522 -0.1807
   44CHL1   H7A 5674   2.874   0.863   9.615  0.6337 -0.6753  1.7144
   44CHL1   H7B 5675   2.740   0.743   9.595  1.2136 -0.6660  0.7244
   44CHL1    C8 5676   2.682   0.960   9.587 -0.4279 -0.2336  0.9980
   44CHL1    H8 5677   2.730   1.059   9.604  0.7749 -0.3552 -1.3101
   44CHL1   C14 5678   2.680   0.940   9.436 -0.0582  0.7205  0.0101
   44CHL1   H14 5679   2.653   0.835   9.414 -2.2040  0.6085  2.6383
   44CHL1   C15 5680   2.814   0.962   9.357  0.0484  1.0377  0.6711
   44CHL1  H15A 5681   2.851   1.063   9.385  0.8302  0.8391  0.3754
   44CHL1  H15B 5682   2.891   0.886   9.382 -2.2418 -1.4473  0.5458
   44CHL1   C16 5683   2.772   0.952   9.205  0.5444  0.4803 -0.1148
   44CHL1  H16A 5684   2.828   1.026   9.145 -0.4785  1.1805 -0.2388
   44CHL1  H16B 5685   2.795   0.852   9.164  0.2341  1.3600 -2.5993
   44CHL1   C17 5686   2.613   0.972   9.209 -0.1292  0.2890 -0.8740
   44CHL1   H17 5687   2.578   0.866   9.208 -0.5559  0.4305 -1.4297
   44CHL1   C13 5688   2.575   1.020   9.358  0.0894  0.2667  0.3192
   44CHL1   C18 5689   2.603   1.168   9.371 -0.1650 -0.1963 -1.0156
   44CHL1  H18A 5690   2.541   1.236   9.309 -2.4796  0.2069  1.5687
   44CHL1  H18B 5691   2.588   1.212   9.472 -0.9836 -1.3631 -0.6060
   44CHL1  H18C 5692   2.709   1.180   9.339 -0.5504 -3.8126 -4.4073
   44CHL1   C12 5693   2.431   0.991   9.404 -0.2866 -0.5582  0.1802
   44CHL1  H12A 5694   2.345   1.046   9.360 -1.2351 -0.8457  1.6089
   44CHL1  H12B 5695   2.426   0.882   9.385 -3.6724 -0.4595 -0.0560
   44CHL1   C11 5696   2.425   1.014   9.552 -0.2855  0.7955 -0.0133
   44CHL1  H11A 5697   2.447   1.118   9.587 -0.3827  1.0074 -0.5729
   44CHL1  H11B 5698   2.327   0.977   9.591  0.1206  0.9387  1.2042
   44CHL1    C9 5699   2.537   0.938   9.636  0.9258 -0.7051 -0.0738
   44CHL1    H9 5700   2.518   0.831   9.614 -0.8352 -0.1351 -1.5944
   44CHL1   C10 5701   2.540   0.946   9.795 -0.5360  0.7608  0.6205
   44CHL1   C19 5702   2.544   1.091   9.828 -0.6959 -0.6089  0.3308
   44CHL1  H19A 5703   2.455   1.154   9.806  0.0629  0.1673 -0.6077
   44CHL1  H19B 5704   2.561   1.112   9.936  0.6366  1.3356 -0.2066
   44CHL1  H19C 5705   2.626   1.143   9.775  2.1855 -2.7864  2.3618
   44CHL1    C1 5706   2.408   0.893   9.846  0.6372 -0.1748  0.2689
   44CHL1   H1A 5707   2.333   0.971   9.819 -1.3068 -1.0688  2.7106
   44CHL1   H1B 5708   2.384   0.795   9.799  0.2180 -0.7107  1.5618
   44CHL1    C2 5709   2.403   0.858  10.002 -0.2791 -0.8328  0.7076
   44CHL1   H2A 5710   2.305   0.811  10.027 -0.3652 -0.8811  0.2769
   44CHL1   H2B 5711   2.405   0.958  10.050  0.5834 -0.1587 -0.6998
   44CHL1   C20 5712   2.554   1.032   9.084  0.5517  0.0859  0.0928
   44CHL1   H20 5713   2.595   1.135   9.071  2.8583 -0.7600  0.0492
   44CHL1   C21 5714   2.392   1.015   9.089 -0.9752  0.3895  0.6393
   44CHL1  H21A 5715   2.361   0.913   9.120  0.7817 -0.6077 -0.7131
   44CHL1  H21B 5716   2.349   1.031   8.987 -1.5991  2.3988  1.1694
   44CHL1  H21C 5717   2.351   1.091   9.159 -2.0862  1.1957 -0.8176
   44CHL1   C22 5718   2.598   0.964   8.957 -0.4800 -0.3699  0.3254
   44CHL1  H22A 5719   2.705   0.934   8.962 -0.8823 -1.7553  0.9165
   44CHL1  H22B 5720   2.545   0.869   8.936 -0.7831 -0.3233  0.8626
   44CHL1   C23 5721   2.564   1.048   8.831 -0.6880 -1.2092 -0.6965
   44CHL1  H23A 5722   2.475   1.001   8.785 -3.0160  0.7673  1.4240
   44CHL1  H23B 5723   2.545   1.154   8.858 -1.0544 -1.4024 -0.1594
   44CHL1   C24 5724   2.685   1.034   8.737  0.4979 -0.6398 -0.3723
   44CHL1  H24A 5725   2.767   1.088   8.790  1.2253 -2.8924  0.9316
   44CHL1  H24B 5726   2.717   0.928   8.746  0.8802 -0.5189 -0.2888
   44CHL1   C25 5727   2.666   1.081   8.598  0.1306 -0.2293  0.2189
   44CHL1   H25 5728   2.564   1.045   8.571 -0.3783  1.3807 -0.1272
   44CHL1   C26 5729   2.657   1.234   8.597 -0.2316  0.3270  0.2037
   44CHL1  H26A 5730   2.754   1.276   8.632 -0.1033 -0.9682  1.5403
   44CHL1  H26B 5731   2.642   1.280   8.497 -0.9924 -0.2065  0.0622
   44CHL1  H26C 5732   2.576   1.258   8.670 -0.8133 -0.6258 -0.1083
   44CHL1   C27 5733   2.777   1.023   8.513  0.4868 -0.1725  0.0474
   44CHL1  H27A 5734   2.782   1.087   8.422  0.6190 -1.0711 -0.5968
   44CHL1  H27B 5735   2.875   1.031   8.563  0.4791  1.5940 -0.1809
   44CHL1  H27C 5736   2.756   0.915   8.494 -0.0269 -0.5447  2.3629
   45CHL1    C3 5737   4.245   6.036  10.241 -0.1003  0.5346  0.4221
   45CHL1    H3 5738   4.351   6.018  10.267  0.5836 -2.4864 -3.5169
   45CHL1    O3 5739   4.167   6.068  10.348 -0.7633  0.1580  0.0808
   45CHL1   H3' 5740   4.079   6.081  10.312 -1.6373 -2.6206  0.9163
   45CHL1    C4 5741   4.251   6.158  10.148  0.3306  0.8807  0.1596
   45CHL1   H4A 5742   4.147   6.186  10.121 -1.0218 -3.0245  0.7047
   45CHL1   H4B 5743   4.287   6.249  10.200  1.8684 -0.1245  0.9044
   45CHL1    C5 5744   4.334   6.131  10.025  0.3867  0.5773 -0.4314
   45CHL1    C6 5745   4.441   6.198   9.989  0.2349  0.5344  0.0031
   45CHL1    H6 5746   4.473   6.285  10.049  1.6450 -0.1447  0.2873
   45CHL1    C7 5747   4.524   6.162   9.872 -0.4277  0.9523  0.9688
   45CHL1   H7A 5748   4.572   6.257   9.837 -0.3486  0.9731  1.1311
   45CHL1   H7B 5749   4.609   6.098   9.904  0.0256  0.5425 -0.9216
   45CHL1    C8 5750   4.448   6.078   9.765  0.1342 -0.1342 -0.6234
   45CHL1    H8 5751   4.530   6.032   9.705 -0.5822 -1.4890 -0.6087
   45CHL1   C14 5752   4.368   6.154   9.660  0.5491 -0.4916 -0.0051
   45CHL1   H14 5753   4.289   6.213   9.711  2.2836 -0.5971  2.9910
   45CHL1   C15 5754   4.457   6.260   9.589 -0.2048  1.1043  0.8120
   45CHL1  H15A 5755   4.392   6.345   9.558 -1.4038 -0.5508 -1.4227
   45CHL1  H15B 5756   4.545   6.295   9.648  1.2685 -0.7254 -0.1963
   45CHL1   C16 5757   4.509   6.191   9.458  0.2000 -0.6013 -0.1857
   45CHL1  H16A 5758   4.467   6.255   9.377 -0.0991  0.0092  0.4517
   45CHL1  H16B 5759   4.619   6.193   9.439  0.1136  0.9864 -0.7029
   45CHL1   C17 5760   4.431   6.053   9.446 -0.5856 -0.8067  0.0699
   45CHL1   H17 5761   4.505   5.982   9.488  1.4177  1.2747  0.2814
   45CHL1   C13 5762   4.308   6.061   9.549  0.5631  0.5491  0.2348
   45CHL1   C18 5763   4.191   6.147   9.487 -0.3450  1.0883  0.5369
   45CHL1  H18A 5764   4.160   6.098   9.393  0.4944  1.3628  0.1125
   45CHL1  H18B 5765   4.103   6.164   9.552 -0.5266  0.3563  0.4939
   45CHL1  H18C 5766   4.221   6.251   9.460  0.9677  0.3926 -0.8313
   45CHL1   C12 5767   4.256   5.925   9.615 -1.5793  0.3051 -0.0989
   45CHL1  H12A 5768   4.154   5.948   9.652 -1.2258  0.6549  0.6832
   45CHL1  H12B 5769   4.236   5.843   9.543 -1.4258 -0.5870  0.8578
   45CHL1   C11 5770   4.342   5.862   9.725 -0.5078  0.6059  0.0089
   45CHL1  H11A 5771   4.281   5.771   9.745  2.8556 -2.1511 -1.2849
   45CHL1  H11B 5772   4.432   5.812   9.684  0.2885  1.0342  1.1838
   45CHL1    C9 5773   4.376   5.960   9.834 -0.4949  0.0199 -0.6281
   45CHL1    H9 5774   4.459   5.916   9.893 -0.7004  0.2894 -0.1323
   45CHL1   C10 5775   4.279   6.002   9.950 -0.6326 -0.0037  0.6353
   45CHL1   C19 5776   4.143   6.031   9.889  0.2259  0.8343  0.9643
   45CHL1  H19A 5777   4.071   6.060   9.969 -0.7575  1.9809 -0.3099
   45CHL1  H19B 5778   4.128   6.104   9.807 -2.7751 -0.2786  0.4097
   45CHL1  H19C 5779   4.100   5.936   9.850  1.1918 -0.3291  2.5774
   45CHL1    C1 5780   4.265   5.881  10.040 -0.1844  0.2473  0.0414
   45CHL1   H1A 5781   4.216   5.799   9.983  0.0886 -0.9980  1.5375
   45CHL1   H1B 5782   4.360   5.828  10.063  0.5984  2.1704  1.4151
   45CHL1    C2 5783   4.191   5.913  10.174  0.8759 -0.5746 -0.0976
   45CHL1   H2A 5784   4.208   5.823  10.237  2.2423 -1.1756 -1.2787
   45CHL1   H2B 5785   4.088   5.922  10.132  1.3681  1.2654 -0.9743
   45CHL1   C20 5786   4.402   6.017   9.298  0.2773 -0.6692  0.7539
   45CHL1   H20 5787   4.331   6.084   9.246 -1.3481 -2.7655  0.1230
   45CHL1   C21 5788   4.333   5.878   9.287  0.7882  0.3390 -0.2241
   45CHL1  H21A 5789   4.233   5.880   9.335  0.5079  0.7953 -0.8149
   45CHL1  H21B 5790   4.397   5.799   9.333 -2.0617 -1.1514  1.5056
   45CHL1  H21C 5791   4.307   5.864   9.180  0.8434  1.9126 -0.4654
   45CHL1   C22 5792   4.541   6.001   9.218 -0.0090  0.0678 -0.0505
   45CHL1  H22A 5793   4.596   6.094   9.243  3.3123 -1.8188  0.2641
   45CHL1  H22B 5794   4.602   5.919   9.263 -0.0681 -0.8323 -1.5363
   45CHL1   C23 5795   4.525   5.976   9.075  0.8781  0.4182  0.8510
   45CHL1  H23A 5796   4.627   5.975   9.030  1.1160  2.0483  1.2818
   45CHL1  H23B 5797   4.484   5.876   9.052 -1.2328  1.4290 -0.0601
   45CHL1   C24 5798   4.457   6.089   9.001 -0.4082 -0.1599  0.5170
   45CHL1  H24A 5799   4.352   6.084   9.034  0.1165 -1.0782  2.1616
   45CHL1  H24B 5800   4.499   6.186   9.035  0.1681 -0.6365  1.1944
   45CHL1   C25 5801   4.470   6.076   8.842 -0.7795 -0.2558 -0.0157
   45CHL1   H25 5802   4.570   6.115   8.815 -0.8701  0.5990  0.8364
   45CHL1   C26 5803   4.436   5.934   8.791 -0.1133  0.1844  0.3314
   45CHL1  H26A 5804   4.414   5.928   8.682 -1.3825 -1.4760  0.6426
   45CHL1  H26B 5805   4.522   5.866   8.813  0.8795  1.0563 -0.7119
   45CHL1  H26C 5806   4.351   5.888   8.845 -0.0273 -1.7442 -1.0939
   45CHL1   C27 5807   4.363   6.185   8.789  0.5171 -0.0795 -0.4354
   45CHL1  H27A 5808   4.384   6.227   8.688  1.4461 -0.9176 -0.6149
   45CHL1  H27B 5809   4.256   6.158   8.804 -0.3212  2.7992 -0.7791
   45CHL1  H27C 5810   4.366   6.263   8.867  0.4577 -2.0218  1.6319
   46CHL1    C3 5811   1.433   4.261  10.170 -0.2188 -0.3023 -0.1828
   46CHL1    H3 5812   1.499   4.341  10.211 -1.8006  1.2230 -0.4826
   46CHL1    O3 5813   1.349   4.217  10.276 -0.1524 -0.1501 -0.4751
   46CHL1   H3' 5814   1.283   4.286  10.287 -0.7804 -0.5810 -1.3572
   46CHL1    C4 5815   1.342   4.326  10.063 -0.1420  0.0234 -0.6679
   46CHL1   H4A 5816   1.249   4.269  10.047  0.3483 -1.4039  1.2603
   46CHL1   H4B 5817   1.311   4.417  10.119  2.4352  2.0324 -2.2400
   46CHL1    C5 5818   1.407   4.374   9.934 -0.4113  0.3004 -0.1904
   46CHL1    C6 5819   1.386   4.499   9.880 -0.2992  0.4974  0.2789
   46CHL1    H6 5820   1.314   4.569   9.925  0.5025  0.7480  1.2150
   46CHL1    C7 5821   1.448   4.541   9.751 -0.3557 -0.2190 -0.1151
   46CHL1   H7A 5822   1.370   4.583   9.684 -1.4440  0.4225  1.5001
   46CHL1   H7B 5823   1.518   4.623   9.778 -1.1116  1.4374 -2.8060
   46CHL1    C8 5824   1.508   4.416   9.674  0.0188  0.6333 -0.0677
   46CHL1    H8 5825   1.424   4.357   9.632 -1.3980  3.5099 -1.5258
   46CHL1   C14 5826   1.586   4.466   9.548 -0.3729 -0.4011 -0.0473
   46CHL1   H14 5827   1.670   4.530   9.582  0.0082  0.0431 -1.7354
   46CHL1   C15 5828   1.515   4.567   9.461  0.5176  0.4570  0.5169
   46CHL1  H15A 5829   1.413   4.533   9.431  1.3459  1.0284 -3.4552
   46CHL1  H15B 5830   1.513   4.669   9.506  0.9422 -0.1717  2.0244
   46CHL1   C16 5831   1.592   4.563   9.326  0.7006 -0.0942 -0.3111
   46CHL1  H16A 5832   1.532   4.515   9.245  0.3074 -2.5412  1.3076
   46CHL1  H16B 5833   1.636   4.657   9.287 -1.2736  0.3436 -1.6763
   46CHL1   C17 5834   1.711   4.458   9.346  0.7582  0.8310 -0.1839
   46CHL1   H17 5835   1.793   4.524   9.385 -0.1580  0.9543  1.6064
   46CHL1   C13 5836   1.652   4.361   9.460 -0.4614 -0.7319  0.3041
   46CHL1   C18 5837   1.556   4.252   9.402  0.4034  0.1285 -0.1743
   46CHL1  H18A 5838   1.499   4.200   9.482 -0.3372  2.1689  0.6738
   46CHL1  H18B 5839   1.482   4.297   9.332  0.6175 -0.1396 -0.5756
   46CHL1  H18C 5840   1.606   4.182   9.332 -1.1780 -0.4608 -0.7728
   46CHL1   C12 5841   1.755   4.287   9.548  0.1415  0.1160  0.0093
   46CHL1  H12A 5842   1.794   4.196   9.498 -2.8470 -0.7326 -1.0102
   46CHL1  H12B 5843   1.829   4.369   9.561 -2.2188  2.4493 -0.2021
   46CHL1   C11 5844   1.694   4.231   9.674  0.4895  0.0966 -0.0550
   46CHL1  H11A 5845   1.638   4.137   9.653  1.2529 -0.4361  0.2677
   46CHL1  H11B 5846   1.780   4.211   9.741 -0.4274 -3.1933  0.3094
   46CHL1    C9 5847   1.599   4.329   9.758  0.4825  0.2861 -0.4885
   46CHL1    H9 5848   1.669   4.396   9.813  0.6947  0.4766 -0.9860
   46CHL1   C10 5849   1.506   4.260   9.869  0.0167 -0.0781 -1.0686
   46CHL1   C19 5850   1.426   4.144   9.804 -0.4330 -0.0936  0.4358
   46CHL1  H19A 5851   1.372   4.185   9.715  2.0943  0.9539 -0.7005
   46CHL1  H19B 5852   1.485   4.058   9.767  1.4607  0.7565  1.3422
   46CHL1  H19C 5853   1.345   4.096   9.864  0.9485 -1.9714  0.8783
   46CHL1    C1 5854   1.593   4.202   9.985 -0.0733 -0.4614  0.3556
   46CHL1   H1A 5855   1.653   4.116   9.947  2.4021 -0.0753  3.0362
   46CHL1   H1B 5856   1.663   4.280  10.020  2.3252 -2.0062 -0.6880
   46CHL1    C2 5857   1.519   4.148  10.105  0.2695  0.6855 -0.4634
   46CHL1   H2A 5858   1.589   4.109  10.183  0.3818  0.6314 -0.5902
   46CHL1   H2B 5859   1.457   4.061  10.076  0.3755 -0.0118  1.2398
   46CHL1   C20 5860   1.758   4.387   9.215  1.1839  0.5925 -0.1842
   46CHL1   H20 5861   1.680   4.322   9.170  1.0543  0.6351 -0.0175
   46CHL1   C21 5862   1.867   4.285   9.235  0.0925 -0.0506 -0.2786
   46CHL1  H21A 5863   1.947   4.314   9.306 -0.8620 -0.7428  1.1247
   46CHL1  H21B 5864   1.927   4.257   9.145 -0.4330  1.2039 -1.0379
   46CHL1  H21C 5865   1.825   4.189   9.272  1.8959 -0.3491  1.1388
   46CHL1   C22 5866   1.795   4.485   9.097  0.2004  0.1235  0.4083
   46CHL1  H22A 5867   1.704   4.534   9.059  0.8290  1.8901  1.0569
   46CHL1  H22B 5868   1.861   4.566   9.135  0.2098  0.7132 -0.8255
   46CHL1   C23 5869   1.863   4.416   8.978 -0.0046 -0.0522  0.5109
   46CHL1  H23A 5870   1.971   4.395   8.996  0.0010  0.7875  1.5738
   46CHL1  H23B 5871   1.811   4.322   8.951  0.8316 -0.0448 -1.3068
   46CHL1   C24 5872   1.868   4.524   8.864  0.5887  0.1653  0.4259
   46CHL1  H24A 5873   1.764   4.556   8.843  1.1106  2.6019  1.3147
   46CHL1  H24B 5874   1.927   4.612   8.897  0.6447  0.3213 -0.0731
   46CHL1   C25 5875   1.939   4.473   8.736  0.5183 -0.2295  0.2863
   46CHL1   H25 5876   1.871   4.388   8.711 -1.6473  1.6719 -0.5878
   46CHL1   C26 5877   1.941   4.575   8.628 -0.1526 -0.5016  0.0046
   46CHL1  H26A 5878   1.972   4.525   8.534  0.7407  1.4521 -0.7862
   46CHL1  H26B 5879   1.850   4.636   8.610  1.7598  2.8368  0.6864
   46CHL1  H26C 5880   2.019   4.651   8.647 -1.6671  1.3212 -0.7745
   46CHL1   C27 5881   2.089   4.429   8.762  0.0890 -0.4402  0.6678
   46CHL1  H27A 5882   2.148   4.517   8.795 -0.6425  0.4663 -0.3766
   46CHL1  H27B 5883   2.097   4.349   8.840 -0.9866 -0.1689  1.0804
   46CHL1  H27C 5884   2.137   4.389   8.671 -1.3672  0.1504 -0.4061
   47CHL1    C3 5885   1.817   0.793  10.074  0.7162  0.0440 -0.1576
   47CHL1    H3 5886   1.732   0.861  10.052  1.9242  2.0285  1.0251
   47CHL1    O3 5887   1.836   0.784  10.216  0.1338 -0.4056  0.5621
   47CHL1   H3' 5888   1.853   0.873  10.248  0.5899 -0.4232  0.3812
   47CHL1    C4 5889   1.799   0.658  10.002 -0.7795  0.3706  0.7940
   47CHL1   H4A 5890   1.886   0.592  10.024  0.0703  0.5278 -1.7601
   47CHL1   H4B 5891   1.714   0.603  10.047 -1.2584 -0.2803 -0.8527
   47CHL1    C5 5892   1.788   0.677   9.849  0.0135 -0.6923 -0.1573
   47CHL1    C6 5893   1.688   0.634   9.778  0.2282  0.4400  0.2349
   47CHL1    H6 5894   1.599   0.591   9.826  0.1623 -0.5952 -0.7865
   47CHL1    C7 5895   1.680   0.639   9.626  0.8952 -0.0241  0.1490
   47CHL1   H7A 5896   1.658   0.539   9.583 -1.5775  0.9512 -1.0496
   47CHL1   H7B 5897   1.593   0.698   9.590  0.5717 -0.8357 -0.4331
   47CHL1    C8 5898   1.806   0.686   9.552 -0.6847 -0.3431  1.2517
   47CHL1    H8 5899   1.881   0.605   9.547 -1.4926 -1.1332  1.6926
   47CHL1   C14 5900   1.781   0.737   9.411  0.1880  0.4941 -0.1664
   47CHL1   H14 5901   1.707   0.816   9.439 -1.4597 -1.5172  1.4908
   47CHL1   C15 5902   1.709   0.644   9.314  0.0782  0.4295  0.8526
   47CHL1  H15A 5903   1.767   0.549   9.315  0.4688  0.6415 -0.3137
   47CHL1  H15B 5904   1.606   0.618   9.348  0.0192 -0.2956  0.1551
   47CHL1   C16 5905   1.721   0.713   9.175  0.9095  0.4805  0.1772
   47CHL1  H16A 5906   1.767   0.642   9.102 -0.1042 -0.5597  0.5278
   47CHL1  H16B 5907   1.629   0.761   9.136  0.9651 -0.3090 -0.9954
   47CHL1   C17 5908   1.836   0.815   9.193 -0.3761  0.5017  0.0119
   47CHL1   H17 5909   1.792   0.917   9.202  1.1779  1.1877  0.0096
   47CHL1   C13 5910   1.903   0.784   9.329 -0.2403 -0.1405 -0.3531
   47CHL1   C18 5911   2.007   0.671   9.310  0.0714 -0.2196 -0.0219
   47CHL1  H18A 5912   1.968   0.585   9.251  0.9191 -1.1098  0.6889
   47CHL1  H18B 5913   2.098   0.696   9.251  0.5911 -2.1895 -0.1317
   47CHL1  H18C 5914   2.043   0.627   9.405 -0.9871 -0.4019  0.3068
   47CHL1   C12 5915   1.977   0.896   9.414 -0.0306  0.5046  0.6002
   47CHL1  H12A 5916   2.072   0.926   9.365  0.6095 -1.9316  0.2201
   47CHL1  H12B 5917   1.907   0.981   9.426 -2.2355 -0.8180 -1.9961
   47CHL1   C11 5918   2.008   0.858   9.563  0.0836 -0.0117  0.0784
   47CHL1  H11A 5919   2.089   0.782   9.560 -1.1295 -1.3647  0.2231
   47CHL1  H11B 5920   2.044   0.946   9.620  2.3485 -0.2540 -0.8978
   47CHL1    C9 5921   1.879   0.798   9.634 -0.6550  0.1061 -0.4250
   47CHL1    H9 5922   1.817   0.891   9.634  2.4105  2.3354 -1.1252
   47CHL1   C10 5923   1.906   0.753   9.777  0.3368  0.2338 -0.4339
   47CHL1   C19 5924   2.029   0.664   9.778  0.7612 -0.1974 -0.2061
   47CHL1  H19A 5925   2.043   0.603   9.870  1.9951 -1.7365 -1.3439
   47CHL1  H19B 5926   2.042   0.602   9.687 -1.0427  0.2039 -0.7761
   47CHL1  H19C 5927   2.114   0.736   9.782 -0.3380  1.2202 -1.2885
   47CHL1    C1 5928   1.938   0.880   9.862  0.4180  0.0441 -0.7592
   47CHL1   H1A 5929   2.037   0.915   9.827  0.8889 -0.7973 -0.2974
   47CHL1   H1B 5930   1.868   0.960   9.827  0.8306  0.3821 -0.8246
   47CHL1    C2 5931   1.947   0.859  10.018  0.1156 -0.0295  0.3246
   47CHL1   H2A 5932   1.967   0.957  10.065  1.6804  0.8190 -1.9635
   47CHL1   H2B 5933   2.022   0.780  10.039 -0.6900 -1.0563 -0.5104
   47CHL1   C20 5934   1.933   0.820   9.073  0.1589  0.5516 -0.3947
   47CHL1   H20 5935   1.990   0.725   9.059 -1.1317 -0.7405  2.4671
   47CHL1   C21 5936   2.045   0.931   9.093 -0.2925  0.0208  0.8687
   47CHL1  H21A 5937   2.078   0.962   8.992 -1.2985 -0.2926  0.4230
   47CHL1  H21B 5938   2.130   0.899   9.157  1.2932  2.6414  0.2268
   47CHL1  H21C 5939   1.994   1.018   9.139  0.3579  0.3511  0.9771
   47CHL1   C22 5940   1.849   0.862   8.953  0.5191 -0.0158  0.8371
   47CHL1  H22A 5941   1.763   0.792   8.947  2.2771 -2.1882 -0.0282
   47CHL1  H22B 5942   1.814   0.967   8.965  2.1688  0.7654 -0.7445
   47CHL1   C23 5943   1.907   0.846   8.806  1.5406 -0.1862  0.2219
   47CHL1  H23A 5944   1.995   0.912   8.791 -0.1796  1.5086 -4.4519
   47CHL1  H23B 5945   1.945   0.742   8.795 -1.8554 -1.8842  2.7080
   47CHL1   C24 5946   1.794   0.867   8.696  0.0699 -0.0331  0.0156
   47CHL1  H24A 5947   1.716   0.793   8.723  1.0017 -0.8209  0.6416
   47CHL1  H24B 5948   1.763   0.972   8.678 -1.0131 -0.4957 -0.8501
   47CHL1   C25 5949   1.837   0.835   8.555  0.3033  0.0769  0.2166
   47CHL1   H25 5950   1.911   0.754   8.572 -0.1858 -0.1909  1.1573
   47CHL1   C26 5951   1.730   0.771   8.461  1.1805  0.3216  0.4829
   47CHL1  H26A 5952   1.780   0.768   8.361  2.0460 -1.6957  0.9146
   47CHL1  H26B 5953   1.635   0.828   8.460 -0.0572 -1.6690 -0.1493
   47CHL1  H26C 5954   1.702   0.668   8.492 -0.1838  0.5183 -0.0359
   47CHL1   C27 5955   1.907   0.953   8.481  0.3707 -0.4060 -0.4241
   47CHL1  H27A 5956   1.839   1.036   8.452  0.7451  0.8455  2.0507
   47CHL1  H27B 5957   1.979   1.003   8.549 -1.9793 -0.0653  1.9826
   47CHL1  H27C 5958   1.971   0.919   8.397  3.2782  1.3164  0.9369
   48CHL1    C3 5959   3.021   1.211  10.128 -0.4758  0.0325  0.4443
   48CHL1    H3 5960   2.914   1.240  10.130 -1.7214 -3.5321  5.4576
   48CHL1    O3 5961   3.051   1.125  10.246  0.4127 -0.1964 -0.0732
   48CHL1   H3' 5962   3.029   1.035  10.219 -0.5160 -0.0470  0.1592
   48CHL1    C4 5963   3.067   1.140  10.003  0.3247 -0.2638 -0.2655
   48CHL1   H4A 5964   3.169   1.099  10.020  0.2657 -0.7577 -1.0791
   48CHL1   H4B 5965   2.999   1.053  10.006 -1.8795  1.2132 -2.9778
   48CHL1    C5 5966   3.048   1.221   9.883 -0.1754 -0.1772  0.1948
   48CHL1    C6 5967   2.968   1.179   9.789 -0.4712  0.8352 -0.7125
   48CHL1    H6 5968   2.918   1.081   9.794 -0.0465  0.6522  0.0967
   48CHL1    C7 5969   2.931   1.263   9.670  0.0593 -0.2452 -0.4332
   48CHL1   H7A 5970   2.909   1.205   9.577 -0.5273  1.1570 -1.1900
   48CHL1   H7B 5971   2.825   1.294   9.686 -0.2197 -0.2237 -2.1090
   48CHL1    C8 5972   3.024   1.385   9.648 -0.6616  0.6576 -0.5736
   48CHL1    H8 5973   3.126   1.353   9.618  0.2397  1.9945  0.9250
   48CHL1   C14 5974   2.978   1.475   9.534 -0.1894  0.2161 -0.2295
   48CHL1   H14 5975   2.868   1.490   9.546  0.0131  0.6064  1.2950
   48CHL1   C15 5976   2.965   1.412   9.392 -0.3073  0.3621  0.2825
   48CHL1  H15A 5977   3.061   1.361   9.368  0.4834  1.5134  0.8816
   48CHL1  H15B 5978   2.878   1.343   9.398  0.3560 -0.3823  2.6359
   48CHL1   C16 5979   2.952   1.542   9.315 -0.1697 -0.0431  0.0085
   48CHL1  H16A 5980   3.038   1.545   9.246  0.5632 -0.0960  0.8987
   48CHL1  H16B 5981   2.856   1.547   9.260 -1.1711  1.2222  1.7674
   48CHL1   C17 5982   2.974   1.670   9.408  0.7789  0.2231  0.1470
   48CHL1   H17 5983   2.872   1.694   9.446  1.1921  0.5845  1.0442
   48CHL1   C13 5984   3.051   1.611   9.525 -0.3273  0.0667 -0.1406
   48CHL1   C18 5985   3.202   1.592   9.485  0.3710  0.6461 -1.0776
   48CHL1  H18A 5986   3.255   1.521   9.552 -1.6925 -0.4672 -0.5375
   48CHL1  H18B 5987   3.218   1.568   9.377 -0.0356 -1.3736 -0.7309
   48CHL1  H18C 5988   3.247   1.693   9.497 -1.7052  1.9436 -3.2093
   48CHL1   C12 5989   3.052   1.690   9.662  1.5356  0.4820  0.0327
   48CHL1  H12A 5990   3.108   1.786   9.658 -3.0067  3.5036  1.1010
   48CHL1  H12B 5991   2.953   1.712   9.706  1.1002  0.5961 -0.9735
   48CHL1   C11 5992   3.103   1.606   9.774 -0.4051 -0.2004 -0.5925
   48CHL1  H11A 5993   3.212   1.591   9.758 -0.5753 -0.8477 -1.1861
   48CHL1  H11B 5994   3.089   1.649   9.875 -1.1415 -1.3106 -0.2134
   48CHL1    C9 5995   3.044   1.458   9.784  0.6517  0.1961 -0.7439
   48CHL1    H9 5996   2.940   1.477   9.817  0.8142 -1.7630  1.1237
   48CHL1   C10 5997   3.104   1.367   9.897  0.3244 -0.4355  0.5790
   48CHL1   C19 5998   3.255   1.338   9.861  0.1036  0.2482 -0.0757
   48CHL1  H19A 5999   3.261   1.297   9.758 -2.2648  0.6119 -0.4206
   48CHL1  H19B 6000   3.315   1.430   9.878 -1.2693  1.0832  0.3922
   48CHL1  H19C 6001   3.301   1.256   9.920  0.0509 -0.5521 -1.1230
   48CHL1    C1 6002   3.081   1.435  10.033 -0.0197  0.6836  0.2342
   48CHL1   H1A 6003   3.142   1.526  10.049 -0.0763  0.2050  4.1591
   48CHL1   H1B 6004   2.975   1.468  10.036  0.1339  1.1336  1.0155
   48CHL1    C2 6005   3.107   1.338  10.145  0.0631 -0.4383 -0.2342
   48CHL1   H2A 6006   3.075   1.385  10.241 -1.2921  0.4656 -1.0966
   48CHL1   H2B 6007   3.216   1.323  10.154  0.2579  0.4046 -1.0991
   48CHL1   C20 6008   3.036   1.791   9.333  0.4383 -0.6719  0.0493
   48CHL1   H20 6009   3.129   1.752   9.286 -0.7261 -0.8238 -2.2802
   48CHL1   C21 6010   3.072   1.920   9.412  0.0735  0.5180 -0.0497
   48CHL1  H21A 6011   3.162   1.886   9.468  0.8592 -1.7856 -2.5023
   48CHL1  H21B 6012   2.989   1.939   9.483 -2.2386 -1.0650 -2.1165
   48CHL1  H21C 6013   3.099   2.013   9.357 -0.9516  0.7243 -0.2271
   48CHL1   C22 6014   2.944   1.814   9.209  0.0022 -0.1312  0.0406
   48CHL1  H22A 6015   2.936   1.725   9.143 -4.6408  0.0807 -0.0749
   48CHL1  H22B 6016   2.840   1.819   9.249 -2.4208 -1.1835 -5.2339
   48CHL1   C23 6017   2.970   1.949   9.132 -0.3241 -0.6127 -0.2823
   48CHL1  H23A 6018   2.894   1.941   9.051 -1.4915  1.1122  0.6007
   48CHL1  H23B 6019   2.958   2.035   9.201  0.4031 -0.9293  0.2527
   48CHL1   C24 6020   3.103   1.965   9.055 -0.0291  0.2574  0.3756
   48CHL1  H24A 6021   3.190   1.956   9.124  0.5103 -1.7323 -0.4998
   48CHL1  H24B 6022   3.114   1.884   8.981  2.2505 -1.0747  2.0241
   48CHL1   C25 6023   3.119   2.102   8.986  0.1153  0.2456 -0.1076
   48CHL1   H25 6024   3.021   2.143   8.955 -1.1248 -1.1902  1.6628
   48CHL1   C26 6025   3.180   2.209   9.081 -0.4445  0.8115  0.5754
   48CHL1  H26A 6026   3.184   2.314   9.044  2.3898  0.2774 -0.9437
   48CHL1  H26B 6027   3.141   2.197   9.184  1.4673 -3.1338  1.0503
   48CHL1  H26C 6028   3.288   2.181   9.085 -0.2684  0.6698 -2.5024
   48CHL1   C27 6029   3.201   2.094   8.854 -0.2459  0.6417 -0.8106
   48CHL1  H27A 6030   3.151   2.010   8.803  0.3284  0.4599 -1.0801
   48CHL1  H27B 6031   3.198   2.196   8.810  0.7824  0.4061 -1.4817
   48CHL1  H27C 6032   3.307   2.067   8.877 -0.3044  1.4231  0.4944
   49CHL1    C3 6033   0.688   3.564  10.055  0.0957 -0.8722  0.5778
   49CHL1    H3 6034   0.630   3.486  10.109 -0.2469 -2.0331 -1.3690
   49CHL1    O3 6035   0.750   3.642  10.154  0.2072 -0.0509  0.0476
   49CHL1   H3' 6036   0.798   3.575  10.203 -0.6534 -2.9053 -2.6545
   49CHL1    C4 6037   0.790   3.511   9.961  0.5119  0.3463  0.0902
   49CHL1   H4A 6038   0.858   3.595   9.936 -0.5419  1.6629  1.4453
   49CHL1   H4B 6039   0.844   3.440  10.027 -0.9292 -1.0248 -0.1487
   49CHL1    C5 6040   0.748   3.450   9.831  0.7156 -0.0100 -0.2685
   49CHL1    C6 6041   0.791   3.329   9.792 -0.9637 -0.1153 -1.2432
   49CHL1    H6 6042   0.860   3.279   9.861  0.0982  3.3160  0.4356
   49CHL1    C7 6043   0.759   3.274   9.659  0.5260  0.3674 -0.0177
   49CHL1   H7A 6044   0.844   3.226   9.607  0.7448  0.6457  0.0807
   49CHL1   H7B 6045   0.681   3.197   9.678  0.2987  0.2673 -1.2690
   49CHL1    C8 6046   0.685   3.371   9.569  0.2175 -0.1533  0.3002
   49CHL1    H8 6047   0.769   3.432   9.529 -0.2986  0.7018  0.4863
   49CHL1   C14 6048   0.611   3.292   9.462 -0.7485 -0.0110  0.0617
   49CHL1   H14 6049   0.532   3.231   9.509  1.2383 -1.0362  2.2536
   49CHL1   C15 6050   0.698   3.195   9.377  0.4925 -0.0693 -0.0064
   49CHL1  H15A 6051   0.801   3.227   9.353  0.2988 -0.7575 -1.9585
   49CHL1  H15B 6052   0.701   3.094   9.425  0.6657 -0.1461 -0.1813
   49CHL1   C16 6053   0.633   3.191   9.239 -0.2655  0.4890 -0.2892
   49CHL1  H16A 6054   0.709   3.233   9.171  1.7832 -3.2518 -0.6043
   49CHL1  H16B 6055   0.611   3.084   9.220  2.0988  0.0895 -1.1058
   49CHL1   C17 6056   0.504   3.270   9.254 -0.1841  0.8286  0.4675
   49CHL1   H17 6057   0.436   3.191   9.293  0.1391  0.2729 -0.0731
   49CHL1   C13 6058   0.541   3.379   9.355 -0.6640  0.6966  0.3020
   49CHL1   C18 6059   0.641   3.471   9.287  0.3313 -0.4689  0.1357
   49CHL1  H18A 6060   0.714   3.423   9.218 -1.4549 -1.5285 -1.0874
   49CHL1  H18B 6061   0.582   3.538   9.221 -0.5116 -0.1030  1.2298
   49CHL1  H18C 6062   0.692   3.528   9.368 -0.4118 -2.3133  1.9791
   49CHL1   C12 6063   0.433   3.458   9.431 -0.5692  0.0530 -0.5332
   49CHL1  H12A 6064   0.390   3.524   9.353  0.9869 -1.2698 -2.6188
   49CHL1  H12B 6065   0.349   3.401   9.477 -0.8332 -0.9250 -2.1577
   49CHL1   C11 6066   0.498   3.540   9.549  0.4718 -0.3069  0.0846
   49CHL1  H11A 6067   0.546   3.628   9.502 -3.4260  0.5864 -2.5985
   49CHL1  H11B 6068   0.420   3.594   9.606  0.8083  1.5433 -1.1409
   49CHL1    C9 6069   0.589   3.459   9.643 -0.1050 -0.3515 -0.3191
   49CHL1    H9 6070   0.509   3.397   9.688 -0.2882  0.2830  0.2515
   49CHL1   C10 6071   0.646   3.537   9.754 -0.3793 -0.6963  0.3352
   49CHL1   C19 6072   0.723   3.659   9.696  0.2567  0.1425  0.4609
   49CHL1  H19A 6073   0.778   3.632   9.603 -2.8202 -0.9690 -1.1990
   49CHL1  H19B 6074   0.644   3.735   9.678 -0.0391 -0.4921 -1.1348
   49CHL1  H19C 6075   0.795   3.712   9.761 -1.2724 -1.8689  4.0625
   49CHL1    C1 6076   0.531   3.583   9.855  0.4262 -0.1471 -0.0486
   49CHL1   H1A 6077   0.460   3.654   9.808  0.6689 -0.3523 -0.7443
   49CHL1   H1B 6078   0.473   3.496   9.893  0.3020  0.0111  0.1257
   49CHL1    C2 6079   0.596   3.654   9.969  0.5067 -0.0405 -0.2335
   49CHL1   H2A 6080   0.507   3.690  10.025 -0.1191 -1.8216 -0.0185
   49CHL1   H2B 6081   0.643   3.747   9.930  2.7278 -0.6120  0.8799
   49CHL1   C20 6082   0.463   3.324   9.116  0.2645  0.0759  0.1870
   49CHL1   H20 6083   0.536   3.398   9.077 -0.1243  0.1389 -0.4299
   49CHL1   C21 6084   0.323   3.392   9.121  0.7560 -0.2593  0.4115
   49CHL1  H21A 6085   0.332   3.496   9.157  0.0945  1.2441 -3.3137
   49CHL1  H21B 6086   0.255   3.327   9.180  1.2715  0.0485  1.3728
   49CHL1  H21C 6087   0.284   3.403   9.018  1.3304  0.4664  0.2677
   49CHL1   C22 6088   0.458   3.210   9.006  0.7907 -0.0165 -0.4987
   49CHL1  H22A 6089   0.434   3.268   8.914 -1.4560 -1.6948 -1.0377
   49CHL1  H22B 6090   0.561   3.176   8.984  0.6659 -0.6687 -0.1000
   49CHL1   C23 6091   0.359   3.096   9.024  0.0945  0.1172 -0.5944
   49CHL1  H23A 6092   0.369   3.038   9.119  2.1289  2.4605  0.7266
   49CHL1  H23B 6093   0.256   3.138   9.029  0.4886  0.9760  1.0191
   49CHL1   C24 6094   0.372   2.992   8.912  0.0465 -0.2654  0.1337
   49CHL1  H24A 6095   0.479   2.964   8.899  0.0872  0.5621 -1.6068
   49CHL1  H24B 6096   0.316   2.902   8.946  3.3582 -2.2447  0.8070
   49CHL1   C25 6097   0.349   3.045   8.769  0.5520 -0.5520  0.1082
   49CHL1   H25 6098   0.426   3.125   8.760  0.2427 -0.1230  1.1400
   49CHL1   C26 6099   0.374   2.935   8.665  0.3206  0.2634 -0.1708
   49CHL1  H26A 6100   0.467   2.883   8.697  1.6644  0.2141 -3.7484
   49CHL1  H26B 6101   0.296   2.856   8.662 -0.0792  0.6853 -2.0561
   49CHL1  H26C 6102   0.395   2.972   8.563  0.8581  1.1171  0.2387
   49CHL1   C27 6103   0.208   3.096   8.760  0.2143  0.0861  0.0459
   49CHL1  H27A 6104   0.121   3.028   8.763  0.2606  0.0491  1.7306
   49CHL1  H27B 6105   0.190   3.172   8.840 -0.1790 -0.3907  0.4117
   49CHL1  H27C 6106   0.203   3.149   8.662  1.4443 -0.4312 -0.3240
   50CHL1    C3 6107   3.776   6.386  10.034  0.3563  0.1976  0.3081
   50CHL1    H3 6108   3.771   6.296   9.968 -0.8561 -0.4550  1.2596
   50CHL1    O3 6109   3.736   6.346  10.165  0.0966  0.2029  0.1675
   50CHL1   H3' 6110   3.775   6.259  10.176  1.0721  0.3726 -1.6965
   50CHL1    C4 6111   3.930   6.427  10.027  0.2241  0.3282 -0.0009
   50CHL1   H4A 6112   3.931   6.512  10.098 -0.4191  0.2458  0.1160
   50CHL1   H4B 6113   3.983   6.341  10.074  0.5008  0.7164  0.4014
   50CHL1    C5 6114   3.988   6.472   9.898 -0.7011  0.0620 -0.0215
   50CHL1    C6 6115   4.100   6.421   9.839  0.3540  0.8368 -0.1243
   50CHL1    H6 6116   4.160   6.338   9.878  0.0750 -0.5929 -2.5502
   50CHL1    C7 6117   4.157   6.463   9.705  0.1700  0.2959  0.1609
   50CHL1   H7A 6118   4.267   6.476   9.708  0.0527  1.2782  1.0531
   50CHL1   H7B 6119   4.138   6.382   9.631 -1.1843  0.0004  0.7869
   50CHL1    C8 6120   4.088   6.593   9.654 -0.0689 -0.8637  0.6858
   50CHL1    H8 6121   4.141   6.680   9.699  1.5793 -2.2320  1.4956
   50CHL1   C14 6122   4.108   6.609   9.504  0.5991  0.1412 -0.0811
   50CHL1   H14 6123   4.059   6.532   9.440  1.6679  0.2437 -1.0524
   50CHL1   C15 6124   4.256   6.612   9.461 -0.1307  0.4542 -0.3521
   50CHL1  H15A 6125   4.323   6.679   9.519  1.8080 -0.7063 -1.1376
   50CHL1  H15B 6126   4.293   6.507   9.462 -1.1467  0.0773  0.4223
   50CHL1   C16 6127   4.256   6.677   9.316 -0.4320 -0.2004  0.3906
   50CHL1  H16A 6128   4.319   6.769   9.312  0.5618 -0.9062 -1.0994
   50CHL1  H16B 6129   4.287   6.613   9.231 -1.2111 -0.6950  0.4711
   50CHL1   C17 6130   4.111   6.726   9.297 -0.2823 -0.5882  0.4761
   50CHL1   H17 6131   4.056   6.643   9.249  0.4343 -1.4632  1.1439
   50CHL1   C13 6132   4.055   6.740   9.443 -0.0118  0.1212 -0.4268
   50CHL1   C18 6133   4.108   6.869   9.499 -0.2164  0.3680 -0.6156
   50CHL1  H18A 6134   4.092   6.866   9.609  1.5236  1.3431 -0.2861
   50CHL1  H18B 6135   4.218   6.888   9.494 -0.3091  1.0136 -0.3201
   50CHL1  H18C 6136   4.062   6.955   9.446  2.6249  0.8964 -2.4448
   50CHL1   C12 6137   3.904   6.724   9.460 -0.0329 -0.4718  0.0617
   50CHL1  H12A 6138   3.842   6.803   9.413 -1.7672 -1.0135  1.3093
   50CHL1  H12B 6139   3.868   6.627   9.418 -0.6335 -0.4946  0.6015
   50CHL1   C11 6140   3.862   6.703   9.609 -0.2016 -0.2700  0.4814
   50CHL1  H11A 6141   3.894   6.797   9.659  3.9624 -1.7331  0.9569
   50CHL1  H11B 6142   3.754   6.678   9.603  0.2757 -2.3916 -0.3425
   50CHL1    C9 6143   3.940   6.593   9.685 -0.3313 -0.2068  0.5538
   50CHL1    H9 6144   3.912   6.497   9.637 -2.4713  1.0483 -0.8852
   50CHL1   C10 6145   3.907   6.582   9.831  0.3058 -0.0396  0.6759
   50CHL1   C19 6146   3.934   6.718   9.906  0.1407 -0.4584 -0.2692
   50CHL1  H19A 6147   4.021   6.783   9.881  0.8844  0.7852  4.5121
   50CHL1  H19B 6148   3.843   6.780   9.896  0.1810 -0.5034 -1.0049
   50CHL1  H19C 6149   3.933   6.713  10.017 -3.0012  3.0902  0.0572
   50CHL1    C1 6150   3.750   6.538   9.839  0.2688 -0.4279 -0.5146
   50CHL1   H1A 6151   3.693   6.621   9.794  1.8288 -0.1417 -2.1076
   50CHL1   H1B 6152   3.737   6.449   9.773 -1.4378  0.1957 -1.0568
   50CHL1    C2 6153   3.701   6.503   9.980 -0.5001  0.0754  0.1855
   50CHL1   H2A 6154   3.592   6.482   9.973 -0.3822 -1.6752  2.3895
   50CHL1   H2B 6155   3.703   6.596  10.042  0.2359  0.9236 -1.0595
   50CHL1   C20 6156   4.104   6.846   9.202  0.5942 -0.4042 -0.6729
   50CHL1   H20 6157   4.165   6.922   9.255  0.5929 -1.8177  1.5049
   50CHL1   C21 6158   3.960   6.905   9.188 -0.2891  0.1928  0.0345
   50CHL1  H21A 6159   3.915   6.934   9.285  2.0313  0.2429  1.1733
   50CHL1  H21B 6160   3.890   6.837   9.134 -0.3197  0.8531 -0.7853
   50CHL1  H21C 6161   3.967   6.987   9.113  0.0560 -0.1363 -0.3021
   50CHL1   C22 6162   4.169   6.835   9.065  0.3956  0.3566  0.6337
   50CHL1  H22A 6163   4.136   6.922   9.005  1.6916  0.4954  0.0884
   50CHL1  H22B 6164   4.279   6.843   9.078  1.0174 -3.8858 -0.4773
   50CHL1   C23 6165   4.139   6.696   8.992  0.3349 -0.8824 -0.7318
   50CHL1  H23A 6166   4.202   6.617   9.038 -0.1544 -0.8728 -0.0215
   50CHL1  H23B 6167   4.030   6.680   9.002 -0.9246  2.9636 -4.9948
   50CHL1   C24 6168   4.174   6.702   8.843 -0.0270  0.2557  0.0107
   50CHL1  H24A 6169   4.152   6.599   8.808 -0.1466 -0.0009  0.8195
   50CHL1  H24B 6170   4.106   6.779   8.801 -0.6249 -0.3613 -0.1797
   50CHL1   C25 6171   4.320   6.751   8.816 -0.3267  0.7520 -0.9769
   50CHL1   H25 6172   4.336   6.850   8.863 -1.9058  0.4350  0.3291
   50CHL1   C26 6173   4.410   6.639   8.872 -0.4303 -0.1537 -0.1874
   50CHL1  H26A 6174   4.516   6.663   8.848 -0.3732 -0.5266 -0.3337
   50CHL1  H26B 6175   4.409   6.629   8.982 -1.1024 -0.1169 -0.1849
   50CHL1  H26C 6176   4.380   6.544   8.822 -1.9928  0.4310 -0.4318
   50CHL1   C27 6177   4.338   6.751   8.659 -0.2690  0.5509 -0.1346
   50CHL1  H27A 6178   4.309   6.651   8.620 -1.4284  1.4174 -1.5741
   50CHL1  H27B 6179   4.264   6.812   8.603 -0.7980 -0.8821 -1.0490
   50CHL1  H27C 6180   4.445   6.775   8.642 -0.3170  0.8474 -0.0267
   51CHL1    C3 6181   6.186   0.416  10.319  0.4112  0.7548 -0.5860
   51CHL1    H3 6182   6.238   0.514  10.326 -1.6134  1.8544 -0.4641
   51CHL1    O3 6183   6.168   0.357  10.448 -0.2446 -0.3019 -0.3621
   51CHL1   H3' 6184   6.109   0.282  10.441  0.4110 -0.7985 -0.7153
   51CHL1    C4 6185   6.045   0.434  10.257 -0.1441  0.2215 -0.2602
   51CHL1   H4A 6186   5.989   0.340  10.268  1.7580 -0.8672  0.6936
   51CHL1   H4B 6187   6.000   0.504  10.331 -2.3061 -0.6877 -0.6462
   51CHL1    C5 6188   6.045   0.478  10.116 -0.2569  0.2805  1.2094
   51CHL1    C6 6189   5.988   0.595  10.076 -0.1319  0.5388 -0.3652
   51CHL1    H6 6190   5.923   0.644  10.150  2.5446 -0.2488  2.7512
   51CHL1    C7 6191   5.979   0.628   9.930 -0.0884 -0.4947 -0.0022
   51CHL1   H7A 6192   5.873   0.655   9.912  0.0941  0.7658  0.6756
   51CHL1   H7B 6193   6.034   0.722   9.908 -0.3167 -0.0029  1.4320
   51CHL1    C8 6194   6.021   0.521   9.831  0.2967  0.5730  0.1405
   51CHL1    H8 6195   5.952   0.434   9.823  0.0411  0.7006  0.8673
   51CHL1   C14 6196   6.040   0.572   9.692 -1.3175  0.5344  0.6280
   51CHL1   H14 6197   6.117   0.650   9.714  0.7615 -1.4455  0.8071
   51CHL1   C15 6198   5.918   0.640   9.633  0.4152 -0.0491  1.1602
   51CHL1  H15A 6199   5.830   0.575   9.652 -0.9851  0.9762 -1.3677
   51CHL1  H15B 6200   5.902   0.740   9.678 -1.5633 -0.0912  0.6390
   51CHL1   C16 6201   5.944   0.631   9.487 -0.2073 -0.0670  0.5965
   51CHL1  H16A 6202   5.868   0.582   9.422 -1.3082  0.6767  1.2937
   51CHL1  H16B 6203   5.960   0.735   9.451 -0.6928 -0.2552 -0.1736
   51CHL1   C17 6204   6.081   0.562   9.466 -0.4476 -0.1562  0.6938
   51CHL1   H17 6205   6.163   0.636   9.478 -1.6547  1.2105  0.7487
   51CHL1   C13 6206   6.094   0.475   9.593  0.0521  0.2648  0.9380
   51CHL1   C18 6207   6.008   0.348   9.580  0.2859 -0.1285 -0.4607
   51CHL1  H18A 6208   6.045   0.283   9.498 -1.1501 -0.0352 -1.2153
   51CHL1  H18B 6209   6.011   0.289   9.674  1.7710  1.6262  0.6562
   51CHL1  H18C 6210   5.903   0.374   9.555  0.0921 -0.6019 -0.1479
   51CHL1   C12 6211   6.240   0.444   9.633  0.0984 -0.5400 -0.1610
   51CHL1  H12A 6212   6.293   0.381   9.559  1.4937 -0.4479  0.7346
   51CHL1  H12B 6213   6.292   0.542   9.631 -3.7602  1.7213  0.1033
   51CHL1   C11 6214   6.239   0.379   9.770  0.1589  0.4518  0.3974
   51CHL1  H11A 6215   6.194   0.279   9.753 -0.3902  1.0502 -2.1788
   51CHL1  H11B 6216   6.345   0.361   9.800 -0.2291 -2.6802  0.2356
   51CHL1    C9 6217   6.161   0.456   9.876  0.6743 -0.9686 -0.6025
   51CHL1    H9 6218   6.227   0.544   9.894 -0.6859 -0.4219  2.2222
   51CHL1   C10 6219   6.137   0.392  10.019  0.3211 -1.3726  0.1557
   51CHL1   C19 6220   6.082   0.255  10.001  0.0018  0.0104 -0.6401
   51CHL1  H19A 6221   6.045   0.196  10.087 -0.3563 -0.4744 -1.1218
   51CHL1  H19B 6222   5.998   0.266   9.929 -0.1651  1.5198 -0.2446
   51CHL1  H19C 6223   6.158   0.194   9.947 -1.2384 -3.1509  0.9533
   51CHL1    C1 6224   6.272   0.380  10.084 -0.1688 -0.6137  0.1579
   51CHL1   H1A 6225   6.338   0.311  10.027 -0.0234 -0.1805 -0.2050
   51CHL1   H1B 6226   6.324   0.478  10.081 -4.0764  1.6557 -1.1378
   51CHL1    C2 6227   6.272   0.323  10.223  0.4068  0.3139  0.0374
   51CHL1   H2A 6228   6.376   0.317  10.261 -0.0447  1.4819  1.5892
   51CHL1   H2B 6229   6.232   0.219  10.222 -2.2018  1.2573  0.1427
   51CHL1   C20 6230   6.086   0.490   9.328  0.5238  0.4469 -0.3469
   51CHL1   H20 6231   6.002   0.418   9.339 -1.1499  2.7615  4.4480
   51CHL1   C21 6232   6.210   0.401   9.291 -0.0098 -0.3916 -0.4938
   51CHL1  H21A 6233   6.223   0.326   9.372 -0.0115 -1.3861 -1.3964
   51CHL1  H21B 6234   6.305   0.458   9.287 -1.2662  2.0117  1.1993
   51CHL1  H21C 6235   6.194   0.340   9.200 -0.5524 -2.2563  0.7969
   51CHL1   C22 6236   6.054   0.582   9.204 -0.0272 -0.3305 -0.2702
   51CHL1  H22A 6237   5.992   0.669   9.236  0.2380 -0.0277 -0.5608
   51CHL1  H22B 6238   6.144   0.641   9.178 -1.3347  1.0898 -1.8348
   51CHL1   C23 6239   6.010   0.512   9.077 -0.2629 -0.0473 -0.5812
   51CHL1  H23A 6240   6.082   0.431   9.053  1.7851  1.5180 -0.0172
   51CHL1  H23B 6241   5.910   0.468   9.097 -1.3621  2.4044 -0.2427
   51CHL1   C24 6242   6.000   0.613   8.957 -0.0175 -0.4976  0.1807
   51CHL1  H24A 6243   5.919   0.683   8.987 -0.8965 -0.9152 -1.1656
   51CHL1  H24B 6244   6.097   0.665   8.941 -0.2605 -0.5870 -1.7950
   51CHL1   C25 6245   5.970   0.550   8.818 -0.3923 -0.5553  0.2454
   51CHL1   H25 6246   5.866   0.513   8.831 -0.9838  1.3078  1.0081
   51CHL1   C26 6247   5.966   0.660   8.719  0.0996 -0.1350 -0.3016
   51CHL1  H26A 6248   6.065   0.710   8.716 -0.0385  0.1769  0.2787
   51CHL1  H26B 6249   5.953   0.625   8.614 -2.3595 -1.0545  0.2445
   51CHL1  H26C 6250   5.890   0.738   8.741  1.2550  0.4796  1.7501
   51CHL1   C27 6251   6.073   0.447   8.761  0.8423 -0.4107 -0.6790
   51CHL1  H27A 6252   6.049   0.417   8.657 -0.4039  1.6235 -1.0528
   51CHL1  H27B 6253   6.176   0.486   8.770  0.5075  0.3655  0.0416
   51CHL1  H27C 6254   6.064   0.354   8.820  0.5917  0.2998  0.4508
   52CHL1    C3 6255   3.322   0.096  10.024 -0.3575 -0.4795  0.5163
   52CHL1    H3 6256   3.404   0.170  10.033  2.5493 -3.0915 -2.0706
   52CHL1    O3 6257   3.269   0.043  10.144  0.0102 -0.2742  0.6208
   52CHL1   H3' 6258   3.268  -0.051  10.123  0.0615 -0.1134 -0.1382
   52CHL1    C4 6259   3.212   0.157   9.936 -0.1486 -0.0920 -0.2558
   52CHL1   H4A 6260   3.150   0.066   9.918 -1.0065 -0.0971  2.2964
   52CHL1   H4B 6261   3.144   0.222   9.995 -0.2629 -0.8713  0.4935
   52CHL1    C5 6262   3.261   0.205   9.798 -0.2991 -0.3925  0.4605
   52CHL1    C6 6263   3.243   0.331   9.755  0.3429 -0.3861 -0.1042
   52CHL1    H6 6264   3.193   0.408   9.815  0.7306  0.0377 -0.3109
   52CHL1    C7 6265   3.288   0.376   9.618 -0.2214 -0.0581  0.7709
   52CHL1   H7A 6266   3.203   0.423   9.564  1.6913  0.5698 -1.8728
   52CHL1   H7B 6267   3.369   0.452   9.627 -0.1363 -0.1257  0.5543
   52CHL1    C8 6268   3.342   0.273   9.516  0.3814 -0.3848 -0.6590
   52CHL1    H8 6269   3.261   0.220   9.461  0.0010 -0.2408 -0.2542
   52CHL1   C14 6270   3.433   0.346   9.417  0.0234  0.3307 -0.2415
   52CHL1   H14 6271   3.514   0.385   9.482  0.2037  1.1017 -0.9116
   52CHL1   C15 6272   3.381   0.465   9.342  0.7904  0.4620  0.4229
   52CHL1  H15A 6273   3.279   0.443   9.302  1.3855  0.8201 -1.4227
   52CHL1  H15B 6274   3.386   0.552   9.410 -0.4896  0.0932  1.0197
   52CHL1   C16 6275   3.483   0.487   9.228  0.1546 -0.1605 -0.2146
   52CHL1  H16A 6276   3.422   0.492   9.135  0.7637 -0.6730 -0.6529
   52CHL1  H16B 6277   3.535   0.582   9.251 -0.3493 -0.1497  0.9402
   52CHL1   C17 6278   3.569   0.363   9.228 -0.0063  0.3615 -0.0681
   52CHL1   H17 6279   3.647   0.380   9.305 -1.5269  0.1113  1.6019
   52CHL1   C13 6280   3.498   0.254   9.314  0.5008  0.4940  0.5090
   52CHL1   C18 6281   3.382   0.181   9.230 -0.3718  0.1494  0.0603
   52CHL1  H18A 6282   3.308   0.254   9.192 -0.3873 -0.7973 -1.8490
   52CHL1  H18B 6283   3.421   0.131   9.139 -2.1636  0.8713 -1.1426
   52CHL1  H18C 6284   3.320   0.107   9.285 -2.4085  1.5329 -0.2674
   52CHL1   C12 6285   3.590   0.161   9.391 -0.4409 -0.4923 -0.0159
   52CHL1  H12A 6286   3.615   0.085   9.314 -0.2278  0.1255 -0.5575
   52CHL1  H12B 6287   3.684   0.213   9.421 -0.2302 -0.1892 -1.1532
   52CHL1   C11 6288   3.514   0.087   9.506  0.0751  0.6051 -0.5570
   52CHL1  H11A 6289   3.454   0.003   9.465  0.0631 -0.7953  2.1160
   52CHL1  H11B 6290   3.590   0.039   9.572  0.6999  0.7374 -1.1686
   52CHL1    C9 6291   3.427   0.176   9.599 -0.3864  0.2462  0.0587
   52CHL1    H9 6292   3.503   0.241   9.649  0.0107  0.5536 -0.9237
   52CHL1   C10 6293   3.347   0.109   9.712  0.4889  0.5185 -0.2102
   52CHL1   C19 6294   3.260  -0.009   9.663 -0.4880 -0.4227  0.1233
   52CHL1  H19A 6295   3.209  -0.062   9.746 -1.2013  1.2504  0.7983
   52CHL1  H19B 6296   3.176   0.037   9.606 -0.9943 -0.7970  0.5562
   52CHL1  H19C 6297   3.316  -0.074   9.592  1.1349  1.1930 -0.1421
   52CHL1    C1 6298   3.442   0.044   9.812 -0.4542 -0.4755  1.0212
   52CHL1   H1A 6299   3.510  -0.029   9.764 -0.6664  1.6897 -3.0171
   52CHL1   H1B 6300   3.517   0.123   9.835 -1.4768  0.9664 -0.3776
   52CHL1    C2 6301   3.387  -0.015   9.935  0.2075  1.0334 -0.3146
   52CHL1   H2A 6302   3.470  -0.059   9.995 -0.8164 -1.3148 -0.5063
   52CHL1   H2B 6303   3.317  -0.097   9.907  0.5171  0.7644 -0.3073
   52CHL1   C20 6304   3.653   0.313   9.099  0.4385 -0.1308 -0.6945
   52CHL1   H20 6305   3.685   0.213   9.137  2.3100  1.0993  1.1473
   52CHL1   C21 6306   3.783   0.392   9.111  0.3021 -0.5315  0.8473
   52CHL1  H21A 6307   3.835   0.369   9.015 -2.0752  0.2372 -0.7385
   52CHL1  H21B 6308   3.846   0.365   9.197  2.7873  0.9054 -0.4041
   52CHL1  H21C 6309   3.766   0.501   9.098 -0.2765 -0.9330 -2.9884
   52CHL1   C22 6310   3.584   0.294   8.959 -0.1799  0.0815 -0.2295
   52CHL1  H22A 6311   3.484   0.247   8.971  1.2149 -2.5667  1.8541
   52CHL1  H22B 6312   3.570   0.392   8.908 -1.9521 -0.0733 -0.0979
   52CHL1   C23 6313   3.671   0.220   8.861 -0.3103  0.9651  0.2926
   52CHL1  H23A 6314   3.753   0.291   8.840  2.6153 -2.0746  0.5373
   52CHL1  H23B 6315   3.720   0.129   8.903  2.0471  1.7159 -0.7005
   52CHL1   C24 6316   3.606   0.175   8.728 -0.4012 -0.9592 -0.3333
   52CHL1  H24A 6317   3.550   0.082   8.750  0.8036 -1.4777  0.6695
   52CHL1  H24B 6318   3.540   0.260   8.699  2.6245  0.7777 -2.7812
   52CHL1   C25 6319   3.709   0.156   8.611 -0.1075  0.8023 -0.1022
   52CHL1   H25 6320   3.792   0.228   8.627  2.0821 -1.8816  1.7003
   52CHL1   C26 6321   3.776   0.018   8.598 -0.2889 -0.3638  0.4257
   52CHL1  H26A 6322   3.803  -0.026   8.696  1.3543 -4.4505 -1.6194
   52CHL1  H26B 6323   3.696  -0.042   8.548  0.7329 -1.2795 -0.1426
   52CHL1  H26C 6324   3.868   0.020   8.536 -0.5578 -0.9741 -0.0164
   52CHL1   C27 6325   3.651   0.196   8.476 -0.2530  0.2481  0.3360
   52CHL1  H27A 6326   3.718   0.184   8.387 -0.5463  0.3035  0.1071
   52CHL1  H27B 6327   3.555   0.141   8.472 -1.2357  1.7812  1.6664
   52CHL1  H27C 6328   3.629   0.304   8.486  1.5212  0.7546 -0.7407
   53CHL1    C3 6329   2.719   6.445   9.980  1.2949  0.1022  0.2921
   53CHL1    H3 6330   2.829   6.436   9.991  1.6211  2.1192 -0.8198
   53CHL1    O3 6331   2.647   6.412  10.097 -0.5577 -0.4553 -0.5365
   53CHL1   H3' 6332   2.568   6.467  10.090  1.2482  2.4239  0.1084
   53CHL1    C4 6333   2.675   6.577   9.922  0.1172  0.5902  0.7087
   53CHL1   H4A 6334   2.565   6.572   9.905  0.0687  0.7571  0.9606
   53CHL1   H4B 6335   2.699   6.662   9.989  1.3670  1.1442 -0.3822
   53CHL1    C5 6336   2.736   6.612   9.788 -0.4774 -0.0128  0.2088
   53CHL1    C6 6337   2.811   6.718   9.762  0.4295 -0.1394 -0.9899
   53CHL1    H6 6338   2.829   6.796   9.837 -1.4427  0.9499 -1.5909
   53CHL1    C7 6339   2.862   6.750   9.623  0.2336  0.7226 -0.7603
   53CHL1   H7A 6340   2.842   6.855   9.593  0.5726  0.6825 -1.1427
   53CHL1   H7B 6341   2.972   6.736   9.630 -0.2215 -3.6165  0.2267
   53CHL1    C8 6342   2.824   6.653   9.505  0.3108 -0.1144 -0.1929
   53CHL1    H8 6343   2.725   6.691   9.471  0.4171  2.3398  1.9684
   53CHL1   C14 6344   2.929   6.655   9.394 -0.6309 -0.3408 -0.5965
   53CHL1   H14 6345   3.025   6.631   9.444  0.0413  1.4410 -0.9349
   53CHL1   C15 6346   2.962   6.802   9.342 -0.2333  0.1989 -0.0441
   53CHL1  H15A 6347   2.866   6.859   9.347 -0.4506 -0.2506  1.0672
   53CHL1  H15B 6348   3.037   6.858   9.401  0.0836  1.8176 -1.8481
   53CHL1   C16 6349   3.026   6.770   9.205  0.3747 -0.2770 -0.7563
   53CHL1  H16A 6350   2.962   6.815   9.127  0.5887 -1.4864 -1.6570
   53CHL1  H16B 6351   3.130   6.805   9.193  1.0808 -1.5400  1.1280
   53CHL1   C17 6352   3.011   6.618   9.193 -0.0180 -0.4624  0.6487
   53CHL1   H17 6353   3.097   6.575   9.248  1.7775  0.2245 -1.4614
   53CHL1   C13 6354   2.896   6.567   9.275 -1.0417 -0.1222 -0.2066
   53CHL1   C18 6355   2.765   6.599   9.218  0.3640 -0.5493  0.1714
   53CHL1  H18A 6356   2.681   6.596   9.291  0.2733  0.6339  0.1389
   53CHL1  H18B 6357   2.770   6.700   9.172  1.8318 -0.1590  1.1147
   53CHL1  H18C 6358   2.730   6.524   9.143  1.7007 -0.3191 -0.7074
   53CHL1   C12 6359   2.892   6.423   9.328  0.7739 -0.1301 -0.6963
   53CHL1  H12A 6360   2.862   6.355   9.245 -0.1789  0.9830 -1.2858
   53CHL1  H12B 6361   2.988   6.401   9.378 -0.1771  0.0093  1.2667
   53CHL1   C11 6362   2.783   6.417   9.443  0.2480 -0.2412 -0.3232
   53CHL1  H11A 6363   2.682   6.425   9.399 -0.4116 -1.4967  0.8814
   53CHL1  H11B 6364   2.788   6.314   9.485  1.9155 -0.4866 -1.0460
   53CHL1    C9 6365   2.812   6.517   9.555 -0.5215 -0.5091  0.3565
   53CHL1    H9 6366   2.913   6.494   9.595 -0.8297 -0.4157  1.2187
   53CHL1   C10 6367   2.722   6.500   9.678 -0.0777 -0.1085 -0.2670
   53CHL1   C19 6368   2.578   6.487   9.632  0.0684  0.1770 -0.8379
   53CHL1  H19A 6369   2.559   6.399   9.567 -0.4135 -2.3935  2.5412
   53CHL1  H19B 6370   2.511   6.497   9.720  1.2882 -0.5965  0.2182
   53CHL1  H19C 6371   2.548   6.568   9.562 -1.0349  0.9909  0.5165
   53CHL1    C1 6372   2.755   6.359   9.747 -0.2669  0.5147 -0.3375
   53CHL1   H1A 6373   2.725   6.272   9.684  0.5977  0.6807 -0.9994
   53CHL1   H1B 6374   2.863   6.338   9.759 -0.5013 -0.3277  0.4174
   53CHL1    C2 6375   2.685   6.334   9.877  0.6221 -0.2264 -0.1912
   53CHL1   H2A 6376   2.722   6.236   9.914  3.3015  0.8133  0.0489
   53CHL1   H2B 6377   2.575   6.336   9.857  0.7573  0.8993 -0.9069
   53CHL1   C20 6378   3.034   6.561   9.050  0.4082 -0.8032  0.1005
   53CHL1   H20 6379   2.938   6.535   9.000 -0.0679 -0.1975  0.6696
   53CHL1   C21 6380   3.111   6.426   9.061  0.3706 -0.0610 -0.2762
   53CHL1  H21A 6381   3.108   6.375   8.963  1.4122  2.5425 -1.7747
   53CHL1  H21B 6382   3.050   6.370   9.136  0.5559  0.0789 -0.0183
   53CHL1  H21C 6383   3.215   6.435   9.098  0.2601 -1.3911  0.3930
   53CHL1   C22 6384   3.119   6.660   8.966  0.3891  0.8280 -0.4439
   53CHL1  H22A 6385   3.071   6.758   8.943  1.7911  1.6090 -0.1531
   53CHL1  H22B 6386   3.207   6.681   9.031  1.1565  2.7929 -2.0249
   53CHL1   C23 6387   3.161   6.591   8.829 -0.2779  0.3433 -0.4428
   53CHL1  H23A 6388   3.218   6.497   8.848 -0.6018 -0.1260 -1.7060
   53CHL1  H23B 6389   3.074   6.558   8.767 -1.4868 -1.3408  1.9525
   53CHL1   C24 6390   3.238   6.687   8.735 -0.0242  0.5051 -0.3632
   53CHL1  H24A 6391   3.176   6.777   8.714  0.8790  1.1099 -0.4825
   53CHL1  H24B 6392   3.326   6.714   8.796 -0.6839  0.2570  0.7342
   53CHL1   C25 6393   3.300   6.622   8.610  1.1303  0.6460 -0.1039
   53CHL1   H25 6394   3.356   6.527   8.620  0.6204 -0.0412 -2.9032
   53CHL1   C26 6395   3.189   6.572   8.512 -0.1451  0.3507 -0.3120
   53CHL1  H26A 6396   3.234   6.527   8.421 -3.1149 -3.2577 -0.2197
   53CHL1  H26B 6397   3.118   6.492   8.541 -0.0286  0.5651  0.5867
   53CHL1  H26C 6398   3.135   6.666   8.489 -0.5329  0.2072 -0.0064
   53CHL1   C27 6399   3.388   6.730   8.550  0.4616  0.4249  0.7024
   53CHL1  H27A 6400   3.323   6.808   8.505  0.5745 -0.7423 -1.6214
   53CHL1  H27B 6401   3.467   6.771   8.616  0.1834  1.4062  0.4465
   53CHL1  H27C 6402   3.441   6.677   8.468 -0.8400 -1.2487  0.8960
   54CHL1    C3 6403   3.731   0.203  10.077 -0.8440  0.2959  0.2171
   54CHL1    H3 6404   3.654   0.148  10.019 -1.5425  2.1873 -0.7503
   54CHL1    O3 6405   3.775   0.121  10.183 -0.4728  0.3726 -0.0007
   54CHL1   H3' 6406   3.697   0.094  10.232 -0.0960 -1.2555 -0.2188
   54CHL1    C4 6407   3.856   0.230   9.989  0.4558  0.1688 -0.3208
   54CHL1   H4A 6408   3.923   0.293  10.052 -0.7314  0.9816  0.1542
   54CHL1   H4B 6409   3.907   0.134   9.967  1.2142  0.9718 -2.3015
   54CHL1    C5 6410   3.821   0.317   9.868 -0.4908  0.8117  0.3263
   54CHL1    C6 6411   3.845   0.282   9.739 -0.9373 -0.0719  0.2636
   54CHL1    H6 6412   3.896   0.189   9.713 -1.6431  0.1348 -2.0602
   54CHL1    C7 6413   3.833   0.382   9.632 -0.3111 -1.4700 -0.0241
   54CHL1   H7A 6414   3.926   0.382   9.572 -0.5303 -0.6798 -0.3745
   54CHL1   H7B 6415   3.753   0.356   9.560 -0.8962 -0.5310  0.2663
   54CHL1    C8 6416   3.807   0.531   9.671  0.1737  0.1408  0.1807
   54CHL1    H8 6417   3.902   0.569   9.715  1.0585 -1.2739 -0.4462
   54CHL1   C14 6418   3.761   0.618   9.555 -0.2735 -0.6745  0.3777
   54CHL1   H14 6419   3.667   0.564   9.532 -0.8502  0.3273  0.2766
   54CHL1   C15 6420   3.850   0.622   9.428  0.3597  0.2560  0.5856
   54CHL1  H15A 6421   3.957   0.642   9.452  0.4035 -1.0015  1.6091
   54CHL1  H15B 6422   3.834   0.531   9.366 -2.2018  0.6148  0.6337
   54CHL1   C16 6423   3.792   0.742   9.350  0.3433  0.1084  0.6031
   54CHL1  H16A 6424   3.882   0.793   9.310 -0.0414 -0.2105 -0.7026
   54CHL1  H16B 6425   3.733   0.708   9.262 -0.2193 -0.7464  1.2908
   54CHL1   C17 6426   3.707   0.826   9.453 -0.3570  0.7466 -0.5503
   54CHL1   H17 6427   3.601   0.813   9.421 -0.1486  1.4177 -1.5596
   54CHL1   C13 6428   3.738   0.761   9.593  0.3108 -0.3937  0.3330
   54CHL1   C18 6429   3.866   0.826   9.653  1.2980  0.5199  0.2109
   54CHL1  H18A 6430   3.907   0.764   9.735  0.1685 -0.5865 -0.0327
   54CHL1  H18B 6431   3.941   0.839   9.571 -0.2271 -1.1643 -1.5588
   54CHL1  H18C 6432   3.844   0.927   9.693 -0.0714  0.1233  0.5036
   54CHL1   C12 6433   3.616   0.750   9.691 -0.6606 -0.6845  0.5408
   54CHL1  H12A 6434   3.578   0.853   9.708  0.9285 -0.1470  0.9784
   54CHL1  H12B 6435   3.535   0.699   9.635 -1.4635  1.3050 -0.2040
   54CHL1   C11 6436   3.664   0.673   9.814  0.0942  0.0335 -0.6561
   54CHL1  H11A 6437   3.750   0.732   9.854  0.5346 -1.6332  0.9964
   54CHL1  H11B 6438   3.575   0.680   9.881  0.4685 -1.9750  0.1058
   54CHL1    C9 6439   3.706   0.532   9.787  0.1515  0.0731  0.1101
   54CHL1    H9 6440   3.612   0.485   9.752 -1.1989  0.5439  2.8459
   54CHL1   C10 6441   3.756   0.450   9.909 -0.4631 -0.1030 -0.5091
   54CHL1   C19 6442   3.863   0.540   9.985  0.3616 -0.2660 -0.0151
   54CHL1  H19A 6443   3.819   0.633  10.028 -1.5920 -1.3119  0.3606
   54CHL1  H19B 6444   3.877   0.499  10.087 -0.2931  1.2992  0.7507
   54CHL1  H19C 6445   3.964   0.558   9.942  0.8473 -2.9639 -0.1990
   54CHL1    C1 6446   3.636   0.425  10.009  0.0792 -1.1650  0.7477
   54CHL1   H1A 6447   3.585   0.518  10.040 -1.4821 -1.1575 -1.5741
   54CHL1   H1B 6448   3.562   0.361   9.956  2.7223 -1.9843 -2.2370
   54CHL1    C2 6449   3.664   0.336  10.125 -0.0819 -0.2257 -0.3586
   54CHL1   H2A 6450   3.570   0.299  10.171  0.2253 -1.6242 -0.8027
   54CHL1   H2B 6451   3.729   0.377  10.205  1.1457 -3.3730  0.4322
   54CHL1   C20 6452   3.721   0.973   9.435 -0.0771  0.4522  0.3267
   54CHL1   H20 6453   3.829   0.998   9.442  0.3103 -1.2581  0.8945
   54CHL1   C21 6454   3.640   1.057   9.546  0.6972  1.0017  0.0358
   54CHL1  H21A 6455   3.656   1.166   9.530  1.9375  0.8248 -0.0862
   54CHL1  H21B 6456   3.679   1.044   9.649 -0.5121 -0.2174  0.3632
   54CHL1  H21C 6457   3.531   1.042   9.535  0.8783  0.2298 -0.9478
   54CHL1   C22 6458   3.692   1.013   9.287 -0.0233  0.2789 -0.7819
   54CHL1  H22A 6459   3.738   0.935   9.224  1.6004 -0.2319  0.9407
   54CHL1  H22B 6460   3.585   0.997   9.262 -0.5117  3.3982 -1.1538
   54CHL1   C23 6461   3.732   1.154   9.240  0.0147 -0.1526 -0.4562
   54CHL1  H23A 6462   3.702   1.238   9.307  1.4834  0.3179 -0.3616
   54CHL1  H23B 6463   3.842   1.146   9.232  0.2701  0.3167  1.7760
   54CHL1   C24 6464   3.696   1.173   9.088  0.5480 -0.2731 -0.7230
   54CHL1  H24A 6465   3.726   1.082   9.032  2.1494  0.2580 -0.7611
   54CHL1  H24B 6466   3.585   1.178   9.084  0.5782  1.2415 -0.0795
   54CHL1   C25 6467   3.761   1.297   9.017  0.1966 -0.0845 -0.0655
   54CHL1   H25 6468   3.872   1.291   9.014  0.1824 -0.2805 -0.2238
   54CHL1   C26 6469   3.727   1.309   8.863  0.4517 -0.6131 -0.2933
   54CHL1  H26A 6470   3.765   1.217   8.813  0.3313 -1.4341  1.0831
   54CHL1  H26B 6471   3.617   1.317   8.850  0.5808 -1.0612 -1.9160
   54CHL1  H26C 6472   3.768   1.408   8.833  1.9230 -1.8904 -2.8497
   54CHL1   C27 6473   3.706   1.419   9.090 -0.7533  0.0386 -0.2849
   54CHL1  H27A 6474   3.595   1.413   9.084 -0.6775 -1.4064 -0.4624
   54CHL1  H27B 6475   3.729   1.407   9.198  0.3623  0.9149 -0.4046
   54CHL1  H27C 6476   3.749   1.513   9.049  0.4618 -1.0939 -1.6709
   55CHL1    C3 6477   4.299   4.947  10.097 -0.3618  0.1424  0.0062
   55CHL1    H3 6478   4.211   5.005  10.061 -1.2286 -0.6904  0.7440
   55CHL1    O3 6479   4.282   4.938  10.239  0.6906  0.1429  0.4782
   55CHL1   H3' 6480   4.325   4.856  10.266  1.2744 -0.0210 -0.8885
   55CHL1    C4 6481   4.307   4.810  10.030  0.6747  0.3089 -0.6088
   55CHL1   H4A 6482   4.371   4.740  10.088 -0.2422  0.3150  0.4409
   55CHL1   H4B 6483   4.210   4.756  10.041  1.3264 -1.1246 -1.5145
   55CHL1    C5 6484   4.353   4.811   9.886  0.2011  0.3534  0.9397
   55CHL1    C6 6485   4.286   4.740   9.794  0.0344 -0.9609  0.4762
   55CHL1    H6 6486   4.203   4.674   9.824  0.7783 -0.9964  2.6479
   55CHL1    C7 6487   4.314   4.748   9.648  0.2004  0.3066  0.0526
   55CHL1   H7A 6488   4.314   4.648   9.599 -1.0676  0.0143  0.6168
   55CHL1   H7B 6489   4.235   4.806   9.598  1.3291  0.9521 -1.0205
   55CHL1    C8 6490   4.447   4.813   9.606 -0.2553 -0.3207 -0.0163
   55CHL1    H8 6491   4.523   4.743   9.647 -1.4463  0.3813  3.7668
   55CHL1   C14 6492   4.458   4.847   9.462  0.1952  0.6115 -0.0197
   55CHL1   H14 6493   4.385   4.923   9.426 -0.8204 -0.6446 -0.7054
   55CHL1   C15 6494   4.441   4.735   9.360 -0.5965  0.3742  0.3490
   55CHL1  H15A 6495   4.510   4.650   9.381 -1.4188 -0.7139 -1.1656
   55CHL1  H15B 6496   4.340   4.689   9.366 -0.4319 -0.2215 -1.0343
   55CHL1   C16 6497   4.490   4.802   9.229  0.7589  0.3792 -0.1139
   55CHL1  H16A 6498   4.546   4.724   9.173 -0.2913 -1.1030  0.8530
   55CHL1  H16B 6499   4.401   4.824   9.167 -1.8054 -0.1516  3.1525
   55CHL1   C17 6500   4.584   4.924   9.269 -0.2888  0.0026 -0.0372
   55CHL1   H17 6501   4.517   5.011   9.250 -1.0112 -0.4346  0.4481
   55CHL1   C13 6502   4.601   4.915   9.425 -0.5510  0.3174  0.2499
   55CHL1   C18 6503   4.718   4.825   9.470 -0.9999  0.1008  1.3367
   55CHL1  H18A 6504   4.725   4.823   9.581  1.0237  3.0940  1.3596
   55CHL1  H18B 6505   4.709   4.725   9.423 -1.2053  0.3533  0.8346
   55CHL1  H18C 6506   4.809   4.876   9.434 -1.2878 -0.7300 -0.7006
   55CHL1   C12 6507   4.601   5.049   9.498  1.2062  0.5911  0.0289
   55CHL1  H12A 6508   4.700   5.097   9.481  0.5807  1.2712 -1.9997
   55CHL1  H12B 6509   4.520   5.114   9.459  2.7466  1.7573 -1.3991
   55CHL1   C11 6510   4.581   5.032   9.649 -1.0774  0.6994 -0.0924
   55CHL1  H11A 6511   4.676   4.998   9.694 -0.8906  3.5419  1.9744
   55CHL1  H11B 6512   4.574   5.134   9.693 -0.0817  1.2624 -1.1984
   55CHL1    C9 6513   4.465   4.943   9.697 -0.1401  0.5753  0.7908
   55CHL1    H9 6514   4.378   5.009   9.673 -0.0005  0.4108 -0.2352
   55CHL1   C10 6515   4.473   4.916   9.854  0.2165  0.0916  0.2370
   55CHL1   C19 6516   4.605   4.850   9.891 -0.2105 -0.5431 -0.1221
   55CHL1  H19A 6517   4.639   4.759   9.836 -0.9037 -0.0025 -1.4870
   55CHL1  H19B 6518   4.683   4.930   9.884  0.4100 -0.9707  1.4444
   55CHL1  H19C 6519   4.600   4.834  10.001 -0.6436  0.5837  0.0328
   55CHL1    C1 6520   4.441   5.052   9.920  0.7946  0.7300  0.1532
   55CHL1   H1A 6521   4.508   5.134   9.886 -0.2043  1.6403  0.2949
   55CHL1   H1B 6522   4.347   5.080   9.867  1.0231  1.2649  0.0192
   55CHL1    C2 6523   4.422   5.037  10.068  0.0581  0.2592 -0.2554
   55CHL1   H2A 6524   4.405   5.140  10.108  2.2395  1.4609 -2.1696
   55CHL1   H2B 6525   4.513   5.005  10.121 -0.7689 -2.0508 -0.1312
   55CHL1   C20 6526   4.712   4.929   9.174 -0.2744  0.2862  0.9142
   55CHL1   H20 6527   4.761   4.831   9.193 -1.7323 -0.1808  2.5103
   55CHL1   C21 6528   4.809   5.049   9.208  0.2496  0.4555 -0.0282
   55CHL1  H21A 6529   4.850   5.038   9.310 -0.3444  1.6429  0.3546
   55CHL1  H21B 6530   4.756   5.146   9.220 -1.3638 -0.4757  0.6213
   55CHL1  H21C 6531   4.890   5.057   9.132  1.0894 -0.3159  0.7734
   55CHL1   C22 6532   4.676   4.940   9.020  0.2388 -0.5508 -0.3165
   55CHL1  H22A 6533   4.772   4.957   8.967  1.7655 -1.7334  1.9031
   55CHL1  H22B 6534   4.630   4.844   8.988 -0.1825 -0.7214  0.7693
   55CHL1   C23 6535   4.591   5.067   8.985 -0.3000  0.3492  0.3057
   55CHL1  H23A 6536   4.508   5.074   9.058  0.6683 -3.7183  2.0470
   55CHL1  H23B 6537   4.663   5.151   8.998  1.1985 -1.1623  2.2256
   55CHL1   C24 6538   4.509   5.067   8.852  0.1347  0.5597 -0.6076
   55CHL1  H24A 6539   4.450   4.973   8.857  2.8121 -1.1503  2.5470
   55CHL1  H24B 6540   4.440   5.154   8.845 -0.9657 -0.1801  0.4403
   55CHL1   C25 6541   4.590   5.061   8.728  0.3005 -0.1665 -0.6530
   55CHL1   H25 6542   4.662   4.977   8.736  2.1403  1.2146 -1.8668
   55CHL1   C26 6543   4.506   5.053   8.596 -0.2513 -0.3211  0.3365
   55CHL1  H26A 6544   4.451   5.148   8.578  2.5129  0.8935 -2.9960
   55CHL1  H26B 6545   4.568   5.056   8.503  0.8302  3.0614  1.0213
   55CHL1  H26C 6546   4.445   4.961   8.587 -0.6416  0.0103 -0.5664
   55CHL1   C27 6547   4.685   5.183   8.726  0.1659  0.3539  0.4794
   55CHL1  H27A 6548   4.610   5.264   8.713  0.2817  0.3209 -0.4448
   55CHL1  H27B 6549   4.755   5.197   8.811  0.4387  0.6056  0.2130
   55CHL1  H27C 6550   4.741   5.187   8.630 -0.0533 -1.6522  0.2199
   56CHL1    C3 6551   1.690   3.188  10.133  0.0671  0.3552 -0.1105
   56CHL1    H3 6552   1.591   3.137  10.133 -0.0660  0.3760  3.2812
   56CHL1    O3 6553   1.725   3.201  10.269 -0.0804 -0.1910 -0.2324
   56CHL1   H3' 6554   1.812   3.241  10.267  0.3333 -0.9240  1.3061
   56CHL1    C4 6555   1.802   3.127  10.047  0.3645  0.5840  0.4502
   56CHL1   H4A 6556   1.892   3.192  10.056  2.2737 -1.6459 -1.4050
   56CHL1   H4B 6557   1.846   3.030  10.077  2.3206  1.6818  1.3484
   56CHL1    C5 6558   1.765   3.131   9.898  0.2787  0.1581 -0.5051
   56CHL1    C6 6559   1.755   3.018   9.825 -0.3547  0.0836 -0.4223
   56CHL1    H6 6560   1.770   2.921   9.876  1.0868  0.2955 -0.3799
   56CHL1    C7 6561   1.721   3.021   9.678 -0.2921 -0.6151  0.0143
   56CHL1   H7A 6562   1.796   2.961   9.622 -0.7958 -1.1311 -0.1230
   56CHL1   H7B 6563   1.627   2.967   9.653  0.1046 -1.6572  0.6914
   56CHL1    C8 6564   1.722   3.163   9.616 -0.5475  1.1470 -0.9616
   56CHL1    H8 6565   1.829   3.182   9.593 -0.2656 -2.7262 -3.8424
   56CHL1   C14 6566   1.650   3.158   9.478 -0.0560 -0.0863 -0.1679
   56CHL1   H14 6567   1.545   3.124   9.489 -0.2861 -0.0301 -1.9246
   56CHL1   C15 6568   1.710   3.065   9.378  0.5087  0.0145  0.2069
   56CHL1  H15A 6569   1.821   3.066   9.380  0.5443  1.0668  2.9272
   56CHL1  H15B 6570   1.672   2.968   9.415  1.6526 -0.6955 -0.4026
   56CHL1   C16 6571   1.646   3.122   9.241 -0.7373 -1.0210  0.8691
   56CHL1  H16A 6572   1.732   3.130   9.171 -2.0798  1.1867 -0.6462
   56CHL1  H16B 6573   1.576   3.043   9.206 -0.6658 -0.3456 -0.9185
   56CHL1   C17 6574   1.581   3.258   9.277 -0.2042 -0.1325  0.6812
   56CHL1   H17 6575   1.475   3.230   9.296 -0.2041  0.8084  2.3149
   56CHL1   C13 6576   1.636   3.304   9.409 -0.0105 -0.1194 -0.0794
   56CHL1   C18 6577   1.777   3.360   9.380  0.3516 -0.0812  0.2146
   56CHL1  H18A 6578   1.846   3.360   9.467  1.9418 -1.9789 -0.9705
   56CHL1  H18B 6579   1.828   3.308   9.296 -0.3998  0.5142 -0.6276
   56CHL1  H18C 6580   1.761   3.461   9.338 -0.9032 -1.6819 -3.5548
   56CHL1   C12 6581   1.560   3.397   9.509  0.2510 -0.0647  0.3469
   56CHL1  H12A 6582   1.548   3.497   9.463 -2.9315 -0.6556 -0.3528
   56CHL1  H12B 6583   1.458   3.354   9.518  0.3193 -0.1735  0.6132
   56CHL1   C11 6584   1.636   3.406   9.647 -0.0380  0.0334  0.7179
   56CHL1  H11A 6585   1.735   3.453   9.628  0.0144  0.9333  2.9849
   56CHL1  H11B 6586   1.573   3.463   9.719  1.7205  2.2996  0.5894
   56CHL1    C9 6587   1.663   3.264   9.708  0.7479  0.1463 -0.0724
   56CHL1    H9 6588   1.562   3.223   9.729  0.9245 -0.6785 -0.8096
   56CHL1   C10 6589   1.737   3.274   9.846 -0.9805 -0.0771 -0.0845
   56CHL1   C19 6590   1.869   3.359   9.839  0.0680  0.3219  0.5160
   56CHL1  H19A 6591   1.944   3.310   9.774  0.7800  0.3271  1.3158
   56CHL1  H19B 6592   1.844   3.460   9.801 -0.7566 -0.9218 -2.4994
   56CHL1  H19C 6593   1.917   3.367   9.939  3.5368 -1.9196 -0.8028
   56CHL1    C1 6594   1.632   3.342   9.944  0.2066  0.3399  0.1223
   56CHL1   H1A 6595   1.622   3.448   9.912 -0.9442  0.2090 -0.0047
   56CHL1   H1B 6596   1.539   3.284   9.924  2.7412 -3.0768 -3.5714
   56CHL1    C2 6597   1.667   3.333  10.088  0.0497 -0.0638  0.2039
   56CHL1   H2A 6598   1.582   3.375  10.146 -1.1632  0.4991 -1.9016
   56CHL1   H2B 6599   1.764   3.382  10.111  1.3980 -0.3296 -4.0578
   56CHL1   C20 6600   1.577   3.353   9.151  0.1010 -0.3976 -0.1712
   56CHL1   H20 6601   1.679   3.394   9.140 -0.2470 -0.0355 -2.5031
   56CHL1   C21 6602   1.472   3.466   9.176  0.4119 -0.1536  0.4330
   56CHL1  H21A 6603   1.378   3.415   9.206  0.7765 -3.3626 -3.0713
   56CHL1  H21B 6604   1.457   3.532   9.088  3.9787  1.2336  0.6978
   56CHL1  H21C 6605   1.517   3.521   9.261  1.0276 -0.1137  0.0858
   56CHL1   C22 6606   1.546   3.278   9.020 -0.7073  0.1158 -0.1518
   56CHL1  H22A 6607   1.639   3.224   8.989 -0.2246  0.4063  0.7533
   56CHL1  H22B 6608   1.470   3.199   9.037  0.5755 -0.9573  0.8333
   56CHL1   C23 6609   1.496   3.352   8.906  0.5707 -0.0221  0.3055
   56CHL1  H23A 6610   1.402   3.406   8.928 -0.8106  0.0084 -4.4826
   56CHL1  H23B 6611   1.570   3.432   8.883 -2.1314  2.3582 -0.6117
   56CHL1   C24 6612   1.463   3.260   8.787 -0.5507 -0.0189 -0.3277
   56CHL1  H24A 6613   1.550   3.191   8.789  1.5072  2.4203  1.1663
   56CHL1  H24B 6614   1.365   3.208   8.795 -0.5769 -0.1296 -1.1970
   56CHL1   C25 6615   1.456   3.331   8.652  0.8936 -0.1405  0.0848
   56CHL1   H25 6616   1.412   3.252   8.587 -1.7637  0.8337  0.5712
   56CHL1   C26 6617   1.354   3.444   8.665  0.2808  0.2409 -0.6480
   56CHL1  H26A 6618   1.262   3.386   8.687  0.9321 -0.1537  1.1917
   56CHL1  H26B 6619   1.387   3.514   8.745 -0.5839  0.2227 -0.2658
   56CHL1  H26C 6620   1.346   3.498   8.568  0.1051 -0.4065 -1.0032
   56CHL1   C27 6621   1.594   3.376   8.601 -0.5232 -0.2113 -0.4693
   56CHL1  H27A 6622   1.666   3.300   8.638 -2.7913 -2.5062 -0.5478
   56CHL1  H27B 6623   1.603   3.399   8.492  0.3655 -0.1243 -0.3892
   56CHL1  H27C 6624   1.630   3.469   8.650  0.5617 -0.4286 -0.8210
   57CHL1    C3 6625   3.665   5.697  10.147  0.2199  0.1481 -0.1645
   57CHL1    H3 6626   3.567   5.731  10.106 -0.6665 -2.2131 -0.1513
   57CHL1    O3 6627   3.660   5.698  10.285  0.2560 -0.4383 -0.7275
   57CHL1   H3' 6628   3.631   5.608  10.305 -0.3673 -0.1875 -0.4957
   57CHL1    C4 6629   3.718   5.562  10.097  0.9015 -0.5468  0.0943
   57CHL1   H4A 6630   3.821   5.562  10.139  1.5259 -1.3935 -1.3527
   57CHL1   H4B 6631   3.664   5.472  10.134 -0.2509  0.3464  0.6440
   57CHL1    C5 6632   3.723   5.570   9.948  0.0881  0.8945 -0.4101
   57CHL1    C6 6633   3.657   5.481   9.873  0.3293 -0.5167  0.3545
   57CHL1    H6 6634   3.588   5.410   9.921  0.3179  0.5191  1.9526
   57CHL1    C7 6635   3.669   5.468   9.723 -0.0209 -0.4475 -0.2335
   57CHL1   H7A 6636   3.671   5.359   9.702  0.2793 -0.3161 -0.9456
   57CHL1   H7B 6637   3.577   5.517   9.683  2.0326  1.0412 -3.5946
   57CHL1    C8 6638   3.794   5.549   9.672  0.1632  0.6587 -0.4137
   57CHL1    H8 6639   3.887   5.496   9.702 -0.1735  0.6248  0.6051
   57CHL1   C14 6640   3.784   5.569   9.523 -0.1140  0.2357 -0.0057
   57CHL1   H14 6641   3.687   5.622   9.508 -0.2227  0.2923  0.8098
   57CHL1   C15 6642   3.783   5.439   9.439  0.5243  0.2120  0.3073
   57CHL1  H15A 6643   3.846   5.356   9.477  0.2656  0.6723  1.7995
   57CHL1  H15B 6644   3.674   5.421   9.428  0.6663  1.0240 -4.6371
   57CHL1   C16 6645   3.836   5.479   9.295 -0.6365 -0.0027 -0.0969
   57CHL1  H16A 6646   3.928   5.423   9.265 -2.5029 -2.4459 -1.7053
   57CHL1  H16B 6647   3.762   5.464   9.213  0.5164  0.3192 -1.2429
   57CHL1   C17 6648   3.866   5.628   9.312  0.2583 -0.1701  0.6662
   57CHL1   H17 6649   3.768   5.677   9.290  0.1847 -0.1936  0.9464
   57CHL1   C13 6650   3.899   5.647   9.467  0.3824  0.1343  0.0661
   57CHL1   C18 6651   4.042   5.591   9.488 -0.5278 -0.0720  0.4769
   57CHL1  H18A 6652   4.063   5.497   9.433  0.2655 -1.2908  2.7345
   57CHL1  H18B 6653   4.120   5.661   9.450 -2.2286  1.6052 -0.1357
   57CHL1  H18C 6654   4.073   5.568   9.592  1.3205 -0.6151 -0.1543
   57CHL1   C12 6655   3.888   5.793   9.529  0.6446  0.2147 -0.2684
   57CHL1  H12A 6656   3.984   5.850   9.518  1.1161 -0.6417 -0.6927
   57CHL1  H12B 6657   3.800   5.849   9.489 -0.4582 -0.2926  1.3641
   57CHL1   C11 6658   3.885   5.792   9.680  0.3038 -0.1949 -0.3824
   57CHL1  H11A 6659   3.988   5.774   9.716 -0.2697 -3.8679 -0.2018
   57CHL1  H11B 6660   3.859   5.894   9.717  2.4946  0.0131  0.7339
   57CHL1    C9 6661   3.793   5.682   9.742  0.1108  0.5367 -0.2416
   57CHL1    H9 6662   3.696   5.730   9.717  0.7314  1.6491 -0.6055
   57CHL1   C10 6663   3.817   5.676   9.891  0.0416 -0.5675 -0.2034
   57CHL1   C19 6664   3.961   5.626   9.929 -0.1446  0.2976 -0.5832
   57CHL1  H19A 6665   4.035   5.702   9.898  1.0553 -1.3697 -2.0290
   57CHL1  H19B 6666   3.976   5.611  10.038  2.0274  1.2997 -0.7053
   57CHL1  H19C 6667   3.989   5.532   9.877 -2.6729 -2.0238  1.9054
   57CHL1    C1 6668   3.795   5.810   9.959 -0.0348 -0.1421 -0.2124
   57CHL1   H1A 6669   3.890   5.865   9.945  0.3065 -0.8634 -0.7912
   57CHL1   H1B 6670   3.714   5.865   9.906  0.5192  1.0462  0.1379
   57CHL1    C2 6671   3.762   5.813  10.105 -0.6183  0.0767  0.1103
   57CHL1   H2A 6672   3.734   5.918  10.127  0.3206  0.1120  1.2060
   57CHL1   H2B 6673   3.853   5.789  10.162 -1.3702 -0.7259  1.0051
   57CHL1   C20 6674   3.958   5.688   9.196  0.3812 -0.1588 -0.6982
   57CHL1   H20 6675   4.059   5.641   9.198  0.0314 -1.0382 -2.1793
   57CHL1   C21 6676   3.976   5.838   9.224  0.0576 -0.0185 -0.3321
   57CHL1  H21A 6677   4.019   5.852   9.326 -0.3607  1.3235 -0.3104
   57CHL1  H21B 6678   3.880   5.894   9.225 -0.2455 -0.5487  0.6276
   57CHL1  H21C 6679   4.051   5.882   9.154  2.6432 -1.3362  1.4559
   57CHL1   C22 6680   3.906   5.659   9.059 -0.0494  0.3840  0.8157
   57CHL1  H22A 6681   3.897   5.549   9.044 -1.4129  0.4782  0.8298
   57CHL1  H22B 6682   3.806   5.705   9.044 -0.8469 -1.6983 -0.6948
   57CHL1   C23 6683   4.002   5.716   8.947  0.8245  0.0189  0.3838
   57CHL1  H23A 6684   4.041   5.819   8.959 -1.8637  0.8999  2.4347
   57CHL1  H23B 6685   4.082   5.642   8.925 -0.9613 -2.4915  1.7766
   57CHL1   C24 6686   3.921   5.706   8.814  0.0016  1.1957 -0.4594
   57CHL1  H24A 6687   3.895   5.599   8.795  0.3412  1.2098 -1.0092
   57CHL1  H24B 6688   3.824   5.755   8.837 -1.3651 -1.2746 -0.6215
   57CHL1   C25 6689   3.983   5.776   8.694  0.9268 -0.3904  0.3591
   57CHL1   H25 6690   4.093   5.769   8.707  1.2318  1.1706 -1.1216
   57CHL1   C26 6691   3.944   5.721   8.556 -0.6478  0.4835  0.7994
   57CHL1  H26A 6692   3.994   5.626   8.526 -1.5146 -0.1405  1.2986
   57CHL1  H26B 6693   3.835   5.708   8.544 -0.2271 -1.5710 -1.7607
   57CHL1  H26C 6694   3.984   5.787   8.476  2.3943 -0.7404  1.1520
   57CHL1   C27 6695   3.948   5.927   8.693  0.1259 -0.1412 -0.6535
   57CHL1  H27A 6696   3.838   5.946   8.697  0.1898  0.1020  0.4059
   57CHL1  H27B 6697   3.987   5.986   8.779 -1.6210  0.7283 -0.3976
   57CHL1  H27C 6698   3.983   5.968   8.597  1.0111 -0.5149 -0.5016
   58CHL1    C3 6699   6.791   4.415   9.993 -0.6668  0.0070 -0.7940
   58CHL1    H3 6700   6.725   4.335   9.953 -0.7293 -1.0222  1.2257
   58CHL1    O3 6701   6.790   4.408  10.136 -0.4092 -0.4344 -0.2740
   58CHL1   H3' 6702   6.872   4.448  10.168 -1.7426 -0.5396  3.8299
   58CHL1    C4 6703   6.935   4.404   9.940 -0.0562  0.0360  0.0792
   58CHL1   H4A 6704   6.988   4.493   9.980  1.7475 -1.0708  0.2636
   58CHL1   H4B 6705   6.989   4.321   9.991  1.4586 -0.1657 -1.7227
   58CHL1    C5 6706   6.930   4.398   9.790 -0.9217  0.2468 -0.0236
   58CHL1    C6 6707   6.978   4.292   9.720  0.1285  0.3358 -0.6060
   58CHL1    H6 6708   7.038   4.220   9.778  0.6684  0.7117 -0.6933
   58CHL1    C7 6709   6.971   4.279   9.570 -0.7012  0.1878 -0.1129
   58CHL1   H7A 6710   7.070   4.240   9.536  0.5205  1.3561  1.9231
   58CHL1   H7B 6711   6.894   4.200   9.553 -0.9482  0.4419 -0.1758
   58CHL1    C8 6712   6.928   4.403   9.495 -0.0119  0.6760 -0.8666
   58CHL1    H8 6713   7.023   4.460   9.496 -0.1512  0.9107 -0.5344
   58CHL1   C14 6714   6.887   4.381   9.354  0.2317 -0.6868  0.0777
   58CHL1   H14 6715   6.804   4.310   9.378  0.2487 -0.9418 -0.5738
   58CHL1   C15 6716   6.972   4.302   9.251 -0.1347  0.5805  0.6139
   58CHL1  H15A 6717   7.077   4.338   9.250 -0.5001  1.6837  0.7946
   58CHL1  H15B 6718   6.978   4.192   9.265 -1.3684  0.5595  1.0628
   58CHL1   C16 6719   6.911   4.336   9.121 -0.4439  0.0033 -0.2660
   58CHL1  H16A 6720   6.992   4.380   9.058  1.2680  0.4805  2.1521
   58CHL1  H16B 6721   6.872   4.246   9.068  0.2342 -0.7738  0.5302
   58CHL1   C17 6722   6.798   4.442   9.138  0.6632 -0.7709 -0.4291
   58CHL1   H17 6723   6.714   4.371   9.150  0.1935 -0.3456 -1.1132
   58CHL1   C13 6724   6.832   4.502   9.277  0.5845 -0.3752  0.1337
   58CHL1   C18 6725   6.937   4.608   9.256  0.0571 -0.0148 -0.0980
   58CHL1  H18A 6726   7.034   4.576   9.212  0.4937  1.6238 -0.3869
   58CHL1  H18B 6727   6.904   4.687   9.184  3.6858  0.2854 -1.6952
   58CHL1  H18C 6728   6.979   4.657   9.346  0.6059 -1.4699  0.4604
   58CHL1   C12 6729   6.711   4.567   9.359 -0.4216  0.0729  0.0867
   58CHL1  H12A 6730   6.666   4.655   9.308 -0.6966 -0.2258 -0.1865
   58CHL1  H12B 6731   6.630   4.492   9.371 -3.0559  2.7643  0.3405
   58CHL1   C11 6732   6.756   4.600   9.503 -0.0463 -0.2367  0.0936
   58CHL1  H11A 6733   6.815   4.695   9.502 -0.2190 -0.1084  0.8907
   58CHL1  H11B 6734   6.668   4.630   9.564  0.3289  1.6982 -0.2355
   58CHL1    C9 6735   6.825   4.478   9.578  0.3290  0.4175 -0.3001
   58CHL1    H9 6736   6.742   4.406   9.594  0.1038  0.7133 -0.1302
   58CHL1   C10 6737   6.869   4.512   9.725 -0.6279  0.0835  0.2414
   58CHL1   C19 6738   6.971   4.629   9.719  0.0659 -0.2270 -0.8466
   58CHL1  H19A 6739   7.052   4.617   9.644 -0.5716 -0.1816 -1.5539
   58CHL1  H19B 6740   6.922   4.726   9.697 -1.7329 -0.4377  1.6981
   58CHL1  H19C 6741   7.015   4.659   9.817 -1.6284  2.0180 -0.6893
   58CHL1    C1 6742   6.738   4.545   9.802 -0.6610 -0.4086  0.3708
   58CHL1   H1A 6743   6.715   4.648   9.765 -0.1564  0.4597  2.3131
   58CHL1   H1B 6744   6.652   4.482   9.771 -0.2441 -1.1545  0.7215
   58CHL1    C2 6745   6.742   4.551   9.952 -0.2104  0.3206 -0.2470
   58CHL1   H2A 6746   6.639   4.560   9.993 -0.6031 -1.1565 -0.8640
   58CHL1   H2B 6747   6.805   4.635   9.989 -2.1630  1.8012 -0.0979
   58CHL1   C20 6748   6.766   4.523   9.016 -0.4834  0.1431  0.8968
   58CHL1   H20 6749   6.851   4.592   8.999 -0.7098 -0.3088 -3.0664
   58CHL1   C21 6750   6.631   4.600   9.025 -0.4199 -0.0933 -0.4907
   58CHL1  H21A 6751   6.617   4.665   8.937 -0.6394  1.4274  0.6240
   58CHL1  H21B 6752   6.632   4.665   9.116 -1.2043 -0.7930  0.0346
   58CHL1  H21C 6753   6.539   4.539   9.028  0.2959 -1.1871  0.3881
   58CHL1   C22 6754   6.785   4.437   8.890 -0.0517 -0.9586  0.3997
   58CHL1  H22A 6755   6.884   4.391   8.870 -0.3488 -1.1231 -0.7317
   58CHL1  H22B 6756   6.710   4.355   8.894  0.3778 -1.3129  1.8510
   58CHL1   C23 6757   6.757   4.532   8.762 -0.3457 -0.0696  0.0700
   58CHL1  H23A 6758   6.651   4.565   8.766 -0.1934  0.3831  0.4768
   58CHL1  H23B 6759   6.835   4.610   8.747  0.2584 -0.6204  0.2979
   58CHL1   C24 6760   6.760   4.451   8.628  0.0814  0.1066  0.1612
   58CHL1  H24A 6761   6.863   4.411   8.619  0.7679  2.0343 -1.1778
   58CHL1  H24B 6762   6.693   4.363   8.619 -0.4967  0.6028 -0.5110
   58CHL1   C25 6763   6.753   4.537   8.494  0.2247 -0.3144 -0.6293
   58CHL1   H25 6764   6.841   4.604   8.502 -0.0763  0.0672 -0.4720
   58CHL1   C26 6765   6.759   4.459   8.364  0.1453  0.1777 -0.2720
   58CHL1  H26A 6766   6.673   4.389   8.366 -0.6107  1.0692  2.3007
   58CHL1  H26B 6767   6.749   4.535   8.283 -0.5572 -0.3002 -0.6441
   58CHL1  H26C 6768   6.856   4.410   8.339  0.1002 -0.2277  0.3354
   58CHL1   C27 6769   6.621   4.623   8.491  0.1614 -0.6997  0.9373
   58CHL1  H27A 6770   6.606   4.695   8.574  0.2898  1.7564 -1.0181
   58CHL1  H27B 6771   6.616   4.698   8.408  1.3389 -0.1161  1.3682
   58CHL1  H27C 6772   6.535   4.554   8.490  0.1519 -0.7478 -1.2765
   59CHL1    C3 6773   0.366   3.383  10.394  0.3286 -0.0157  0.3901
   59CHL1    H3 6774   0.406   3.481  10.360 -0.0310 -0.0056 -0.0134
   59CHL1    O3 6775   0.407   3.376  10.531 -0.0196 -0.3821 -0.6641
   59CHL1   H3' 6776   0.338   3.435  10.563 -1.1100 -0.8932 -1.9425
   59CHL1    C4 6777   0.213   3.360  10.385  0.2919  0.3521 -0.3817
   59CHL1   H4A 6778   0.183   3.269  10.442  2.2709  0.7410  1.4137
   59CHL1   H4B 6779   0.159   3.434  10.448 -0.0980  1.0422 -1.5118
   59CHL1    C5 6780   0.167   3.370  10.245  0.0768 -0.2352  0.2029
   59CHL1    C6 6781   0.085   3.467  10.208 -0.0406  0.5028 -0.4045
   59CHL1    H6 6782   0.054   3.546  10.278 -2.1033 -0.3655 -0.2733
   59CHL1    C7 6783   0.031   3.483  10.071 -0.0996 -0.3362 -0.0755
   59CHL1   H7A 6784  -0.079   3.488  10.086  0.0324 -0.4578  1.0784
   59CHL1   H7B 6785   0.066   3.578  10.025 -1.0028 -0.6026 -1.3790
   59CHL1    C8 6786   0.059   3.364   9.976  1.1761 -0.4125 -0.0354
   59CHL1    H8 6787  -0.009   3.282  10.009 -1.5203  0.9156 -1.9321
   59CHL1   C14 6788   0.045   3.408   9.824  0.0755  0.2797 -0.2613
   59CHL1   H14 6789   0.124   3.486   9.817  0.3977  0.1494  1.5429
   59CHL1   C15 6790  -0.086   3.479   9.785 -0.0058  0.1971 -0.5652
   59CHL1  H15A 6791  -0.173   3.422   9.823  1.1205  0.5013  2.7926
   59CHL1  H15B 6792  -0.094   3.578   9.835 -3.1439 -0.6469  0.8628
   59CHL1   C16 6793  -0.077   3.477   9.633  0.3469 -0.6451  0.0800
   59CHL1  H16A 6794  -0.173   3.462   9.578 -1.1447  0.9006  2.1231
   59CHL1  H16B 6795  -0.041   3.573   9.589 -0.1422 -0.1954  0.6412
   59CHL1   C17 6796   0.028   3.374   9.583  0.1225 -0.8600  0.0615
   59CHL1   H17 6797   0.120   3.428   9.553 -0.7054  0.2339 -0.5836
   59CHL1   C13 6798   0.061   3.297   9.719 -0.9469  0.1227 -0.8670
   59CHL1   C18 6799  -0.044   3.183   9.741 -0.4500  0.0521  0.2860
   59CHL1  H18A 6800  -0.028   3.079   9.705 -1.4492 -0.0361  0.0659
   59CHL1  H18B 6801  -0.051   3.169   9.851 -1.5233 -0.8099  0.1217
   59CHL1  H18C 6802  -0.134   3.222   9.689  0.9097 -0.2614 -2.4655
   59CHL1   C12 6803   0.205   3.238   9.743  0.1393  0.3766 -0.0707
   59CHL1  H12A 6804   0.218   3.150   9.678  0.0583  0.5164 -0.2773
   59CHL1  H12B 6805   0.279   3.320   9.731 -0.5640  0.8163 -1.6781
   59CHL1   C11 6806   0.214   3.190   9.886  0.3208 -0.1316  0.1864
   59CHL1  H11A 6807   0.144   3.105   9.902 -0.5064  0.6317  0.7674
   59CHL1  H11B 6808   0.314   3.147   9.909  0.9699  1.8871  1.4038
   59CHL1    C9 6809   0.199   3.303   9.991 -0.0656 -0.3809 -0.1109
   59CHL1    H9 6810   0.270   3.381   9.956  1.9491 -2.2787 -0.4280
   59CHL1   C10 6811   0.231   3.271  10.142  0.2301 -0.5753  0.3933
   59CHL1   C19 6812   0.177   3.133  10.168 -0.0217  0.5292 -0.2250
   59CHL1  H19A 6813   0.066   3.128  10.160  0.0057  0.0954 -0.3698
   59CHL1  H19B 6814   0.215   3.057  10.096 -0.0762  0.1684  0.1211
   59CHL1  H19C 6815   0.222   3.099  10.263 -0.6999 -4.4306 -1.3871
   59CHL1    C1 6816   0.382   3.284  10.157 -0.2218  0.1925 -0.1306
   59CHL1   H1A 6817   0.429   3.199  10.104  0.3781  1.1334 -1.1477
   59CHL1   H1B 6818   0.420   3.376  10.107  2.4860  0.4344  2.0878
   59CHL1    C2 6819   0.436   3.279  10.305 -0.0397  0.6929  0.1493
   59CHL1   H2A 6820   0.547   3.278  10.317  0.1766 -0.2928 -1.6320
   59CHL1   H2B 6821   0.401   3.178  10.337 -4.3947  1.7216 -0.7873
   59CHL1   C20 6822  -0.014   3.301   9.453 -0.2533 -0.3054 -0.1272
   59CHL1   H20 6823  -0.099   3.232   9.473  1.2100 -1.7802  1.1979
   59CHL1   C21 6824   0.099   3.201   9.409 -0.1193 -0.0707  0.2004
   59CHL1  H21A 6825   0.064   3.126   9.335  2.4001 -2.0229  0.8904
   59CHL1  H21B 6826   0.130   3.142   9.497  1.6712 -1.4512 -1.2931
   59CHL1  H21C 6827   0.184   3.244   9.352 -1.7017 -0.3834 -2.6273
   59CHL1   C22 6828  -0.052   3.404   9.339 -0.0393  0.6605 -0.2035
   59CHL1  H22A 6829  -0.159   3.432   9.348  0.5909  4.1847 -1.8216
   59CHL1  H22B 6830   0.006   3.498   9.352  0.5944  0.1122  1.1034
   59CHL1   C23 6831  -0.049   3.356   9.192  1.0205  0.6142 -0.4328
   59CHL1  H23A 6832   0.050   3.313   9.165  0.5683  0.1177 -1.3599
   59CHL1  H23B 6833  -0.121   3.273   9.207 -0.5846  1.8589 -0.9805
   59CHL1   C24 6834  -0.090   3.468   9.093 -0.1510 -0.3341  1.1225
   59CHL1  H24A 6835  -0.164   3.534   9.144 -0.8236 -1.1924  1.2827
   59CHL1  H24B 6836   0.002   3.523   9.065  0.0727 -1.2128  0.0987
   59CHL1   C25 6837  -0.141   3.402   8.962 -0.3084  0.9351  0.2091
   59CHL1   H25 6838  -0.215   3.327   8.996  1.2687 -0.9127 -0.2514
   59CHL1   C26 6839  -0.208   3.504   8.878 -0.1499  0.1519  0.2371
   59CHL1  H26A 6840  -0.140   3.592   8.877  1.0753 -0.7755 -0.0302
   59CHL1  H26B 6841  -0.219   3.467   8.774  0.4148 -2.3725  0.9980
   59CHL1  H26C 6842  -0.308   3.527   8.921 -0.1741 -3.3826  2.4874
   59CHL1   C27 6843  -0.031   3.321   8.885 -0.3454 -0.3110  0.2433
   59CHL1  H27A 6844  -0.079   3.272   8.798  0.3447  0.5898 -0.6770
   59CHL1  H27B 6845   0.044   3.399   8.861 -0.2842 -0.6831 -0.8195
   59CHL1  H27C 6846   0.021   3.245   8.947 -0.9578 -0.2036  0.9148
   60CHL1    C3 6847   4.972   2.098  10.311 -0.2079  0.2750  1.0127
   60CHL1    H3 6848   5.066   2.040  10.294 -1.4663 -1.5687  0.0039
   60CHL1    O3 6849   4.940   2.110  10.449  0.2400 -0.2379  0.4968
   60CHL1   H3' 6850   4.860   2.163  10.443  1.2940  1.4870  1.0183
   60CHL1    C4 6851   4.979   2.233  10.245 -0.3078 -0.2065 -0.0208
   60CHL1   H4A 6852   4.883   2.287  10.263 -0.9944 -1.0035 -1.1482
   60CHL1   H4B 6853   5.046   2.301  10.301 -1.8150  0.8779  0.5521
   60CHL1    C5 6854   4.994   2.234  10.094  0.6140 -0.7613 -0.3656
   60CHL1    C6 6855   5.096   2.294  10.041  0.5737  0.1150  0.1938
   60CHL1    H6 6856   5.164   2.345  10.111  1.0032  0.3496 -0.3847
   60CHL1    C7 6857   5.124   2.296   9.897  0.5471  0.6207 -0.2161
   60CHL1   H7A 6858   5.152   2.396   9.858 -0.7512  1.5740  1.1783
   60CHL1   H7B 6859   5.206   2.222   9.881 -0.8604 -1.1714  0.4300
   60CHL1    C8 6860   5.005   2.242   9.807  0.1987 -0.4466  0.7582
   60CHL1    H8 6861   4.922   2.315   9.811  0.3482 -0.3269  2.5795
   60CHL1   C14 6862   5.046   2.207   9.665  0.7622  0.7023  0.2173
   60CHL1   H14 6863   5.121   2.125   9.668 -1.2097 -1.1743  0.7521
   60CHL1   C15 6864   5.124   2.316   9.591  0.3243  0.1760  0.0740
   60CHL1  H15A 6865   5.069   2.411   9.605  1.5710  1.5939 -3.4310
   60CHL1  H15B 6866   5.223   2.308   9.641 -1.3878  0.0401  3.7990
   60CHL1   C16 6867   5.113   2.271   9.445  0.0752  0.0372 -0.3606
   60CHL1  H16A 6868   5.100   2.349   9.367  0.0347  1.0294  0.6142
   60CHL1  H16B 6869   5.212   2.230   9.416  0.4379  0.2112  0.5920
   60CHL1   C17 6870   5.017   2.143   9.442 -0.5329 -0.2501  0.1593
   60CHL1   H17 6871   5.093   2.063   9.454 -1.5791 -1.1234  1.2436
   60CHL1   C13 6872   4.934   2.156   9.568 -0.7852 -0.2400 -0.9645
   60CHL1   C18 6873   4.825   2.265   9.557 -0.5544 -0.2419 -0.2919
   60CHL1  H18A 6874   4.786   2.299   9.655 -1.4873 -1.7698 -0.1108
   60CHL1  H18B 6875   4.878   2.345   9.501 -0.4445 -0.7326 -0.8986
   60CHL1  H18C 6876   4.733   2.227   9.509  0.0877 -2.0753 -0.1707
   60CHL1   C12 6877   4.886   2.029   9.642 -0.2177  0.2541  0.1185
   60CHL1  H12A 6878   4.807   1.983   9.579  0.6606  1.7760 -2.2278
   60CHL1  H12B 6879   4.964   1.950   9.630 -0.3211  0.1103  0.3930
   60CHL1   C11 6880   4.837   2.060   9.783  0.3079  0.0530 -0.6309
   60CHL1  H11A 6881   4.752   2.130   9.791  1.4609  1.3157  1.6062
   60CHL1  H11B 6882   4.796   1.962   9.817  0.9111  1.0286  3.3645
   60CHL1    C9 6883   4.945   2.114   9.877 -0.1919 -0.0167  0.0842
   60CHL1    H9 6884   5.025   2.036   9.881 -0.4589 -0.2411  2.4605
   60CHL1   C10 6885   4.894   2.142  10.022 -0.4497  0.5725  0.4648
   60CHL1   C19 6886   4.752   2.215  10.021  0.0838 -1.0510  0.0573
   60CHL1  H19A 6887   4.753   2.312   9.966 -0.7287 -0.5976  0.7971
   60CHL1  H19B 6888   4.671   2.152   9.980  1.8037 -3.2285 -0.1719
   60CHL1  H19C 6889   4.727   2.232  10.128 -0.0768 -2.5590  0.2764
   60CHL1    C1 6890   4.879   2.004  10.094  0.4077  0.2004  0.9154
   60CHL1   H1A 6891   4.807   1.933  10.049  1.8580 -0.4176 -0.5255
   60CHL1   H1B 6892   4.972   1.947  10.074  0.0700 -0.5605  1.4751
   60CHL1    C2 6893   4.859   2.012  10.248  0.4621  0.0972 -0.8312
   60CHL1   H2A 6894   4.862   1.910  10.293  1.3753  0.2308 -0.5739
   60CHL1   H2B 6895   4.766   2.064  10.281  0.3495 -1.0707  0.8555
   60CHL1   C20 6896   4.944   2.140   9.309 -0.4156 -0.3545  0.3069
   60CHL1   H20 6897   4.892   2.238   9.303  0.0393 -0.0295  1.3695
   60CHL1   C21 6898   4.846   2.016   9.300 -0.2015  0.8793  0.3598
   60CHL1  H21A 6899   4.793   2.003   9.397  0.3739  1.2323  0.7241
   60CHL1  H21B 6900   4.913   1.928   9.287 -0.6000  0.4283  1.2853
   60CHL1  H21C 6901   4.781   2.021   9.210  1.6347  0.3421 -1.0633
   60CHL1   C22 6902   5.042   2.137   9.181  0.7508 -0.5643  0.9028
   60CHL1  H22A 6903   5.106   2.227   9.174 -0.7899  0.5021 -0.0705
   60CHL1  H22B 6904   5.101   2.043   9.177  0.0944 -0.9566  0.2981
   60CHL1   C23 6905   4.970   2.139   9.044  0.5828  0.0933  0.4730
   60CHL1  H23A 6906   4.917   2.042   9.037  0.8415 -0.1302  1.4003
   60CHL1  H23B 6907   4.906   2.229   9.054 -0.1058 -0.5709  2.8828
   60CHL1   C24 6908   5.069   2.178   8.930 -0.3496  0.0869 -0.1769
   60CHL1  H24A 6909   5.116   2.273   8.960  0.0070 -0.4643  1.0448
   60CHL1  H24B 6910   5.148   2.100   8.932 -1.1169 -0.7170 -0.1677
   60CHL1   C25 6911   5.007   2.184   8.785 -0.6045  0.3917 -0.6874
   60CHL1   H25 6912   4.956   2.086   8.776 -1.4922  0.6136  1.2681
   60CHL1   C26 6913   4.906   2.295   8.781  0.2949 -0.1873  0.1252
   60CHL1  H26A 6914   4.961   2.383   8.821 -1.3208  0.6743  0.5359
   60CHL1  H26B 6915   4.878   2.318   8.676  1.0266  1.9015  0.3348
   60CHL1  H26C 6916   4.823   2.265   8.848  1.7570  0.5083  2.3599
   60CHL1   C27 6917   5.103   2.201   8.661 -0.5141  0.5783  0.0452
   60CHL1  H27A 6918   5.169   2.289   8.675  1.7021 -0.7186 -1.5228
   60CHL1  H27B 6919   5.162   2.108   8.644  1.1841  1.5693  0.3243
   60CHL1  H27C 6920   5.052   2.229   8.566 -1.0706  0.8655  0.4234
   61CHL1    C3 6921   2.606   3.268  10.360 -0.0488  0.3012  0.3178
   61CHL1    H3 6922   2.580   3.161  10.344  1.4464 -0.1004  0.4419
   61CHL1    O3 6923   2.617   3.296  10.495 -0.0614  0.0510 -0.0208
   61CHL1   H3' 6924   2.535   3.269  10.537 -0.7676  0.3919 -1.1236
   61CHL1    C4 6925   2.739   3.299  10.296 -0.1500  0.1042  1.0943
   61CHL1   H4A 6926   2.762   3.406  10.315  0.6867 -0.1488  1.5738
   61CHL1   H4B 6927   2.818   3.235  10.340  1.2602  0.7218 -0.4235
   61CHL1    C5 6928   2.738   3.271  10.145 -0.1568  0.3259  0.0549
   61CHL1    C6 6929   2.818   3.175  10.088  0.8032 -0.0447  0.7985
   61CHL1    H6 6930   2.891   3.126  10.155  0.8099 -1.3723 -0.1408
   61CHL1    C7 6931   2.811   3.143   9.942 -0.2165  0.1108  0.3153
   61CHL1   H7A 6932   2.906   3.144   9.885 -1.5629  0.3289 -2.0699
   61CHL1   H7B 6933   2.768   3.043   9.919 -3.2271  1.6196 -1.1697
   61CHL1    C8 6934   2.726   3.250   9.857  0.6023  0.6049 -0.2035
   61CHL1    H8 6935   2.782   3.342   9.831 -1.2205  0.9925 -3.1783
   61CHL1   C14 6936   2.685   3.179   9.725 -0.2267 -0.0132 -0.9810
   61CHL1   H14 6937   2.638   3.084   9.756  1.6411 -0.7732 -0.2958
   61CHL1   C15 6938   2.800   3.125   9.644 -0.2294 -0.1906  0.2749
   61CHL1  H15A 6939   2.879   3.201   9.629 -0.6705 -0.0313 -1.5531
   61CHL1  H15B 6940   2.850   3.032   9.679 -0.2030 -0.9539 -1.6342
   61CHL1   C16 6941   2.728   3.109   9.506 -0.0284  0.1700 -0.6101
   61CHL1  H16A 6942   2.790   3.158   9.428  0.5122  2.0191  0.9042
   61CHL1  H16B 6943   2.711   3.004   9.474 -1.6724  0.5589 -1.1058
   61CHL1   C17 6944   2.586   3.171   9.517  0.4188 -0.1697  0.3679
   61CHL1   H17 6945   2.508   3.096   9.542 -0.9681  0.7103 -1.1168
   61CHL1   C13 6946   2.590   3.259   9.639 -0.4340  0.4333 -0.7874
   61CHL1   C18 6947   2.654   3.394   9.606 -0.9447 -0.0995  0.1471
   61CHL1  H18A 6948   2.579   3.450   9.547 -1.5604 -0.4969  0.5435
   61CHL1  H18B 6949   2.674   3.459   9.694 -0.2044 -1.6408  1.1606
   61CHL1  H18C 6950   2.754   3.377   9.560 -1.4438 -0.3055 -0.8709
   61CHL1   C12 6951   2.463   3.270   9.720 -0.2384  0.4310  0.1368
   61CHL1  H12A 6952   2.389   3.327   9.659  2.8583  1.7815 -2.7004
   61CHL1  H12B 6953   2.422   3.168   9.730 -2.3386  1.3911  2.1557
   61CHL1   C11 6954   2.482   3.342   9.855  0.8488 -0.2352 -0.1016
   61CHL1  H11A 6955   2.494   3.451   9.835  0.4079  0.1608  1.6135
   61CHL1  H11B 6956   2.384   3.325   9.905  0.7689 -2.8858 -1.0259
   61CHL1    C9 6957   2.593   3.274   9.933 -0.5885 -1.0434  0.0759
   61CHL1    H9 6958   2.551   3.173   9.950  0.2177 -1.1116  1.8814
   61CHL1   C10 6959   2.620   3.341  10.076  0.5325  0.0987  0.0128
   61CHL1   C19 6960   2.653   3.490  10.065  0.3163 -0.7025 -0.7001
   61CHL1  H19A 6961   2.748   3.517  10.015  2.0622 -0.0523  2.6383
   61CHL1  H19B 6962   2.564   3.538  10.018 -0.4052 -1.4929 -0.1863
   61CHL1  H19C 6963   2.653   3.533  10.168 -0.6862  2.3588 -1.8528
   61CHL1    C1 6964   2.489   3.341  10.157 -0.0148  0.3120 -1.0222
   61CHL1   H1A 6965   2.429   3.428  10.122 -1.6339  0.8020  2.4994
   61CHL1   H1B 6966   2.426   3.253  10.135  0.1773  0.1792 -1.0477
   61CHL1    C2 6967   2.497   3.362  10.312  0.2848 -0.8316 -0.0104
   61CHL1   H2A 6968   2.400   3.339  10.361  0.3497  0.9890  1.0828
   61CHL1   H2B 6969   2.520   3.465  10.348 -3.5356 -0.1743  0.9639
   61CHL1   C20 6970   2.543   3.240   9.384  0.1484  0.2529 -0.7347
   61CHL1   H20 6971   2.617   3.323   9.372  0.9746 -0.0925  1.5590
   61CHL1   C21 6972   2.406   3.307   9.398  0.2502  0.5142  0.1066
   61CHL1  H21A 6973   2.361   3.337   9.301 -0.5390 -0.1994  0.2474
   61CHL1  H21B 6974   2.411   3.401   9.457  0.5882  1.2682 -1.0771
   61CHL1  H21C 6975   2.341   3.229   9.441  3.3613 -2.4114 -0.0502
   61CHL1   C22 6976   2.542   3.142   9.262  0.5821 -0.6933 -0.8492
   61CHL1  H22A 6977   2.649   3.117   9.250  1.5276  2.6549 -0.2718
   61CHL1  H22B 6978   2.480   3.052   9.285 -2.3837  1.2342 -0.8135
   61CHL1   C23 6979   2.493   3.187   9.118  0.1676  0.0213 -0.7575
   61CHL1  H23A 6980   2.383   3.201   9.122  0.3746  1.5831  2.3817
   61CHL1  H23B 6981   2.540   3.284   9.091  0.1564  0.0309 -0.7432
   61CHL1   C24 6982   2.532   3.081   9.015 -0.0924 -0.6544 -0.3900
   61CHL1  H24A 6983   2.639   3.057   9.035  0.0203 -1.3210 -1.7231
   61CHL1  H24B 6984   2.463   2.996   9.032 -0.7468  0.2484  1.8557
   61CHL1   C25 6985   2.530   3.127   8.872 -0.9737  0.0463  1.0697
   61CHL1   H25 6986   2.604   3.210   8.869 -1.5998  0.5994 -0.3857
   61CHL1   C26 6987   2.578   3.017   8.769 -0.0007  0.4435 -0.2202
   61CHL1  H26A 6988   2.679   2.978   8.793 -0.7661 -1.6650 -0.2079
   61CHL1  H26B 6989   2.513   2.927   8.769  1.9742 -1.1252 -2.6317
   61CHL1  H26C 6990   2.573   3.066   8.669 -0.9208  1.8702  0.4941
   61CHL1   C27 6991   2.394   3.176   8.819  0.5663 -0.1253  0.3123
   61CHL1  H27A 6992   2.353   3.248   8.893 -1.3071  0.5991 -1.3487
   61CHL1  H27B 6993   2.393   3.223   8.718  1.5638  0.7249  0.6830
   61CHL1  H27C 6994   2.326   3.087   8.816 -0.9026  0.9736 -0.1574
   62CHL1    C3 6995   2.330   5.127   9.983  0.4293  0.0326 -0.7401
   62CHL1    H3 6996   2.294   5.230   9.964  1.5849  0.5903 -0.0384
   62CHL1    O3 6997   2.299   5.092  10.122 -0.8407 -0.0594 -0.1728
   62CHL1   H3' 6998   2.220   5.037  10.126  0.7241 -2.3843  1.5903
   62CHL1    C4 6999   2.271   5.020   9.893  0.2941 -0.1844 -0.5241
   62CHL1   H4A 7000   2.316   4.925   9.928  0.1501 -0.2807 -0.5982
   62CHL1   H4B 7001   2.162   5.002   9.907  0.2087 -0.7414 -1.7293
   62CHL1    C5 7002   2.306   5.050   9.750 -0.5202 -0.3192  0.3383
   62CHL1    C6 7003   2.201   5.059   9.661 -0.4807 -0.5888 -0.5080
   62CHL1    H6 7004   2.101   5.047   9.703 -0.0772 -1.9772  0.1114
   62CHL1    C7 7005   2.219   5.093   9.517 -0.5702 -0.1557  0.6422
   62CHL1   H7A 7006   2.162   5.025   9.449  0.6504 -2.0698  1.4417
   62CHL1   H7B 7007   2.186   5.198   9.504 -0.9747 -0.3170  0.3030
   62CHL1    C8 7008   2.370   5.081   9.467  0.4637 -0.4680  0.2856
   62CHL1    H8 7009   2.389   4.972   9.457  3.1639 -0.1216  0.6394
   62CHL1   C14 7010   2.390   5.131   9.328  0.2920 -0.3566  1.0179
   62CHL1   H14 7011   2.356   5.237   9.323  2.2805  0.2993 -2.1558
   62CHL1   C15 7012   2.306   5.066   9.213 -0.1465 -0.4240  0.1653
   62CHL1  H15A 7013   2.345   4.962   9.213  1.4763  0.0761 -2.8865
   62CHL1  H15B 7014   2.195   5.070   9.214 -0.2097 -0.4944 -2.1175
   62CHL1   C16 7015   2.365   5.139   9.087  0.4215  0.0313 -0.7803
   62CHL1  H16A 7016   2.378   5.057   9.012 -1.6610 -2.1198  1.0372
   62CHL1  H16B 7017   2.286   5.205   9.043  0.4670 -0.6250 -1.8984
   62CHL1   C17 7018   2.501   5.208   9.134  0.4296 -0.1509  0.7326
   62CHL1   H17 7019   2.470   5.313   9.154  0.6585 -0.0348  0.4848
   62CHL1   C13 7020   2.537   5.144   9.270 -0.4608 -0.0819 -0.1267
   62CHL1   C18 7021   2.593   5.002   9.245  0.3184  0.0155 -0.1478
   62CHL1  H18A 7022   2.563   4.937   9.331  2.3450  1.5808  1.8837
   62CHL1  H18B 7023   2.546   4.952   9.158 -0.6092  0.9914 -0.2240
   62CHL1  H18C 7024   2.703   4.989   9.238  0.3821  0.6314 -0.3395
   62CHL1   C12 7025   2.623   5.223   9.372  0.2775  0.3884  0.2447
   62CHL1  H12A 7026   2.730   5.220   9.340 -0.0878 -1.2646 -1.0192
   62CHL1  H12B 7027   2.595   5.330   9.374  1.9919  0.9118 -1.1984
   62CHL1   C11 7028   2.605   5.167   9.514  0.7192  0.0894 -0.5473
   62CHL1  H11A 7029   2.655   5.068   9.516 -1.2559 -0.9362  0.8421
   62CHL1  H11B 7030   2.667   5.235   9.577  1.0807 -1.0957  0.4257
   62CHL1    C9 7031   2.463   5.153   9.568  0.0932  0.3492  0.3409
   62CHL1    H9 7032   2.424   5.256   9.580 -0.2404  0.0830  1.7479
   62CHL1   C10 7033   2.454   5.089   9.713 -0.6451 -0.1611  0.4282
   62CHL1   C19 7034   2.531   4.953   9.710 -0.0367 -0.2408  0.1381
   62CHL1  H19A 7035   2.522   4.896   9.805 -0.7609  0.2507  0.3746
   62CHL1  H19B 7036   2.476   4.893   9.635 -1.4352 -0.3548  1.2097
   62CHL1  H19C 7037   2.637   4.976   9.684 -0.5233  2.3351  0.1460
   62CHL1    C1 7038   2.518   5.178   9.819 -0.0816 -0.2931 -0.1114
   62CHL1   H1A 7039   2.628   5.182   9.803 -0.3275  2.0453 -1.6925
   62CHL1   H1B 7040   2.489   5.282   9.795 -1.4155 -0.5207  0.4369
   62CHL1    C2 7041   2.482   5.137   9.964  0.0950  0.7213 -0.3904
   62CHL1   H2A 7042   2.502   5.214  10.042 -1.1835 -0.4599  1.1634
   62CHL1   H2B 7043   2.528   5.040   9.993 -0.2315  0.9768  1.0606
   62CHL1   C20 7044   2.606   5.213   9.014  0.3500  0.1513  0.1718
   62CHL1   H20 7045   2.641   5.110   8.996 -2.7162 -1.0650  0.4443
   62CHL1   C21 7046   2.722   5.306   9.066  0.2741  0.0323  0.3493
   62CHL1  H21A 7047   2.777   5.269   9.155  0.0470  1.1945  0.9837
   62CHL1  H21B 7048   2.693   5.410   9.090  1.9416  0.4257  0.7471
   62CHL1  H21C 7049   2.799   5.321   8.988 -0.9234  0.3678 -0.8130
   62CHL1   C22 7050   2.533   5.266   8.884 -0.2504  0.3913 -0.6836
   62CHL1  H22A 7051   2.456   5.193   8.850  1.6147 -0.4930 -3.3167
   62CHL1  H22B 7052   2.478   5.360   8.906 -1.0558 -0.4977  1.3443
   62CHL1   C23 7053   2.629   5.285   8.761  0.1646 -0.4093 -0.1878
   62CHL1  H23A 7054   2.571   5.312   8.670 -0.3392 -2.5383 -0.5588
   62CHL1  H23B 7055   2.697   5.371   8.779  2.0479 -1.7613 -0.5934
   62CHL1   C24 7056   2.710   5.159   8.729  0.4412  0.8065 -0.5566
   62CHL1  H24A 7057   2.761   5.133   8.825  0.2547 -0.8542 -0.8756
   62CHL1  H24B 7058   2.651   5.071   8.697  0.5642  0.2334  0.6914
   62CHL1   C25 7059   2.822   5.181   8.620 -0.0207  0.1285  0.0113
   62CHL1   H25 7060   2.886   5.091   8.629 -1.2895 -0.6960  1.1157
   62CHL1   C26 7061   2.762   5.204   8.479 -0.6471  0.5322 -0.1845
   62CHL1  H26A 7062   2.841   5.223   8.402 -0.0587 -3.3525 -0.7573
   62CHL1  H26B 7063   2.687   5.126   8.457  0.1076 -0.0734 -0.6871
   62CHL1  H26C 7064   2.706   5.299   8.489 -1.1587  0.3489 -1.1190
   62CHL1   C27 7065   2.913   5.305   8.654 -0.0334 -0.0318 -0.5356
   62CHL1  H27A 7066   2.948   5.290   8.759 -1.6360 -0.0324  0.0172
   62CHL1  H27B 7067   2.998   5.304   8.582  1.1496  2.2458  0.7160
   62CHL1  H27C 7068   2.851   5.397   8.650 -1.1195 -0.7170  0.0737
   63CHL1    C3 7069   5.141   6.745  10.464 -0.1259  0.5527  0.4041
   63CHL1    H3 7070   5.252   6.741  10.456 -0.1792  0.1609 -0.2302
   63CHL1    O3 7071   5.095   6.760  10.596 -0.2326 -0.1136  0.2337
   63CHL1   H3' 7072   5.002   6.739  10.597 -0.9941  2.8217  1.0476
   63CHL1    C4 7073   5.096   6.863  10.381  0.1998 -0.5083  0.1247
   63CHL1   H4A 7074   4.986   6.868  10.396  0.1521 -0.1482 -0.3433
   63CHL1   H4B 7075   5.151   6.950  10.424 -1.4330  0.7192 -0.1658
   63CHL1    C5 7076   5.145   6.839  10.242 -0.4917  0.3323 -0.8517
   63CHL1    C6 7077   5.221   6.928  10.173  0.5713  0.1200 -0.2961
   63CHL1    H6 7078   5.238   7.022  10.227 -0.3744 -0.5098  1.1395
   63CHL1    C7 7079   5.250   6.923  10.032  0.4752 -0.0521 -0.0611
   63CHL1   H7A 7080   5.229   7.024   9.989 -1.0100  0.0710  0.8805
   63CHL1   H7B 7081   5.361   6.915  10.029  0.3526 -1.7410 -0.9508
   63CHL1    C8 7082   5.169   6.815   9.948 -0.3663 -0.7112 -0.6279
   63CHL1    H8 7083   5.063   6.847   9.939 -0.0675  1.1065  1.4304
   63CHL1   C14 7084   5.247   6.788   9.823  1.3471  0.6725  0.3833
   63CHL1   H14 7085   5.348   6.761   9.863  1.3411 -0.7311 -0.4920
   63CHL1   C15 7086   5.287   6.898   9.727 -0.0487 -0.9318  0.0223
   63CHL1  H15A 7087   5.195   6.959   9.709  0.8550  0.1332 -1.2135
   63CHL1  H15B 7088   5.366   6.961   9.773 -1.8182  0.9960  0.6135
   63CHL1   C16 7089   5.336   6.827   9.598  0.6111 -0.0523  0.0641
   63CHL1  H16A 7090   5.277   6.856   9.508  0.9952  2.0257  0.4340
   63CHL1  H16B 7091   5.442   6.843   9.572  0.7324 -1.2838 -0.2593
   63CHL1   C17 7092   5.303   6.673   9.623 -0.1950  0.1613  1.4563
   63CHL1   H17 7093   5.394   6.635   9.674 -0.8576  1.7109  3.9850
   63CHL1   C13 7094   5.192   6.669   9.734  0.1960 -0.4393 -0.5574
   63CHL1   C18 7095   5.058   6.711   9.675  0.3959 -0.0172 -0.1909
   63CHL1  H18A 7096   5.078   6.770   9.584 -0.2023 -1.2948 -1.1909
   63CHL1  H18B 7097   4.990   6.626   9.653  2.0213 -1.1182 -1.1166
   63CHL1  H18C 7098   5.003   6.777   9.745 -0.4405 -0.9033  0.0126
   63CHL1   C12 7099   5.180   6.550   9.826  0.4201  0.4577 -0.0027
   63CHL1  H12A 7100   5.144   6.462   9.768  3.1999  0.6547 -2.2481
   63CHL1  H12B 7101   5.279   6.521   9.867  0.4844 -0.4274 -0.7417
   63CHL1   C11 7102   5.094   6.575   9.954 -0.6735  0.3918 -0.5395
   63CHL1  H11A 7103   4.985   6.583   9.932 -0.5642  3.0922 -0.4050
   63CHL1  H11B 7104   5.101   6.480  10.012 -0.0535  0.4885 -0.4562
   63CHL1    C9 7105   5.159   6.690  10.030  0.4869  0.2431 -0.0536
   63CHL1    H9 7106   5.263   6.664  10.058  0.6927  0.3440 -0.7092
   63CHL1   C10 7107   5.087   6.719  10.171  0.4869 -0.3930 -0.1077
   63CHL1   C19 7108   4.936   6.748  10.159 -0.1819 -0.2330  0.5682
   63CHL1  H19A 7109   4.867   6.675  10.113 -2.0199  1.8634 -0.2089
   63CHL1  H19B 7110   4.882   6.768  10.254 -0.4057  0.3883  0.3211
   63CHL1  H19C 7111   4.923   6.845  10.105 -1.5096 -0.3928  0.5586
   63CHL1    C1 7112   5.113   6.595  10.262 -0.0211 -0.3650  0.3519
   63CHL1   H1A 7113   5.077   6.499  10.219 -3.1410  0.7221  0.2253
   63CHL1   H1B 7114   5.221   6.573  10.266 -0.0272 -0.4628  0.0566
   63CHL1    C2 7115   5.072   6.612  10.410 -0.0756  0.4956 -0.3752
   63CHL1   H2A 7116   5.109   6.529  10.474  0.4692  0.2691 -0.9698
   63CHL1   H2B 7117   4.963   6.631  10.416  0.0651  1.4156 -0.6212
   63CHL1   C20 7118   5.283   6.589   9.499  0.4361 -0.0322  0.0582
   63CHL1   H20 7119   5.187   6.621   9.453 -1.2943 -0.8602  2.8803
   63CHL1   C21 7120   5.276   6.438   9.532  0.3241 -0.0908  0.2282
   63CHL1  H21A 7121   5.279   6.380   9.438 -1.5375  0.3187 -0.1209
   63CHL1  H21B 7122   5.177   6.420   9.579 -1.3844  0.3198 -2.9723
   63CHL1  H21C 7123   5.358   6.396   9.595  0.1523  2.2259  2.1409
   63CHL1   C22 7124   5.390   6.614   9.392 -0.1554  0.3297  1.1735
   63CHL1  H22A 7125   5.391   6.721   9.362  3.1536 -0.0492 -0.5064
   63CHL1  H22B 7126   5.488   6.587   9.437  0.1766 -1.0037 -0.2791
   63CHL1   C23 7127   5.381   6.542   9.249 -0.2780  0.3631 -0.5481
   63CHL1  H23A 7128   5.459   6.595   9.190 -1.4893  2.6138 -0.2430
   63CHL1  H23B 7129   5.395   6.432   9.244 -1.2727  0.2392 -0.8150
   63CHL1   C24 7130   5.254   6.594   9.178 -0.1911  0.2532 -0.3005
   63CHL1  H24A 7131   5.174   6.519   9.198  0.4895 -0.3863  0.0698
   63CHL1  H24B 7132   5.224   6.694   9.216 -0.3563  0.3453 -0.6680
   63CHL1   C25 7133   5.280   6.587   9.026  0.6023 -0.0456  0.5479
   63CHL1   H25 7134   5.177   6.609   8.991  0.0483 -0.0225  2.0961
   63CHL1   C26 7135   5.378   6.694   8.975 -0.3875  0.1199 -0.5609
   63CHL1  H26A 7136   5.373   6.782   9.044 -1.2495  0.3938 -0.9532
   63CHL1  H26B 7137   5.483   6.661   8.966 -0.3037  0.4118 -0.6542
   63CHL1  H26C 7138   5.352   6.720   8.870 -1.1168  0.6693 -0.2538
   63CHL1   C27 7139   5.327   6.452   8.980 -0.3527 -0.2047 -0.1980
   63CHL1  H27A 7140   5.273   6.372   9.035  2.9126 -0.8288  2.4682
   63CHL1  H27B 7141   5.313   6.442   8.871 -0.6089 -0.6504 -0.1280
   63CHL1  H27C 7142   5.434   6.447   9.011 -0.1006  2.9826 -0.2462
   64CHL1    C3 7143   5.262   1.164   9.964  0.4104 -0.5394  0.3534
   64CHL1    H3 7144   5.167   1.182  10.018  0.3351  1.5777 -0.4088
   64CHL1    O3 7145   5.367   1.195  10.056 -0.6793  0.0476 -0.1324
   64CHL1   H3' 7146   5.353   1.287  10.082 -0.4388  0.1056 -0.2052
   64CHL1    C4 7147   5.266   1.017   9.928  0.2987 -0.0037 -0.5989
   64CHL1   H4A 7148   5.370   0.990   9.899  0.4563  0.6899 -0.6918
   64CHL1   H4B 7149   5.249   0.959  10.021 -0.7607  2.0486  0.5519
   64CHL1    C5 7150   5.165   0.978   9.823 -1.0007 -0.9633  0.4586
   64CHL1    C6 7151   5.073   0.887   9.837  0.7754 -0.1584 -0.1698
   64CHL1    H6 7152   5.065   0.852   9.941  0.6573  0.1096 -0.0864
   64CHL1    C7 7153   4.974   0.842   9.743  0.5863  0.0005  1.1225
   64CHL1   H7A 7154   4.974   0.731   9.748  3.1088 -0.1072  0.2381
   64CHL1   H7B 7155   4.875   0.888   9.764 -0.3595 -1.3691 -0.1273
   64CHL1    C8 7156   5.027   0.877   9.597  0.4615 -0.3778  0.5445
   64CHL1    H8 7157   5.111   0.809   9.570  0.9598  0.4433 -0.0084
   64CHL1   C14 7158   4.914   0.844   9.496  0.1933 -0.1446  0.2304
   64CHL1   H14 7159   4.834   0.910   9.534  0.3123 -0.2532  0.6794
   64CHL1   C15 7160   4.854   0.704   9.496 -0.3732 -0.2765  0.4787
   64CHL1  H15A 7161   4.937   0.630   9.495 -0.7201 -0.7092 -1.8700
   64CHL1  H15B 7162   4.795   0.687   9.589 -1.2208  0.8941  0.1729
   64CHL1   C16 7163   4.780   0.695   9.363 -1.0023 -0.2096  0.0622
   64CHL1  H16A 7164   4.809   0.599   9.315 -1.9472 -0.6799  0.4111
   64CHL1  H16B 7165   4.671   0.705   9.385 -1.2158 -0.1282 -0.9618
   64CHL1   C17 7166   4.815   0.827   9.283  0.6589  0.0306  0.3844
   64CHL1   H17 7167   4.736   0.897   9.317  0.4917 -0.4044  0.9131
   64CHL1   C13 7168   4.946   0.885   9.347  0.2525  0.6317  0.4662
   64CHL1   C18 7169   5.056   0.795   9.288 -1.3839 -0.0587 -0.4035
   64CHL1  H18A 7170   5.149   0.794   9.349 -0.5330 -2.4149 -1.6059
   64CHL1  H18B 7171   5.027   0.688   9.292  2.7832 -1.4843 -2.4296
   64CHL1  H18C 7172   5.092   0.817   9.185  0.4162 -2.2637 -0.3222
   64CHL1   C12 7173   4.983   1.034   9.355 -0.4021 -0.4262  0.0945
   64CHL1  H12A 7174   5.008   1.073   9.254  1.5541  1.8021  1.3301
   64CHL1  H12B 7175   4.902   1.101   9.391  1.9831  2.7245  0.1091
   64CHL1   C11 7176   5.105   1.068   9.446  0.1667  1.0837 -0.0601
   64CHL1  H11A 7177   5.185   1.003   9.406 -1.7830 -0.3458 -1.8601
   64CHL1  H11B 7178   5.136   1.174   9.447  1.5189  0.7143  0.6363
   64CHL1    C9 7179   5.072   1.022   9.591  0.5569 -0.1014 -0.4709
   64CHL1    H9 7180   4.985   1.086   9.619 -1.3804 -2.3741 -0.9987
   64CHL1   C10 7181   5.185   1.060   9.694  0.5106  0.4278 -0.2917
   64CHL1   C19 7182   5.313   1.038   9.622  0.4363 -0.1807 -0.2229
   64CHL1  H19A 7183   5.309   0.940   9.571 -4.0370  0.0400 -0.7398
   64CHL1  H19B 7184   5.327   1.118   9.546  0.1032 -0.0977 -0.2002
   64CHL1  H19C 7185   5.400   1.053   9.690 -0.7946  0.2237  1.3433
   64CHL1    C1 7186   5.177   1.211   9.733 -0.4708  0.2031 -0.1888
   64CHL1   H1A 7187   5.202   1.275   9.646  0.7386  2.7198  1.8867
   64CHL1   H1B 7188   5.071   1.227   9.764 -0.2828 -0.8009  1.0292
   64CHL1    C2 7189   5.273   1.249   9.843 -0.6708 -0.3907 -0.0227
   64CHL1   H2A 7190   5.280   1.358   9.862  0.2963 -0.5793  0.8109
   64CHL1   H2B 7191   5.377   1.235   9.805 -0.2032 -1.1864  1.4655
   64CHL1   C20 7192   4.823   0.804   9.133 -0.5873 -0.0739  0.3415
   64CHL1   H20 7193   4.906   0.733   9.112 -1.0304 -0.5091  0.0662
   64CHL1   C21 7194   4.872   0.937   9.056  0.3358  0.0108 -0.8951
   64CHL1  H21A 7195   4.809   1.022   9.091  0.4273  1.2276 -3.4248
   64CHL1  H21B 7196   4.863   0.935   8.945  2.1325  0.4566 -1.0777
   64CHL1  H21C 7197   4.974   0.968   9.087  0.8307 -1.3021 -1.1485
   64CHL1   C22 7198   4.685   0.746   9.081 -0.5893  0.2122  0.1712
   64CHL1  H22A 7199   4.651   0.665   9.149  0.9351  0.5828  1.4142
   64CHL1  H22B 7200   4.610   0.827   9.094  0.7251  1.4202  0.3949
   64CHL1   C23 7201   4.683   0.692   8.943  0.3208 -0.0145 -0.4281
   64CHL1  H23A 7202   4.748   0.756   8.879  0.3471  0.0868 -0.2993
   64CHL1  H23B 7203   4.706   0.584   8.936 -0.7167 -0.3393  0.8966
   64CHL1   C24 7204   4.537   0.705   8.894  0.0331  0.4658 -0.7624
   64CHL1  H24A 7205   4.466   0.668   8.971  2.3991 -0.0932  1.2928
   64CHL1  H24B 7206   4.521   0.815   8.889  0.8817  0.8487  2.7365
   64CHL1   C25 7207   4.531   0.644   8.755 -0.4997 -0.0985  0.3743
   64CHL1   H25 7208   4.587   0.548   8.752 -0.1558  0.0636  1.3724
   64CHL1   C26 7209   4.381   0.631   8.728 -0.3865 -0.3009 -0.4333
   64CHL1  H26A 7210   4.346   0.558   8.805  0.5428 -0.1256  0.1726
   64CHL1  H26B 7211   4.332   0.729   8.747  0.6184  0.4781 -1.6931
   64CHL1  H26C 7212   4.358   0.587   8.629 -0.8353 -0.0094 -0.4610
   64CHL1   C27 7213   4.597   0.741   8.648 -0.4012  0.5259 -0.2689
   64CHL1  H27A 7214   4.527   0.827   8.639 -1.5584 -0.0653  2.2835
   64CHL1  H27B 7215   4.698   0.775   8.678 -0.5460  0.6659  0.0546
   64CHL1  H27C 7216   4.604   0.686   8.551 -1.3437 -1.3913  0.6898
   65CHL1    C3 7217   6.419   3.922  10.138 -0.7978  0.1348  1.1552
   65CHL1    H3 7218   6.330   3.860  10.115 -0.9498  0.5424  0.6363
   65CHL1    O3 7219   6.442   3.919  10.274 -0.3097  0.8062 -0.1788
   65CHL1   H3' 7220   6.517   3.977  10.291  0.1340  0.9783 -2.4669
   65CHL1    C4 7221   6.540   3.868  10.070 -0.1530  0.7880 -0.4619
   65CHL1   H4A 7222   6.625   3.936  10.093  0.7483 -0.4748  0.0547
   65CHL1   H4B 7223   6.575   3.768  10.104 -0.7221  0.0725 -1.8918
   65CHL1    C5 7224   6.512   3.861   9.920 -0.5367 -0.5318 -0.0930
   65CHL1    C6 7225   6.511   3.752   9.850 -0.1275  0.0214 -0.2254
   65CHL1    H6 7226   6.535   3.662   9.908 -1.2833  0.3207  0.7413
   65CHL1    C7 7227   6.497   3.740   9.705 -0.1901  0.3179  1.1114
   65CHL1   H7A 7228   6.573   3.664   9.677  1.4039  1.5646  1.8602
   65CHL1   H7B 7229   6.397   3.696   9.685 -0.3483  0.1891  2.1612
   65CHL1    C8 7230   6.536   3.871   9.635  0.8598  0.5486  0.6974
   65CHL1    H8 7231   6.645   3.893   9.645  0.7114  2.5350 -1.1789
   65CHL1   C14 7232   6.507   3.866   9.487  0.3398 -0.7917 -0.1759
   65CHL1   H14 7233   6.399   3.839   9.478  0.3263 -0.3339 -1.5633
   65CHL1   C15 7234   6.573   3.752   9.401  0.4959 -0.4933  0.2035
   65CHL1  H15A 7235   6.682   3.763   9.415  0.5923 -0.8913 -0.2114
   65CHL1  H15B 7236   6.541   3.648   9.426 -0.9384 -0.2242 -0.3770
   65CHL1   C16 7237   6.526   3.802   9.260  0.5402  0.0205 -0.1429
   65CHL1  H16A 7238   6.606   3.802   9.183  0.1808 -0.7537 -0.5311
   65CHL1  H16B 7239   6.450   3.725   9.234 -1.5580  0.5307  3.8339
   65CHL1   C17 7240   6.459   3.941   9.270  0.6925 -0.8112 -0.9017
   65CHL1   H17 7241   6.350   3.932   9.289  0.8602  0.2170  0.7679
   65CHL1   C13 7242   6.503   3.999   9.410 -0.3133  0.0407  0.4342
   65CHL1   C18 7243   6.646   4.058   9.409 -0.8971 -0.3022  0.4653
   65CHL1  H18A 7244   6.714   3.998   9.344  0.3946  1.6022 -0.0081
   65CHL1  H18B 7245   6.636   4.161   9.369  1.2972  0.4386  1.6928
   65CHL1  H18C 7246   6.691   4.060   9.510  0.6660 -1.0594 -0.1728
   65CHL1   C12 7247   6.401   4.099   9.477  0.1732 -0.2078 -0.1680
   65CHL1  H12A 7248   6.414   4.200   9.431 -0.1758  0.2454  0.7040
   65CHL1  H12B 7249   6.294   4.073   9.463  0.2366 -0.0507 -0.9856
   65CHL1   C11 7250   6.438   4.109   9.630  0.5555 -0.8920  0.0260
   65CHL1  H11A 7251   6.530   4.171   9.629 -0.8095  1.2631 -1.1305
   65CHL1  H11B 7252   6.367   4.176   9.684  0.5166  2.1819 -3.3806
   65CHL1    C9 7253   6.444   3.977   9.707  0.1079  0.4550 -0.1101
   65CHL1    H9 7254   6.341   3.936   9.708  0.8706 -1.5881 -0.9705
   65CHL1   C10 7255   6.486   3.997   9.856 -0.1071  0.1088  0.1954
   65CHL1   C19 7256   6.618   4.087   9.850  0.3788 -0.4452 -0.6626
   65CHL1  H19A 7257   6.662   4.099   9.952 -0.9743  2.6600 -0.3489
   65CHL1  H19B 7258   6.689   4.051   9.772  0.5349  0.9835 -1.2157
   65CHL1  H19C 7259   6.582   4.185   9.814 -2.4339 -0.5807  1.4408
   65CHL1    C1 7260   6.371   4.064   9.934 -0.4044 -0.8086  0.4357
   65CHL1   H1A 7261   6.366   4.172   9.910 -2.0654 -0.6138  1.4997
   65CHL1   H1B 7262   6.271   4.027   9.904 -1.2317  2.1626 -0.7912
   65CHL1    C2 7263   6.392   4.060  10.092  0.6516 -0.3196  0.3922
   65CHL1   H2A 7264   6.293   4.095  10.129  0.4251  2.3596 -2.3407
   65CHL1   H2B 7265   6.477   4.123  10.126  0.8571 -0.5853  0.3732
   65CHL1   C20 7266   6.454   4.027   9.143  0.0926  0.0317 -0.5070
   65CHL1   H20 7267   6.558   4.060   9.123  0.2121 -0.7825 -1.2953
   65CHL1   C21 7268   6.365   4.151   9.164 -0.6467 -0.2720  0.3348
   65CHL1  H21A 7269   6.419   4.229   9.221 -0.6381  1.1688 -1.5621
   65CHL1  H21B 7270   6.271   4.111   9.208 -0.9621  0.5477  0.4211
   65CHL1  H21C 7271   6.346   4.192   9.063  2.3066  0.0416 -0.1910
   65CHL1   C22 7272   6.412   3.950   9.013 -0.9524  0.1839 -0.3134
   65CHL1  H22A 7273   6.480   3.863   9.002 -1.7215 -0.3638 -0.7706
   65CHL1  H22B 7274   6.307   3.915   9.023 -0.2363 -1.6179  1.6545
   65CHL1   C23 7275   6.427   4.020   8.875  0.7478 -0.6357 -0.0269
   65CHL1  H23A 7276   6.405   3.954   8.789  1.0809 -0.8815  0.0725
   65CHL1  H23B 7277   6.362   4.110   8.878  1.6327  0.0003  0.6989
   65CHL1   C24 7278   6.572   4.071   8.846 -0.3127  0.2907  0.1236
   65CHL1  H24A 7279   6.560   4.132   8.754  1.2926 -0.9993 -0.9935
   65CHL1  H24B 7280   6.614   4.141   8.922 -0.0753  1.8035 -1.3285
   65CHL1   C25 7281   6.677   3.957   8.821  0.0581 -0.6400  0.9763
   65CHL1   H25 7282   6.709   3.927   8.924 -0.4800  0.4555  1.4824
   65CHL1   C26 7283   6.624   3.836   8.745 -0.1983 -0.1377  0.6025
   65CHL1  H26A 7284   6.703   3.760   8.729  0.7342  1.0991 -0.9595
   65CHL1  H26B 7285   6.542   3.781   8.797  0.3856 -0.4850  1.1714
   65CHL1  H26C 7286   6.579   3.857   8.646 -0.2897 -1.8198  0.2722
   65CHL1   C27 7287   6.797   4.012   8.746 -0.1086 -0.3072  0.4067
   65CHL1  H27A 7288   6.749   4.027   8.647 -2.4115  1.0117  1.6403
   65CHL1  H27B 7289   6.830   4.109   8.788  3.8540 -0.9726 -0.7561
   65CHL1  H27C 7290   6.884   3.946   8.723  1.6202  1.4726  1.5528
   66CHL1    C3 7291   4.386   2.220  10.436 -0.3208 -0.0975 -0.0261
   66CHL1    H3 7292   4.459   2.302  10.417 -0.1120 -0.0346  0.9942
   66CHL1    O3 7293   4.399   2.192  10.573  0.4423  0.1798 -0.0047
   66CHL1   H3' 7294   4.367   2.270  10.618  1.3531  1.2332 -1.1368
   66CHL1    C4 7295   4.242   2.265  10.394 -0.3369  0.6213 -0.3232
   66CHL1   H4A 7296   4.176   2.179  10.420 -2.3519  2.4978  1.2346
   66CHL1   H4B 7297   4.206   2.344  10.463 -0.1201  0.0230  0.4965
   66CHL1    C5 7298   4.243   2.307  10.255  0.9320 -0.0183  0.3919
   66CHL1    C6 7299   4.215   2.431  10.228 -0.2580  0.0444  0.7358
   66CHL1    H6 7300   4.190   2.507  10.303  0.7143  0.1886  0.9266
   66CHL1    C7 7301   4.213   2.488  10.079 -0.1535 -0.0370 -0.7319
   66CHL1   H7A 7302   4.111   2.529  10.062 -0.9788 -1.7662 -0.1969
   66CHL1   H7B 7303   4.292   2.564  10.063  0.0124  0.0465  0.3660
   66CHL1    C8 7304   4.236   2.383   9.966  0.1230  0.0263 -0.5192
   66CHL1    H8 7305   4.143   2.333   9.931 -0.4392  1.6179 -1.3838
   66CHL1   C14 7306   4.308   2.450   9.853 -0.0242 -0.1287 -0.5084
   66CHL1   H14 7307   4.404   2.485   9.897  0.0592  2.4807 -2.4985
   66CHL1   C15 7308   4.251   2.581   9.792 -0.1817 -0.3529  0.0415
   66CHL1  H15A 7309   4.142   2.575   9.772 -0.6545  2.0222  1.5057
   66CHL1  H15B 7310   4.272   2.669   9.856 -2.6501  0.1723  0.2573
   66CHL1   C16 7311   4.335   2.596   9.666 -0.2937  0.0490  0.1972
   66CHL1  H16A 7312   4.270   2.617   9.578 -0.2328 -0.2119  0.0878
   66CHL1  H16B 7313   4.398   2.686   9.680  0.6797 -0.7611  1.2043
   66CHL1   C17 7314   4.414   2.464   9.645 -0.2270  0.2572 -0.0141
   66CHL1   H17 7315   4.510   2.476   9.701  0.5088 -1.9007 -0.7300
   66CHL1   C13 7316   4.342   2.353   9.736 -0.2804 -0.4173  0.0935
   66CHL1   C18 7317   4.213   2.304   9.665 -0.1175  1.4183  0.2968
   66CHL1  H18A 7318   4.239   2.245   9.574  4.3319 -0.4604  2.5153
   66CHL1  H18B 7319   4.164   2.229   9.731  3.3215 -1.5458 -0.2176
   66CHL1  H18C 7320   4.143   2.383   9.631  0.5661  2.3140  0.9240
   66CHL1   C12 7321   4.429   2.245   9.785 -0.0822 -0.1523  0.8596
   66CHL1  H12A 7322   4.452   2.175   9.702 -1.9432 -0.7293  0.7683
   66CHL1  H12B 7323   4.528   2.294   9.797  0.3360 -1.0182  1.0183
   66CHL1   C11 7324   4.368   2.172   9.904 -0.8110  0.5662  1.1424
   66CHL1  H11A 7325   4.274   2.116   9.883 -0.2128 -0.5649  1.3932
   66CHL1  H11B 7326   4.441   2.091   9.927 -0.3378 -0.1884 -2.5067
   66CHL1    C9 7327   4.326   2.272  10.011 -0.8424  0.8303  0.0255
   66CHL1    H9 7328   4.425   2.317  10.036 -0.3982  1.8349 -3.1422
   66CHL1   C10 7329   4.288   2.207  10.154 -0.2443  0.3505  0.1750
   66CHL1   C19 7330   4.172   2.105  10.127 -0.0981 -0.6441 -0.4173
   66CHL1  H19A 7331   4.106   2.074  10.211 -0.7235 -0.0745 -0.6917
   66CHL1  H19B 7332   4.104   2.129  10.042  0.4764  0.4183 -0.5938
   66CHL1  H19C 7333   4.215   2.013  10.081 -0.7872 -0.9423 -0.4737
   66CHL1    C1 7334   4.419   2.130  10.202 -0.4419  0.5307 -0.6220
   66CHL1   H1A 7335   4.441   2.054  10.124 -1.7277  0.5110 -0.9885
   66CHL1   H1B 7336   4.506   2.198  10.199  0.2230 -0.3352 -1.8569
   66CHL1    C2 7337   4.415   2.094  10.353  0.1900 -0.2842 -0.6414
   66CHL1   H2A 7338   4.510   2.053  10.391 -1.1969 -1.9724  1.2234
   66CHL1   H2B 7339   4.333   2.020  10.367 -0.0003  0.3702  2.4278
   66CHL1   C20 7340   4.458   2.423   9.500  0.0791  0.6418 -0.6906
   66CHL1   H20 7341   4.486   2.316   9.497 -2.7390 -0.2299  0.2908
   66CHL1   C21 7342   4.575   2.525   9.469 -0.2683  0.5526 -0.6741
   66CHL1  H21A 7343   4.599   2.512   9.361 -0.8770  1.5349 -0.9507
   66CHL1  H21B 7344   4.669   2.498   9.520  0.2307  0.9111 -1.3794
   66CHL1  H21C 7345   4.539   2.627   9.496  1.2767  1.0016 -0.2276
   66CHL1   C22 7346   4.348   2.424   9.398  0.1422  0.0556  0.1613
   66CHL1  H22A 7347   4.255   2.373   9.429 -0.3657 -0.0231 -1.3729
   66CHL1  H22B 7348   4.307   2.527   9.388  1.5906  0.8071  1.5331
   66CHL1   C23 7349   4.389   2.365   9.259 -0.4708 -0.2131 -0.5915
   66CHL1  H23A 7350   4.311   2.403   9.189  0.3910  0.6058 -1.1409
   66CHL1  H23B 7351   4.491   2.402   9.234  0.2482 -1.3731  0.4813
   66CHL1   C24 7352   4.394   2.208   9.252 -0.0286 -0.3959  0.4932
   66CHL1  H24A 7353   4.492   2.166   9.281  0.7647  0.8885 -0.1991
   66CHL1  H24B 7354   4.313   2.170   9.319  0.3868  0.5033  1.5272
   66CHL1   C25 7355   4.353   2.154   9.117 -0.1580 -0.4733  0.5175
   66CHL1   H25 7356   4.257   2.208   9.103  0.5335  0.6479 -0.0468
   66CHL1   C26 7357   4.449   2.191   8.997  0.4264  0.1943  0.0543
   66CHL1  H26A 7358   4.464   2.300   8.985  0.2536  0.1059 -0.9884
   66CHL1  H26B 7359   4.551   2.158   9.024  0.5149 -0.2730 -0.8315
   66CHL1  H26C 7360   4.426   2.138   8.902  0.1926  1.0440 -0.3686
   66CHL1   C27 7361   4.311   2.003   9.121 -0.3199  0.2103 -0.7127
   66CHL1  H27A 7362   4.249   1.981   9.032  0.4571 -0.0664 -1.1968
   66CHL1  H27B 7363   4.408   1.948   9.123 -0.1077  0.5868  0.8329
   66CHL1  H27C 7364   4.265   1.991   9.222 -2.3261 -0.3575 -1.6412
   67CHL1    C3 7365   1.316   3.168  10.145 -0.4626 -0.3300  0.7154
   67CHL1    H3 7366   1.408   3.213  10.102 -0.6261  0.3824  1.1080
   67CHL1    O3 7367   1.290   3.173  10.284  0.2763 -0.2547 -0.4339
   67CHL1   H3' 7368   1.195   3.171  10.297  0.3532 -0.4871  0.1267
   67CHL1    C4 7369   1.193   3.223  10.069 -0.2900 -0.3137  0.0104
   67CHL1   H4A 7370   1.097   3.184  10.109 -0.6690  0.2103 -0.3790
   67CHL1   H4B 7371   1.190   3.331  10.095 -0.3994  0.2518 -2.1667
   67CHL1    C5 7372   1.197   3.211   9.919  0.1372  0.3169  0.3439
   67CHL1    C6 7373   1.195   3.315   9.834 -0.1490  0.0766  0.5403
   67CHL1    H6 7374   1.174   3.415   9.874  1.2814  0.4386  0.4529
   67CHL1    C7 7375   1.208   3.306   9.684 -0.4138  0.2327 -0.0779
   67CHL1   H7A 7376   1.129   3.372   9.641 -2.1230 -1.6212  0.0475
   67CHL1   H7B 7377   1.310   3.334   9.651 -0.9848  0.5010 -1.7431
   67CHL1    C8 7378   1.169   3.158   9.640 -0.3453 -0.3221  0.0624
   67CHL1    H8 7379   1.060   3.142   9.649 -0.3886  0.1404  0.4204
   67CHL1   C14 7380   1.203   3.144   9.492 -0.7038  0.0120 -0.4722
   67CHL1   H14 7381   1.311   3.172   9.486  0.3039 -3.0976  0.7987
   67CHL1   C15 7382   1.139   3.239   9.386 -0.5747 -0.6679 -0.9016
   67CHL1  H15A 7383   1.034   3.264   9.414 -0.2972  0.7149 -1.0332
   67CHL1  H15B 7384   1.209   3.324   9.373  1.2231 -1.9404  0.0099
   67CHL1   C16 7385   1.133   3.160   9.256 -0.0888 -0.0096  0.4512
   67CHL1  H16A 7386   1.025   3.148   9.231  0.3134  0.1711 -1.5365
   67CHL1  H16B 7387   1.170   3.229   9.177 -0.0138  0.4702  0.9049
   67CHL1   C17 7388   1.209   3.032   9.285 -0.1802  0.0359 -0.3141
   67CHL1   H17 7389   1.314   3.066   9.276 -0.6632  2.1562  1.2544
   67CHL1   C13 7390   1.188   3.007   9.436  0.4002  0.8631 -0.3811
   67CHL1   C18 7391   1.039   2.960   9.451 -0.6168 -0.0843  0.2114
   67CHL1  H18A 7392   1.029   2.861   9.403 -2.8887  0.5201 -0.6459
   67CHL1  H18B 7393   1.027   2.943   9.560 -1.2620 -2.1635 -0.1447
   67CHL1  H18C 7394   0.970   3.038   9.412  1.6710  2.9188  1.6889
   67CHL1   C12 7395   1.286   2.914   9.507 -0.4983 -0.0292 -0.1330
   67CHL1  H12A 7396   1.290   2.812   9.464  1.6429 -0.1784  0.3240
   67CHL1  H12B 7397   1.388   2.957   9.495  0.6283 -1.1092  4.0336
   67CHL1   C11 7398   1.256   2.912   9.665 -0.3394 -0.6120  0.7438
   67CHL1  H11A 7399   1.156   2.869   9.688 -0.6853  0.7169  1.8676
   67CHL1  H11B 7400   1.335   2.852   9.715  0.5056  0.0502  0.2433
   67CHL1    C9 7401   1.251   3.057   9.720 -0.6293  0.3415 -0.3285
   67CHL1    H9 7402   1.353   3.097   9.705 -0.1046 -1.4237 -1.7503
   67CHL1   C10 7403   1.218   3.068   9.868  0.1327 -0.1647 -0.4327
   67CHL1   C19 7404   1.086   2.986   9.902 -0.8947 -0.1702 -0.1088
   67CHL1  H19A 7405   1.090   2.883   9.862  1.0767  0.5097 -1.8447
   67CHL1  H19B 7406   1.055   2.982  10.009 -0.1779  0.2959  0.1212
   67CHL1  H19C 7407   1.000   3.043   9.859 -1.4857 -0.7921  0.2236
   67CHL1    C1 7408   1.329   3.004   9.951  0.0442  0.1358  1.0353
   67CHL1   H1A 7409   1.343   2.898   9.920 -0.1521 -0.0863  1.6930
   67CHL1   H1B 7410   1.419   3.056   9.912 -0.6248  1.0639  0.6938
   67CHL1    C2 7411   1.330   3.019  10.103 -0.1962  0.6963  0.1452
   67CHL1   H2A 7412   1.421   2.975  10.149  1.3711  1.4348 -2.0967
   67CHL1   H2B 7413   1.241   2.962  10.139 -0.2522  0.7986  0.1712
   67CHL1   C20 7414   1.195   2.925   9.185  0.3823  0.3085  0.2694
   67CHL1   H20 7415   1.112   2.853   9.200  2.2250 -2.2367 -0.9513
   67CHL1   C21 7416   1.324   2.835   9.181  0.0733  0.3818  0.4757
   67CHL1  H21A 7417   1.301   2.738   9.132  0.4842  0.6060 -0.1831
   67CHL1  H21B 7418   1.360   2.811   9.283 -0.9201 -0.5570  0.6211
   67CHL1  H21C 7419   1.408   2.885   9.128  1.8180 -0.6060  2.1828
   67CHL1   C22 7420   1.179   2.990   9.039  0.1032 -0.2607 -0.7806
   67CHL1  H22A 7421   1.101   3.070   9.039 -0.8381 -1.1581 -1.2011
   67CHL1  H22B 7422   1.272   3.040   9.003  0.6080  0.2248  1.0968
   67CHL1   C23 7423   1.130   2.886   8.929  0.0835 -0.7503  0.0641
   67CHL1  H23A 7424   1.125   2.944   8.835  1.3952  0.4931  0.7195
   67CHL1  H23B 7425   1.220   2.823   8.915  1.9853  1.8807 -0.3532
   67CHL1   C24 7426   1.009   2.802   8.958 -0.6030  1.0218 -0.1080
   67CHL1  H24A 7427   0.972   2.758   8.863 -1.0129  0.0675  0.4814
   67CHL1  H24B 7428   1.030   2.722   9.032  0.6997 -2.3479 -3.7490
   67CHL1   C25 7429   0.888   2.874   9.022  0.1062 -0.1560  0.4529
   67CHL1   H25 7430   0.910   2.891   9.129 -1.6282  0.6748  0.7023
   67CHL1   C26 7431   0.851   2.999   8.945  0.1030 -0.1290 -0.5183
   67CHL1  H26A 7432   0.780   3.048   9.015  1.0111 -0.3286  0.5704
   67CHL1  H26B 7433   0.923   3.082   8.927 -0.3082  1.0240  2.6317
   67CHL1  H26C 7434   0.791   2.976   8.854 -0.8007 -0.6784  0.1928
   67CHL1   C27 7435   0.757   2.797   9.024  0.3162  0.2220  0.4196
   67CHL1  H27A 7436   0.720   2.760   8.926 -2.3553 -0.2129  1.5097
   67CHL1  H27B 7437   0.757   2.708   9.091 -0.6771  2.1858  3.2124
   67CHL1  H27C 7438   0.671   2.855   9.063  0.1335 -0.0895  0.4847
   68CHL1    C3 7439   0.593   2.347  10.244 -0.1151  0.1242 -0.7239
   68CHL1    H3 7440   0.620   2.241  10.261  1.4300  0.6380  0.2615
   68CHL1    O3 7441   0.618   2.421  10.359  0.1602  0.2078  0.6711
   68CHL1   H3' 7442   0.705   2.398  10.390  0.2053  0.6645  0.8909
   68CHL1    C4 7443   0.672   2.399  10.127 -0.2665  0.0101 -0.0167
   68CHL1   H4A 7444   0.666   2.509  10.116 -0.9852 -0.2131 -2.5140
   68CHL1   H4B 7445   0.780   2.383  10.148 -0.4591 -0.3831  0.7137
   68CHL1    C5 7446   0.631   2.344   9.992  0.0119 -0.7161  0.0243
   68CHL1    C6 7447   0.729   2.289   9.921 -0.5621 -0.1115  0.1700
   68CHL1    H6 7448   0.830   2.289   9.964  0.5722  0.8199 -2.2959
   68CHL1    C7 7449   0.717   2.229   9.783  0.0904 -0.6638  0.3201
   68CHL1   H7A 7450   0.803   2.268   9.724  0.1460  0.7446  1.2940
   68CHL1   H7B 7451   0.729   2.119   9.788  0.8489 -0.6272 -0.4091
   68CHL1    C8 7452   0.577   2.281   9.726  0.2435  0.2053  0.2465
   68CHL1    H8 7453   0.595   2.388   9.702 -1.1537  0.4509  0.2401
   68CHL1   C14 7454   0.541   2.205   9.598  0.0346  0.5774  0.1256
   68CHL1   H14 7455   0.544   2.100   9.633 -0.2568  0.3211 -0.5994
   68CHL1   C15 7456   0.652   2.201   9.494 -0.3051  0.4442  0.8385
   68CHL1  H15A 7457   0.688   2.303   9.470 -0.1687  0.3820  0.7783
   68CHL1  H15B 7458   0.736   2.137   9.528  0.9297  1.7674  0.3696
   68CHL1   C16 7459   0.581   2.149   9.371 -0.4193 -0.2311  0.3210
   68CHL1  H16A 7460   0.599   2.228   9.295  0.4183 -0.8357 -0.1223
   68CHL1  H16B 7461   0.632   2.059   9.330  1.1298  0.7753 -0.0505
   68CHL1   C17 7462   0.429   2.137   9.411  0.8202 -0.1283  0.6944
   68CHL1   H17 7463   0.409   2.041   9.463  1.3415  1.1692  3.4608
   68CHL1   C13 7464   0.406   2.233   9.528  0.4497  0.1245  0.0020
   68CHL1   C18 7465   0.406   2.374   9.476 -0.2792  0.2622  0.0621
   68CHL1  H18A 7466   0.499   2.390   9.419 -0.4225 -0.3402 -0.3477
   68CHL1  H18B 7467   0.320   2.398   9.410 -0.3223 -2.9554 -1.2272
   68CHL1  H18C 7468   0.399   2.431   9.571 -1.5940  0.1020  0.0824
   68CHL1   C12 7469   0.301   2.196   9.631 -0.0228 -0.0790  0.2792
   68CHL1  H12A 7470   0.201   2.212   9.586 -0.2737 -1.5581  0.2563
   68CHL1  H12B 7471   0.320   2.088   9.651 -0.9317 -0.3367 -0.2247
   68CHL1   C11 7472   0.317   2.267   9.755 -0.3659 -0.5496 -0.4303
   68CHL1  H11A 7473   0.304   2.374   9.728  1.5420 -0.6275 -1.8379
   68CHL1  H11B 7474   0.228   2.245   9.818 -0.7591  1.4202 -0.2334
   68CHL1    C9 7475   0.464   2.256   9.823 -0.4425  0.3064  0.4470
   68CHL1    H9 7476   0.471   2.148   9.849 -1.8515  0.5545  2.0326
   68CHL1   C10 7477   0.483   2.349   9.950  0.0260 -0.6853 -0.0160
   68CHL1   C19 7478   0.437   2.492   9.903 -0.2844  0.1847 -0.2805
   68CHL1  H19A 7479   0.488   2.573   9.961  0.3889 -1.1099  1.0088
   68CHL1  H19B 7480   0.460   2.519   9.798  1.6740  0.8206  0.2596
   68CHL1  H19C 7481   0.326   2.495   9.910 -0.5011 -0.5581 -2.5567
   68CHL1    C1 7482   0.404   2.298  10.070 -0.3031 -0.2838 -0.0876
   68CHL1   H1A 7483   0.293   2.308  10.070 -0.2271  0.5953 -0.4279
   68CHL1   H1B 7484   0.427   2.191  10.090  1.2885 -0.4586 -2.5234
   68CHL1    C2 7485   0.437   2.363  10.209 -0.4222  0.5660  0.0137
   68CHL1   H2A 7486   0.375   2.315  10.287  0.5203 -0.0833  0.3864
   68CHL1   H2B 7487   0.422   2.473  10.211  5.0816  1.5775  0.2694
   68CHL1   C20 7488   0.340   2.149   9.288  0.2416  0.4280 -0.1061
   68CHL1   H20 7489   0.379   2.236   9.230  1.4420 -1.1052 -1.6759
   68CHL1   C21 7490   0.190   2.171   9.318  0.4184 -0.1556 -1.0973
   68CHL1  H21A 7491   0.188   2.269   9.369  2.1131  1.0628 -3.2058
   68CHL1  H21B 7492   0.136   2.089   9.370 -0.5141 -0.6646 -2.7735
   68CHL1  H21C 7493   0.134   2.184   9.223 -0.2364  0.1029 -0.6851
   68CHL1   C22 7494   0.353   2.026   9.196 -0.4296  0.1432  0.8535
   68CHL1  H22A 7495   0.460   1.998   9.190 -0.7281 -0.8350 -0.8543
   68CHL1  H22B 7496   0.302   1.937   9.239  0.7314 -0.5261  0.8698
   68CHL1   C23 7497   0.279   2.034   9.060  0.3146 -0.0293  0.0233
   68CHL1  H23A 7498   0.171   2.031   9.085  0.0061  2.6924 -0.6852
   68CHL1  H23B 7499   0.277   2.134   9.013 -0.4290 -0.2942 -0.5265
   68CHL1   C24 7500   0.324   1.925   8.963 -0.0015 -0.2531  0.2968
   68CHL1  H24A 7501   0.435   1.928   8.954 -0.0519 -0.2200 -0.3202
   68CHL1  H24B 7502   0.310   1.825   9.009 -1.3028 -1.3197 -2.2365
   68CHL1   C25 7503   0.261   1.928   8.827  0.6208 -0.6949 -0.4703
   68CHL1   H25 7504   0.153   1.950   8.839  0.7171 -0.9496  0.9765
   68CHL1   C26 7505   0.324   2.051   8.746 -0.4529  0.4214  0.0044
   68CHL1  H26A 7506   0.296   2.141   8.805 -0.2752  0.8528 -0.5581
   68CHL1  H26B 7507   0.431   2.022   8.735 -0.4311  0.5601 -0.1414
   68CHL1  H26C 7508   0.273   2.065   8.648  0.4158  0.4041 -0.4631
   68CHL1   C27 7509   0.279   1.799   8.745 -0.2336 -0.0622 -0.5786
   68CHL1  H27A 7510   0.210   1.719   8.777 -0.8854  0.8315  0.3134
   68CHL1  H27B 7511   0.266   1.821   8.637 -1.4652 -0.3939 -0.5066
   68CHL1  H27C 7512   0.378   1.748   8.743 -0.8242 -1.3504  1.2635
   69CHL1    C3 7513   6.838   6.120   6.606 -0.6197  0.3309  0.8105
   69CHL1    H3 7514   6.879   6.018   6.600 -0.8340  0.2308  1.0034
   69CHL1    O3 7515   6.836   6.182   6.478  0.5283  0.1627  0.0364
   69CHL1   H3' 7516   6.854   6.274   6.498  0.1148  1.1012 -3.2927
   69CHL1    C4 7517   6.694   6.122   6.661 -0.0363 -0.9797 -0.3468
   69CHL1   H4A 7518   6.657   6.220   6.626  2.4092 -0.2107 -0.9894
   69CHL1   H4B 7519   6.632   6.049   6.605 -1.7252  0.2445 -0.1260
   69CHL1    C5 7520   6.702   6.089   6.811  0.7393 -0.2157 -0.5778
   69CHL1    C6 7521   6.621   5.994   6.857  0.0420  0.4081  0.1010
   69CHL1    H6 7522   6.544   5.957   6.788 -2.0801  2.4725  1.2020
   69CHL1    C7 7523   6.615   5.946   6.999  0.9126 -0.2023 -0.3461
   69CHL1   H7A 7524   6.513   5.915   7.029  1.3155 -1.2831 -0.0797
   69CHL1   H7B 7525   6.684   5.859   7.006 -0.6589 -1.3947  0.7057
   69CHL1    C8 7526   6.668   6.059   7.099  0.6237 -0.1322  0.0515
   69CHL1    H8 7527   6.594   6.142   7.107  0.6970 -0.1608  1.2934
   69CHL1   C14 7528   6.682   6.010   7.243 -0.2230  0.4057 -0.9131
   69CHL1   H14 7529   6.748   5.920   7.246 -1.2524 -0.4044  3.4512
   69CHL1   C15 7530   6.545   5.966   7.305 -1.2587  0.2228 -0.7824
   69CHL1  H15A 7531   6.464   6.042   7.315  0.1536  1.6247  0.7923
   69CHL1  H15B 7532   6.511   5.873   7.255 -1.8153  1.2931 -2.4731
   69CHL1   C16 7533   6.587   5.934   7.452 -0.1485 -1.1198  0.2153
   69CHL1  H16A 7534   6.505   5.973   7.517  0.4576  1.6345 -0.5493
   69CHL1  H16B 7535   6.610   5.827   7.469  0.9260 -0.7422  1.3010
   69CHL1   C17 7536   6.726   6.008   7.470 -0.0174 -0.7259  0.6508
   69CHL1   H17 7537   6.810   5.936   7.460 -0.3717 -1.0583  0.0150
   69CHL1   C13 7538   6.745   6.106   7.351  0.0615  0.6070 -0.1505
   69CHL1   C18 7539   6.657   6.232   7.367 -0.4405 -0.1997 -0.2729
   69CHL1  H18A 7540   6.700   6.293   7.449 -0.7496 -0.1340 -0.1588
   69CHL1  H18B 7541   6.642   6.292   7.274  0.0592 -1.6940 -1.3684
   69CHL1  H18C 7542   6.551   6.211   7.394 -0.7111  1.0954 -0.2569
   69CHL1   C12 7543   6.885   6.131   7.291  0.3642 -0.1593 -0.6898
   69CHL1  H12A 7544   6.934   6.197   7.366 -0.2732 -1.0472  0.5509
   69CHL1  H12B 7545   6.943   6.038   7.272 -0.1695 -0.7081  0.2749
   69CHL1   C11 7546   6.880   6.199   7.155 -1.1174 -1.0393 -0.5423
   69CHL1  H11A 7547   6.826   6.296   7.168 -0.4251 -0.8182  0.8237
   69CHL1  H11B 7548   6.978   6.233   7.117 -1.8491  0.4619 -1.1911
   69CHL1    C9 7549   6.804   6.115   7.045 -0.6499  0.5052 -0.4744
   69CHL1    H9 7550   6.865   6.023   7.041 -0.3805  0.6656 -0.1076
   69CHL1   C10 7551   6.800   6.171   6.901  0.7693 -0.3736  0.8015
   69CHL1   C19 7552   6.734   6.313   6.899 -0.5065  0.1060  0.1784
   69CHL1  H19A 7553   6.810   6.376   6.952  0.9490 -0.3239 -1.3135
   69CHL1  H19B 7554   6.712   6.361   6.802 -0.0471 -2.0368 -1.0466
   69CHL1  H19C 7555   6.642   6.307   6.961 -1.1079 -0.2637 -0.7390
   69CHL1    C1 7556   6.934   6.170   6.832  0.0577  0.1016  0.3635
   69CHL1   H1A 7557   7.014   6.233   6.875 -0.5744  0.3845  1.1566
   69CHL1   H1B 7558   6.969   6.066   6.849 -0.0576 -0.3438 -1.8943
   69CHL1    C2 7559   6.934   6.202   6.689  0.2269 -0.3198 -0.0593
   69CHL1   H2A 7560   7.037   6.191   6.647  1.0280 -1.2381  2.0346
   69CHL1   H2B 7561   6.913   6.309   6.671  3.2849 -0.1595 -4.1432
   69CHL1   C20 7562   6.742   6.059   7.617 -0.0164 -0.2577  0.2550
   69CHL1   H20 7563   6.661   6.133   7.631  0.4467  0.5023 -0.9133
   69CHL1   C21 7564   6.868   6.143   7.638 -0.1841  0.0413  0.4733
   69CHL1  H21A 7565   6.869   6.241   7.586  0.9124  0.8371  1.9274
   69CHL1  H21B 7566   6.955   6.082   7.604  1.1354  1.8824  0.3943
   69CHL1  H21C 7567   6.887   6.168   7.744  0.8703 -0.8663  0.5132
   69CHL1   C22 7568   6.731   5.953   7.726  0.3110  0.1463  0.6848
   69CHL1  H22A 7569   6.724   6.014   7.819  0.9797 -1.2798  1.7108
   69CHL1  H22B 7570   6.633   5.906   7.706  0.2866  0.4060  0.1613
   69CHL1   C23 7571   6.841   5.854   7.742 -0.4536  0.2954  0.7191
   69CHL1  H23A 7572   6.857   5.788   7.654  1.8114  2.2427 -0.4633
   69CHL1  H23B 7573   6.940   5.901   7.754  0.5489 -1.1615 -1.2548
   69CHL1   C24 7574   6.830   5.772   7.875 -0.1163  0.1238 -0.7793
   69CHL1  H24A 7575   6.819   5.854   7.950 -2.4127  0.1368 -1.0503
   69CHL1  H24B 7576   6.734   5.720   7.898  0.7345  0.1432  3.7313
   69CHL1   C25 7577   6.937   5.673   7.905 -0.0632  0.5227 -0.0135
   69CHL1   H25 7578   6.920   5.588   7.835 -1.4352 -2.3029  3.4227
   69CHL1   C26 7579   7.082   5.729   7.897  0.8672 -0.4953 -0.1574
   69CHL1  H26A 7580   7.155   5.653   7.930 -0.8160 -1.6800  0.9583
   69CHL1  H26B 7581   7.100   5.745   7.788 -1.7614 -1.2081 -0.7702
   69CHL1  H26C 7582   7.095   5.821   7.958 -2.4368 -1.3021  2.0120
   69CHL1   C27 7583   6.921   5.619   8.046 -0.0776 -0.5261  0.6529
   69CHL1  H27A 7584   6.974   5.526   8.077  0.6133  0.7177  3.5821
   69CHL1  H27B 7585   6.949   5.698   8.119 -0.7405 -0.5921  0.9833
   69CHL1  H27C 7586   6.816   5.586   8.065 -1.1611  2.1012 -0.3971
   70CHL1    C3 7587   5.070   2.858   7.089 -0.2557 -0.3744 -0.7650
   70CHL1    H3 7588   5.009   2.946   7.117  0.5803 -0.3831  1.2033
   70CHL1    O3 7589   5.066   2.817   6.958 -0.0497  0.5520  0.1155
   70CHL1   H3' 7590   5.125   2.884   6.922  0.3555 -1.1418 -2.6705
   70CHL1    C4 7591   5.213   2.887   7.138  0.2116 -0.0221  0.3155
   70CHL1   H4A 7592   5.284   2.814   7.092 -0.9584 -0.2011 -1.2826
   70CHL1   H4B 7593   5.238   2.986   7.094 -1.0490  0.0428 -0.2908
   70CHL1    C5 7594   5.237   2.893   7.289  0.6444  0.3484  0.0564
   70CHL1    C6 7595   5.289   3.001   7.351 -0.2880  0.6825  0.4198
   70CHL1    H6 7596   5.328   3.082   7.288 -2.5046  0.7597 -0.9575
   70CHL1    C7 7597   5.321   3.006   7.496 -0.3949 -0.3712  0.1469
   70CHL1   H7A 7598   5.428   3.026   7.518 -0.9131 -0.9616  3.9983
   70CHL1   H7B 7599   5.259   3.084   7.546 -0.5946 -1.4016  1.5655
   70CHL1    C8 7600   5.304   2.870   7.565 -0.6642 -0.2429  0.7791
   70CHL1    H8 7601   5.391   2.804   7.542 -1.2563 -0.6085 -0.4936
   70CHL1   C14 7602   5.288   2.896   7.715 -0.3650 -0.2031  0.1499
   70CHL1   H14 7603   5.194   2.954   7.726  0.4217  1.1139  0.1183
   70CHL1   C15 7604   5.379   2.989   7.784 -1.2798  0.3393 -0.2821
   70CHL1  H15A 7605   5.481   2.972   7.742  0.4924 -0.6002  3.8294
   70CHL1  H15B 7606   5.360   3.097   7.768  0.6394  0.7757  0.0606
   70CHL1   C16 7607   5.381   2.958   7.932  0.3008 -0.2159 -0.2308
   70CHL1  H16A 7608   5.483   2.926   7.962  0.5176  1.2728  0.7583
   70CHL1  H16B 7609   5.336   3.039   7.993 -2.1174 -0.8932 -1.0057
   70CHL1   C17 7610   5.283   2.838   7.944  0.1214 -0.2382 -0.5342
   70CHL1   H17 7611   5.186   2.890   7.952  0.5350  0.6174 -0.9895
   70CHL1   C13 7612   5.283   2.772   7.801 -0.1923  0.3905 -0.4827
   70CHL1   C18 7613   5.410   2.681   7.779 -0.0155  0.0677  0.7034
   70CHL1  H18A 7614   5.410   2.587   7.837 -2.4378 -0.2342  0.2989
   70CHL1  H18B 7615   5.425   2.654   7.672  0.6063 -0.5996  0.9535
   70CHL1  H18C 7616   5.500   2.745   7.796 -1.4316  2.5033 -0.3276
   70CHL1   C12 7617   5.150   2.705   7.770 -0.2830  0.5261  0.6057
   70CHL1  H12A 7618   5.149   2.603   7.814  1.1917 -1.2804 -3.1368
   70CHL1  H12B 7619   5.067   2.772   7.803  1.6644  1.5991  3.6717
   70CHL1   C11 7620   5.151   2.685   7.611 -0.1680  1.2069  0.2346
   70CHL1  H11A 7621   5.228   2.610   7.584 -0.1597  1.4669 -0.4975
   70CHL1  H11B 7622   5.048   2.652   7.585 -0.2021  2.3318 -1.2477
   70CHL1    C9 7623   5.179   2.807   7.523  0.1678 -0.2926  0.0958
   70CHL1    H9 7624   5.097   2.878   7.548  0.2074 -0.3440  0.3666
   70CHL1   C10 7625   5.177   2.777   7.370  0.1081  0.4720  0.1549
   70CHL1   C19 7626   5.267   2.651   7.341  0.7714  0.6511  0.6481
   70CHL1  H19A 7627   5.265   2.611   7.238  0.4262  0.8845  0.5638
   70CHL1  H19B 7628   5.374   2.668   7.365  0.7856  0.7965  0.4838
   70CHL1  H19C 7629   5.233   2.562   7.399 -2.5898  2.1714  1.2164
   70CHL1    C1 7630   5.029   2.757   7.324 -0.1280 -0.1549 -0.6304
   70CHL1   H1A 7631   4.990   2.676   7.390 -1.7325 -1.1453 -2.6905
   70CHL1   H1B 7632   4.972   2.850   7.343 -3.0907 -2.1573  1.1464
   70CHL1    C2 7633   5.010   2.735   7.169 -0.4555  0.0591 -0.0114
   70CHL1   H2A 7634   4.900   2.738   7.155 -0.5294 -2.3723 -0.4145
   70CHL1   H2B 7635   5.057   2.639   7.139 -1.9090 -1.0537  1.0930
   70CHL1   C20 7636   5.294   2.741   8.067 -0.4743  0.1957  0.1910
   70CHL1   H20 7637   5.337   2.652   8.016 -0.0600  0.7727 -0.4857
   70CHL1   C21 7638   5.160   2.709   8.115 -0.2514  0.2706  0.2084
   70CHL1  H21A 7639   5.168   2.629   8.192  1.3593  0.8912  0.7210
   70CHL1  H21B 7640   5.113   2.657   8.029 -1.3138  2.1906 -0.4130
   70CHL1  H21C 7641   5.101   2.788   8.168 -0.3100 -1.2655  2.6167
   70CHL1   C22 7642   5.400   2.781   8.176  0.1220  0.1350  0.1608
   70CHL1  H22A 7643   5.502   2.788   8.133 -0.3002  2.6604 -0.6030
   70CHL1  H22B 7644   5.360   2.874   8.222  1.4929  0.7765  0.1019
   70CHL1   C23 7645   5.421   2.680   8.293  0.2541 -0.1798 -0.2301
   70CHL1  H23A 7646   5.323   2.672   8.344  1.1624  4.2345  2.7093
   70CHL1  H23B 7647   5.457   2.582   8.253 -1.1496 -0.2320 -1.4544
   70CHL1   C24 7648   5.527   2.731   8.393 -0.7423 -0.1728 -0.5275
   70CHL1  H24A 7649   5.611   2.776   8.337  1.3444 -3.0132  0.0661
   70CHL1  H24B 7650   5.481   2.811   8.455  0.3049  1.1902 -1.4533
   70CHL1   C25 7651   5.583   2.617   8.483 -0.3774  0.7362 -0.3402
   70CHL1   H25 7652   5.637   2.550   8.413  0.2140  1.2584 -0.3982
   70CHL1   C26 7653   5.695   2.664   8.576 -0.2015  0.2255 -1.0108
   70CHL1  H26A 7654   5.749   2.575   8.615  0.0810  0.9814  0.3716
   70CHL1  H26B 7655   5.779   2.723   8.534  0.7070 -1.3631 -1.4977
   70CHL1  H26C 7656   5.651   2.719   8.661 -1.8431  1.0648 -2.3314
   70CHL1   C27 7657   5.476   2.536   8.552  0.5147 -0.3183 -0.0844
   70CHL1  H27A 7658   5.428   2.476   8.472  0.9330  0.7292 -1.1512
   70CHL1  H27B 7659   5.523   2.456   8.613  0.5395 -0.1777  0.0800
   70CHL1  H27C 7660   5.398   2.581   8.617 -2.6800 -1.0054 -3.1527
   71CHL1    C3 7661   6.268   5.073   6.751  0.1440  0.4277 -0.4074
   71CHL1    H3 7662   6.164   5.113   6.759 -0.2388 -0.5568 -0.3994
   71CHL1    O3 7663   6.328   5.091   6.622 -0.2422  0.0432 -0.1872
   71CHL1   H3' 7664   6.421   5.068   6.630 -0.4244 -1.0654 -0.9834
   71CHL1    C4 7665   6.368   5.142   6.861 -0.2057 -0.3421  0.1442
   71CHL1   H4A 7666   6.473   5.112   6.839  0.1660  0.0601  1.2984
   71CHL1   H4B 7667   6.348   5.249   6.838 -2.0318 -1.3222 -3.6762
   71CHL1    C5 7668   6.343   5.106   7.008 -0.7310  0.0792  0.0240
   71CHL1    C6 7669   6.315   5.199   7.103  0.5252  0.5230  0.3045
   71CHL1    H6 7670   6.339   5.306   7.092  2.4722 -0.0024 -1.1252
   71CHL1    C7 7671   6.287   5.161   7.245 -0.0587 -0.8967  0.1951
   71CHL1   H7A 7672   6.351   5.226   7.308  1.3573  0.0082 -2.0782
   71CHL1   H7B 7673   6.181   5.181   7.271 -0.1314 -1.5810  0.4555
   71CHL1    C8 7674   6.327   5.017   7.276  0.7255  0.4500 -0.1859
   71CHL1    H8 7675   6.438   5.006   7.278  1.0717  3.2236  0.4716
   71CHL1   C14 7676   6.254   4.981   7.403 -0.5282  0.9046  0.2621
   71CHL1   H14 7677   6.146   5.003   7.391 -1.8680 -2.6857  3.6007
   71CHL1   C15 7678   6.306   5.057   7.530  0.9863 -0.3996 -0.0513
   71CHL1  H15A 7679   6.415   5.077   7.534  0.4597  3.0191  0.7832
   71CHL1  H15B 7680   6.260   5.157   7.544  1.0729 -0.5952  1.7553
   71CHL1   C16 7681   6.271   4.971   7.649 -0.6303  0.4922  0.5124
   71CHL1  H16A 7682   6.355   4.954   7.719  0.1418  0.1722 -0.4850
   71CHL1  H16B 7683   6.200   5.028   7.714 -0.9438  0.5141  0.1588
   71CHL1   C17 7684   6.203   4.846   7.586  0.1263  0.0074  0.4496
   71CHL1   H17 7685   6.100   4.882   7.565 -0.5166 -1.7145  0.4987
   71CHL1   C13 7686   6.263   4.836   7.444 -0.0526  0.2751 -0.1462
   71CHL1   C18 7687   6.409   4.786   7.454  0.2923  0.1799  0.6978
   71CHL1  H18A 7688   6.466   4.797   7.359 -0.5924 -0.3976  0.0811
   71CHL1  H18B 7689   6.463   4.835   7.537 -0.4071 -1.8566  2.4247
   71CHL1  H18C 7690   6.407   4.680   7.485 -0.8189 -0.3589 -1.0294
   71CHL1   C12 7691   6.183   4.757   7.335 -0.8134  0.3776 -0.4650
   71CHL1  H12A 7692   6.189   4.653   7.371  2.2880  0.0139 -1.7487
   71CHL1  H12B 7693   6.075   4.785   7.340 -0.4248  2.0012 -0.4450
   71CHL1   C11 7694   6.252   4.771   7.200  0.1036  0.0816  0.3283
   71CHL1  H11A 7695   6.351   4.720   7.201 -0.0035 -0.1182  0.7155
   71CHL1  H11B 7696   6.187   4.715   7.129 -1.9507  0.8701  1.5149
   71CHL1    C9 7697   6.268   4.922   7.169  0.3809  0.3230 -0.0801
   71CHL1    H9 7698   6.162   4.953   7.162  0.0990 -0.7287 -0.7786
   71CHL1   C10 7699   6.333   4.954   7.029  0.3669 -0.2459 -0.1573
   71CHL1   C19 7700   6.473   4.886   7.028  0.7368 -0.2810  0.4096
   71CHL1  H19A 7701   6.537   4.926   7.109  0.4228 -0.2400  0.6420
   71CHL1  H19B 7702   6.452   4.777   7.039 -0.2812 -0.2849 -1.1586
   71CHL1  H19C 7703   6.528   4.900   6.933 -0.5270 -2.4755 -0.7511
   71CHL1    C1 7704   6.240   4.892   6.926  0.4126  0.1853  0.2365
   71CHL1   H1A 7705   6.225   4.782   6.926 -0.5339  0.2555 -1.8761
   71CHL1   H1B 7706   6.141   4.931   6.960 -0.2719 -1.5821  0.3435
   71CHL1    C2 7707   6.265   4.923   6.778  0.2882  0.0211  0.2282
   71CHL1   H2A 7708   6.188   4.881   6.710 -1.8341  0.7332  2.0648
   71CHL1   H2B 7709   6.370   4.891   6.764  0.6061  0.8524  0.6070
   71CHL1   C20 7710   6.189   4.720   7.664 -0.3079  0.0521  0.3428
   71CHL1   H20 7711   6.153   4.653   7.583 -1.5368  1.3960 -0.2583
   71CHL1   C21 7712   6.067   4.714   7.749  0.4979 -0.0151  0.1844
   71CHL1  H21A 7713   5.979   4.714   7.680  1.0627  0.9891 -0.5486
   71CHL1  H21B 7714   6.059   4.807   7.810 -0.7554 -0.8618  1.3813
   71CHL1  H21C 7715   6.063   4.620   7.809  1.6140 -1.6065 -2.0790
   71CHL1   C22 7716   6.307   4.667   7.746  0.8136  0.5362 -0.0101
   71CHL1  H22A 7717   6.401   4.711   7.705  2.2617 -1.1364  1.3133
   71CHL1  H22B 7718   6.285   4.696   7.851 -1.9210 -2.2457  0.3267
   71CHL1   C23 7719   6.331   4.517   7.747  0.3472  0.3687  0.2016
   71CHL1  H23A 7720   6.248   4.452   7.784 -1.0499  1.4543 -0.8714
   71CHL1  H23B 7721   6.332   4.493   7.638 -0.9389  1.1989 -0.0225
   71CHL1   C24 7722   6.461   4.481   7.819  0.4491 -0.6350 -0.7433
   71CHL1  H24A 7723   6.543   4.538   7.770  1.3264 -0.3869  0.9439
   71CHL1  H24B 7724   6.448   4.529   7.918 -0.1584 -1.3261 -0.4873
   71CHL1   C25 7725   6.495   4.331   7.817  0.0400  0.1181 -0.8444
   71CHL1   H25 7726   6.401   4.279   7.844  0.6203 -0.5295  0.0046
   71CHL1   C26 7727   6.542   4.295   7.668 -0.1267 -0.3705  0.0782
   71CHL1  H26A 7728   6.633   4.354   7.643 -0.9205  1.1273  0.5961
   71CHL1  H26B 7729   6.574   4.190   7.652  1.2432 -0.0681  0.6055
   71CHL1  H26C 7730   6.465   4.328   7.596  0.8215 -0.9046 -1.2124
   71CHL1   C27 7731   6.605   4.300   7.917 -0.8567 -0.1294 -0.1725
   71CHL1  H27A 7732   6.584   4.339   8.019  1.4701  1.0725 -0.0717
   71CHL1  H27B 7733   6.632   4.192   7.920  1.2517  0.3164 -1.3038
   71CHL1  H27C 7734   6.697   4.347   7.877 -0.3600  0.0980  1.1825
   72CHL1    C3 7735   5.921   4.615   6.910 -0.1179  0.0164 -0.3616
   72CHL1    H3 7736   6.008   4.677   6.940  0.1500  0.0148 -1.1284
   72CHL1    O3 7737   5.894   4.638   6.770 -0.6571  0.4440 -0.3583
   72CHL1   H3' 7738   5.847   4.722   6.774 -2.7776 -0.5430 -2.0456
   72CHL1    C4 7739   5.961   4.466   6.933 -0.1261  0.3771  0.2335
   72CHL1   H4A 7740   5.877   4.406   6.892 -0.3474  0.4422  0.5825
   72CHL1   H4B 7741   6.047   4.430   6.873 -0.0524 -0.8663  1.0447
   72CHL1    C5 7742   5.975   4.435   7.083 -0.0596  0.5483 -0.6003
   72CHL1    C6 7743   6.099   4.406   7.128  0.1273  0.3644  0.0796
   72CHL1    H6 7744   6.181   4.392   7.056  0.8812 -0.9267  1.1364
   72CHL1    C7 7745   6.127   4.371   7.272  0.2634 -0.1421 -0.4230
   72CHL1   H7A 7746   6.185   4.276   7.275  0.1594 -0.1836  0.9668
   72CHL1   H7B 7747   6.175   4.458   7.323 -2.0686  0.9411  0.0756
   72CHL1    C8 7748   5.996   4.334   7.346  0.7671  0.7068  0.3970
   72CHL1    H8 7749   5.958   4.233   7.318  0.2620  0.2166  2.6847
   72CHL1   C14 7750   6.023   4.325   7.492  0.6399  0.2129 -0.6082
   72CHL1   H14 7751   6.080   4.417   7.516  0.1240  0.3807  0.0124
   72CHL1   C15 7752   6.124   4.222   7.544  0.0747  0.0381  0.4184
   72CHL1  H15A 7753   6.098   4.121   7.505  2.6654 -0.4004 -0.3151
   72CHL1  H15B 7754   6.229   4.237   7.513 -0.0231 -1.8134 -0.9842
   72CHL1   C16 7755   6.110   4.217   7.696  0.7768 -0.7985 -0.0538
   72CHL1  H16A 7756   6.084   4.112   7.721  0.1706 -0.5947  0.1910
   72CHL1  H16B 7757   6.199   4.250   7.754  0.5018 -0.6808  0.2999
   72CHL1   C17 7758   5.975   4.297   7.724  0.2593  0.1195  0.1565
   72CHL1   H17 7759   6.010   4.401   7.745  1.6072 -0.7141  2.3510
   72CHL1   C13 7760   5.902   4.313   7.586  0.2571  0.3315  0.4336
   72CHL1   C18 7761   5.828   4.181   7.557 -0.7870  0.0285 -0.4081
   72CHL1  H18A 7762   5.735   4.181   7.617  0.1601 -1.8890  1.2077
   72CHL1  H18B 7763   5.794   4.175   7.451  0.3084  1.8117 -0.8937
   72CHL1  H18C 7764   5.885   4.090   7.587 -1.2068  0.3629  1.4874
   72CHL1   C12 7765   5.805   4.437   7.559  0.1006 -0.4942 -0.6401
   72CHL1  H12A 7766   5.719   4.420   7.628  0.8054 -0.4006  0.2742
   72CHL1  H12B 7767   5.843   4.536   7.591 -1.5304 -0.3960  1.2362
   72CHL1   C11 7768   5.770   4.453   7.409 -0.1668  0.4706  0.4892
   72CHL1  H11A 7769   5.706   4.364   7.388  0.5140 -0.5699  2.5524
   72CHL1  H11B 7770   5.719   4.551   7.398 -2.0897 -0.5887 -0.6052
   72CHL1    C9 7771   5.889   4.443   7.317 -1.0711  0.0253 -0.6522
   72CHL1    H9 7772   5.939   4.534   7.356  0.0796 -0.5361 -0.7705
   72CHL1   C10 7773   5.852   4.456   7.164  0.2405 -0.1995 -0.1832
   72CHL1   C19 7774   5.762   4.336   7.113  0.1138  0.3970  0.1164
   72CHL1  H19A 7775   5.680   4.316   7.186 -0.6710  0.6087 -0.6885
   72CHL1  H19B 7776   5.714   4.350   7.014  0.6354 -2.4641 -0.6420
   72CHL1  H19C 7777   5.822   4.242   7.108  0.8609  0.9314 -2.6060
   72CHL1    C1 7778   5.790   4.598   7.134 -0.2033  0.2390  0.2440
   72CHL1   H1A 7779   5.682   4.584   7.156  0.5007 -1.9911  2.7225
   72CHL1   H1B 7780   5.843   4.679   7.188  1.4040 -0.3984 -0.3020
   72CHL1    C2 7781   5.794   4.648   6.986  0.5529  0.1497  0.2438
   72CHL1   H2A 7782   5.782   4.759   6.985 -0.0878  0.0940  1.0601
   72CHL1   H2B 7783   5.709   4.595   6.938 -1.1231 -0.3718  3.5238
   72CHL1   C20 7784   5.900   4.238   7.844  0.8289 -0.7777 -0.2587
   72CHL1   H20 7785   5.860   4.138   7.820 -0.6485 -0.4202  0.5653
   72CHL1   C21 7786   5.774   4.320   7.874  0.5134 -0.4655 -0.1416
   72CHL1  H21A 7787   5.691   4.293   7.805  0.0091 -1.2887  0.7749
   72CHL1  H21B 7788   5.797   4.429   7.871  0.2341 -0.3412  1.5723
   72CHL1  H21C 7789   5.750   4.303   7.981  0.1183 -2.8277 -0.5502
   72CHL1   C22 7790   5.994   4.230   7.969 -0.6976  0.0558  0.1111
   72CHL1  H22A 7791   5.938   4.199   8.060  2.6593 -1.0898  1.9474
   72CHL1  H22B 7792   6.064   4.146   7.954  0.3118  0.5170  1.9277
   72CHL1   C23 7793   6.064   4.362   8.007 -0.2982 -0.1180 -0.1046
   72CHL1  H23A 7794   6.116   4.411   7.922 -1.6991  1.8124  0.0989
   72CHL1  H23B 7795   5.993   4.441   8.040 -4.8315 -3.7119 -0.1492
   72CHL1   C24 7796   6.169   4.345   8.124  0.1102  0.0997 -0.2454
   72CHL1  H24A 7797   6.119   4.293   8.209 -0.3399  0.0468 -0.5389
   72CHL1  H24B 7798   6.249   4.277   8.088 -1.0648 -0.7157 -1.3808
   72CHL1   C25 7799   6.235   4.482   8.171  0.8399 -0.8269 -0.3641
   72CHL1   H25 7800   6.282   4.536   8.086  2.3645 -0.2913  0.7631
   72CHL1   C26 7801   6.140   4.574   8.248 -0.1032 -0.0100 -0.3655
   72CHL1  H26A 7802   6.049   4.590   8.187 -0.5272 -0.0239  0.2574
   72CHL1  H26B 7803   6.112   4.527   8.344 -0.8721 -1.5149 -1.2905
   72CHL1  H26C 7804   6.196   4.668   8.271  1.6246 -1.3812  1.4080
   72CHL1   C27 7805   6.353   4.447   8.261 -0.8660 -0.0824  1.2036
   72CHL1  H27A 7806   6.326   4.385   8.350  0.1247 -0.6220  1.1514
   72CHL1  H27B 7807   6.422   4.388   8.197 -0.2391  2.1287 -0.2431
   72CHL1  H27C 7808   6.406   4.540   8.288 -1.9663  0.1074  2.9225
   73CHL1    C3 7809   6.028   0.370   6.865  0.3345  0.8197  0.1399
   73CHL1    H3 7810   5.982   0.463   6.905  1.5717  0.8963  1.4937
   73CHL1    O3 7811   6.018   0.373   6.726  0.4186 -0.0470 -0.1456
   73CHL1   H3' 7812   5.924   0.395   6.721 -0.8205 -4.1927  1.2126
   73CHL1    C4 7813   6.176   0.373   6.906 -0.1097 -0.2463  0.1487
   73CHL1   H4A 7814   6.229   0.294   6.848 -1.1888 -0.4044 -0.6439
   73CHL1   H4B 7815   6.213   0.470   6.866 -1.0842  0.5161  1.0213
   73CHL1    C5 7816   6.200   0.365   7.052  0.0438  0.4801 -0.1241
   73CHL1    C6 7817   6.267   0.452   7.122  0.8934 -0.2883 -0.1062
   73CHL1    H6 7818   6.318   0.535   7.070  0.4743  0.8011  1.1456
   73CHL1    C7 7819   6.276   0.451   7.273 -0.4636  0.8075 -0.2452
   73CHL1   H7A 7820   6.373   0.489   7.310  0.1180 -0.1387 -0.7570
   73CHL1   H7B 7821   6.204   0.525   7.316 -1.1647 -0.9518  1.8444
   73CHL1    C8 7822   6.252   0.316   7.335 -0.2046  0.7956 -0.6899
   73CHL1    H8 7823   6.336   0.249   7.307  0.0678  0.6378  0.4625
   73CHL1   C14 7824   6.248   0.324   7.488  0.3835 -0.0199 -0.5615
   73CHL1   H14 7825   6.167   0.394   7.520 -0.8598 -1.8227  0.3906
   73CHL1   C15 7826   6.376   0.371   7.560  0.0915 -0.4514 -0.5147
   73CHL1  H15A 7827   6.450   0.298   7.520 -0.6580 -0.5909 -1.6991
   73CHL1  H15B 7828   6.398   0.478   7.540  0.6263 -0.1901  1.2831
   73CHL1   C16 7829   6.339   0.348   7.707 -0.4905 -0.4476 -0.5539
   73CHL1  H16A 7830   6.428   0.317   7.765 -0.8084 -0.1412  0.1216
   73CHL1  H16B 7831   6.303   0.446   7.746  1.4120  0.8956 -2.0279
   73CHL1   C17 7832   6.220   0.251   7.706  0.1920  1.4007 -0.1417
   73CHL1   H17 7833   6.129   0.315   7.720 -0.6315  0.6293 -1.7363
   73CHL1   C13 7834   6.206   0.197   7.559  0.7540 -0.6128 -0.1286
   73CHL1   C18 7835   6.310   0.082   7.536 -0.5783 -0.3674  0.1685
   73CHL1  H18A 7836   6.297   0.057   7.429 -2.6674  2.2362 -0.2806
   73CHL1  H18B 7837   6.413   0.113   7.562 -0.4288 -0.7564  0.0504
   73CHL1  H18C 7838   6.290  -0.013   7.591  1.3919 -1.6548 -1.2156
   73CHL1   C12 7839   6.069   0.143   7.506  0.1352 -0.3422  0.4436
   73CHL1  H12A 7840   6.019   0.062   7.564 -1.6079  0.5340  0.2499
   73CHL1  H12B 7841   6.000   0.230   7.504  0.6432  0.1080  1.6849
   73CHL1   C11 7842   6.080   0.130   7.355  0.3185  0.1092 -0.1905
   73CHL1  H11A 7843   6.138   0.042   7.321  0.8616  0.5983 -0.5336
   73CHL1  H11B 7844   5.979   0.111   7.312  1.1222  1.5394 -2.9366
   73CHL1    C9 7845   6.125   0.255   7.276 -0.5232 -0.6945  0.3687
   73CHL1    H9 7846   6.045   0.327   7.303 -0.4115 -0.5289  0.2539
   73CHL1   C10 7847   6.128   0.250   7.122  0.5061 -0.2982  0.5404
   73CHL1   C19 7848   6.203   0.118   7.066  0.0891  0.9912 -0.6425
   73CHL1  H19A 7849   6.203   0.102   6.956  2.8964  0.7906 -0.6820
   73CHL1  H19B 7850   6.310   0.135   7.091 -0.3792  1.1877  1.3803
   73CHL1  H19C 7851   6.168   0.024   7.112 -0.3345 -0.0297 -2.9183
   73CHL1    C1 7852   5.978   0.240   7.072 -0.0199  0.8292  0.0360
   73CHL1   H1A 7853   5.927   0.149   7.109 -1.3983  2.1335  1.4923
   73CHL1   H1B 7854   5.918   0.319   7.123  1.5353  1.6919  0.5994
   73CHL1    C2 7855   5.954   0.248   6.926 -0.1067 -0.6098 -0.2012
   73CHL1   H2A 7856   5.845   0.247   6.905  0.0990  1.2662 -1.6379
   73CHL1   H2B 7857   5.991   0.156   6.878 -2.3246 -2.4172  1.3223
   73CHL1   C20 7858   6.234   0.151   7.827 -0.2315  0.3492  0.0459
   73CHL1   H20 7859   6.335   0.106   7.820 -0.0317  0.7961  0.0100
   73CHL1   C21 7860   6.125   0.051   7.816  0.1023 -0.5715  0.7533
   73CHL1  H21A 7861   6.114  -0.019   7.901  0.6700 -2.4713 -0.6628
   73CHL1  H21B 7862   6.133  -0.012   7.724 -1.9947 -0.7610  0.6473
   73CHL1  H21C 7863   6.027   0.099   7.796  1.0142  0.9680 -0.3044
   73CHL1   C22 7864   6.228   0.223   7.956  1.0323  0.6259 -0.8451
   73CHL1  H22A 7865   6.291   0.315   7.959  0.8841  0.7014  0.5456
   73CHL1  H22B 7866   6.122   0.250   7.976  1.3671  2.4299 -1.2357
   73CHL1   C23 7867   6.275   0.139   8.074 -0.4860 -0.3035 -0.1998
   73CHL1  H23A 7868   6.209   0.050   8.074  0.4336 -1.0075 -0.2717
   73CHL1  H23B 7869   6.378   0.103   8.054 -0.5513  0.3412 -1.8053
   73CHL1   C24 7870   6.278   0.224   8.210  0.1663  0.2903 -0.5893
   73CHL1  H24A 7871   6.354   0.171   8.271 -0.1006  0.7698  0.1756
   73CHL1  H24B 7872   6.320   0.324   8.185 -0.2952  0.0772 -2.3757
   73CHL1   C25 7873   6.150   0.226   8.294  0.3423  0.0336 -0.4523
   73CHL1   H25 7874   6.073   0.277   8.232 -1.1666  0.4330  1.6389
   73CHL1   C26 7875   6.100   0.082   8.328 -0.6785  0.2960  0.4400
   73CHL1  H26A 7876   6.056   0.038   8.236  1.2132 -1.7022  0.4065
   73CHL1  H26B 7877   6.184   0.021   8.367 -1.9207 -1.2410  0.8551
   73CHL1  H26C 7878   6.031   0.098   8.414 -0.5490  2.8790  0.1509
   73CHL1   C27 7879   6.165   0.307   8.422  0.0912 -0.1429 -0.0673
   73CHL1  H27A 7880   6.072   0.294   8.481  0.1033 -3.5389 -0.6331
   73CHL1  H27B 7881   6.259   0.278   8.475  0.2768 -0.4420 -0.5527
   73CHL1  H27C 7882   6.170   0.413   8.388 -0.9389  0.1683  0.7301
   74CHL1    C3 7883   5.663   6.128   6.923  0.2432  0.1282 -0.1496
   74CHL1    H3 7884   5.774   6.132   6.927  0.2171  1.5837 -0.3550
   74CHL1    O3 7885   5.625   6.152   6.787  0.4075  0.6692  0.0332
   74CHL1   H3' 7886   5.529   6.157   6.780  0.3765  1.2577  0.7140
   74CHL1    C4 7887   5.619   5.985   6.966  0.3339  0.0571  0.0335
   74CHL1   H4A 7888   5.511   5.964   6.949  0.2896 -0.5110  0.9428
   74CHL1   H4B 7889   5.666   5.907   6.902 -2.9526 -1.2140 -1.0281
   74CHL1    C5 7890   5.647   5.963   7.109 -0.4169 -0.0108 -0.3484
   74CHL1    C6 7891   5.719   5.864   7.143  0.2304  0.3834 -0.7187
   74CHL1    H6 7892   5.740   5.792   7.063  1.1861  0.9230 -0.9791
   74CHL1    C7 7893   5.764   5.829   7.283 -0.4723  0.8094  0.9026
   74CHL1   H7A 7894   5.736   5.723   7.298 -2.6350  1.1943 -0.0568
   74CHL1   H7B 7895   5.875   5.823   7.284 -0.3808  1.0191 -1.6717
   74CHL1    C8 7896   5.701   5.915   7.394  0.1848  0.3155 -0.1141
   74CHL1    H8 7897   5.603   5.872   7.422 -0.2583  0.1530 -1.8264
   74CHL1   C14 7898   5.779   5.917   7.524 -1.5101  0.1899 -0.2067
   74CHL1   H14 7899   5.877   5.968   7.511 -1.0207 -0.3057  1.3087
   74CHL1   C15 7900   5.815   5.788   7.576  0.3151  0.1552  0.2502
   74CHL1  H15A 7901   5.733   5.713   7.575  1.6520 -1.3822  1.1129
   74CHL1  H15B 7902   5.894   5.736   7.517  0.1007 -0.5609  0.5817
   74CHL1   C16 7903   5.865   5.819   7.718 -0.2736 -0.1486  0.7212
   74CHL1  H16A 7904   5.823   5.748   7.792 -0.1371 -2.4102 -1.2622
   74CHL1  H16B 7905   5.976   5.816   7.720 -0.1625  1.3171 -0.8968
   74CHL1   C17 7906   5.814   5.956   7.756 -0.3608  0.3043  0.3529
   74CHL1   H17 7907   5.896   6.030   7.744  0.2093 -0.5014 -0.8166
   74CHL1   C13 7908   5.714   5.993   7.638 -0.4718 -0.0526  0.3861
   74CHL1   C18 7909   5.581   5.947   7.683  0.1532 -0.0375 -0.1039
   74CHL1  H18A 7910   5.545   6.002   7.773 -1.4865 -1.9031  0.4414
   74CHL1  H18B 7911   5.500   5.955   7.608 -0.6716 -1.2636  0.6227
   74CHL1  H18C 7912   5.582   5.838   7.701  0.3996 -0.0812 -0.3863
   74CHL1   C12 7913   5.699   6.140   7.592 -0.9273 -0.0698 -0.2086
   74CHL1  H12A 7914   5.673   6.222   7.663 -0.1223  0.1358 -0.1399
   74CHL1  H12B 7915   5.808   6.163   7.587 -0.7825 -0.9349 -1.4610
   74CHL1   C11 7916   5.633   6.155   7.460  0.9524  0.5138  0.2683
   74CHL1  H11A 7917   5.525   6.144   7.485  0.7745  1.8858  0.1909
   74CHL1  H11B 7918   5.647   6.257   7.419 -0.2711  1.5192  2.1900
   74CHL1    C9 7919   5.680   6.060   7.349 -0.6896  0.0369  0.1041
   74CHL1    H9 7920   5.777   6.107   7.323 -3.0141  4.3443 -1.7913
   74CHL1   C10 7921   5.603   6.074   7.210  0.3064 -0.0264 -0.1133
   74CHL1   C19 7922   5.451   6.056   7.235  0.8975 -0.5597 -0.2866
   74CHL1  H19A 7923   5.419   6.141   7.300 -1.7069 -1.8445  0.2429
   74CHL1  H19B 7924   5.375   6.064   7.155 -0.8477 -3.3424  0.9753
   74CHL1  H19C 7925   5.447   5.957   7.286  1.7931  0.8660  2.8538
   74CHL1    C1 7926   5.642   6.215   7.155 -0.4575 -0.0276 -0.2824
   74CHL1   H1A 7927   5.601   6.297   7.218 -0.7038  0.1792 -0.7087
   74CHL1   H1B 7928   5.752   6.229   7.161 -0.4161 -0.2488 -0.5221
   74CHL1    C2 7929   5.602   6.236   7.008 -0.1288 -0.2715  0.7714
   74CHL1   H2A 7930   5.636   6.336   6.975 -1.3682  0.9682  3.0467
   74CHL1   H2B 7931   5.492   6.233   6.997 -0.2042  1.3412  0.8556
   74CHL1   C20 7932   5.780   5.976   7.901  0.1593 -0.4108 -0.2401
   74CHL1   H20 7933   5.711   5.897   7.937 -1.0542  1.4799  1.7997
   74CHL1   C21 7934   5.738   6.126   7.919  0.4301  0.2192 -0.1569
   74CHL1  H21A 7935   5.725   6.166   8.022  1.1378 -2.1423  0.9169
   74CHL1  H21B 7936   5.641   6.153   7.872 -1.1302 -0.6506  2.3557
   74CHL1  H21C 7937   5.815   6.191   7.872 -1.4427  1.9210 -1.0475
   74CHL1   C22 7938   5.917   5.961   7.985  0.2881 -0.1823  0.3815
   74CHL1  H22A 7939   5.957   5.858   7.980  1.0045  0.1180 -0.3156
   74CHL1  H22B 7940   5.983   6.039   7.940  0.0237  0.0981  0.4765
   74CHL1   C23 7941   5.911   5.996   8.136  0.1232  0.0935 -0.0656
   74CHL1  H23A 7942   5.863   6.095   8.146 -2.3767 -1.1621  1.2481
   74CHL1  H23B 7943   5.848   5.915   8.180 -4.2182  2.9587 -0.4068
   74CHL1   C24 7944   6.059   5.996   8.193  0.1021 -0.1241 -0.2417
   74CHL1  H24A 7945   6.096   5.891   8.186  0.3587 -0.2005  1.8700
   74CHL1  H24B 7946   6.128   6.062   8.137  1.1710 -1.1071 -0.1202
   74CHL1   C25 7947   6.073   6.030   8.345  0.0011  0.6177  0.1978
   74CHL1   H25 7948   6.060   6.140   8.346  1.0022  0.7458  0.0856
   74CHL1   C26 7949   5.963   5.969   8.437  0.0651 -0.5506  0.2216
   74CHL1  H26A 7950   5.983   5.860   8.427 -0.5101 -0.4189 -3.7082
   74CHL1  H26B 7951   5.969   6.008   8.541  2.5958 -0.0260 -0.0610
   74CHL1  H26C 7952   5.869   5.996   8.385  0.8549 -0.2487 -1.0728
   74CHL1   C27 7953   6.211   5.992   8.400 -0.1116 -0.0262 -0.0470
   74CHL1  H27A 7954   6.216   5.882   8.389  0.4725 -0.0443  0.3614
   74CHL1  H27B 7955   6.284   6.036   8.329 -2.3045 -0.5072 -2.7822
   74CHL1  H27C 7956   6.222   6.040   8.500 -1.1478  0.8508 -0.3311
   75CHL1    C3 7957   6.570   1.249   6.784  0.2977  0.5509  0.3340
   75CHL1    H3 7958   6.475   1.210   6.826  0.2681 -0.7828 -0.8592
   75CHL1    O3 7959   6.550   1.257   6.649  0.3938 -0.2699  0.2495
   75CHL1   H3' 7960   6.635   1.252   6.606 -0.3220  0.0923 -1.2746
   75CHL1    C4 7961   6.613   1.378   6.854 -0.1382  0.1499  0.1828
   75CHL1   H4A 7962   6.712   1.410   6.816 -1.3673  0.5745 -2.9818
   75CHL1   H4B 7963   6.547   1.463   6.827 -1.1561  0.1256  2.3524
   75CHL1    C5 7964   6.620   1.347   7.000  0.2147 -0.2636  0.3493
   75CHL1    C6 7965   6.542   1.419   7.083  1.0951  0.2004  0.0959
   75CHL1    H6 7966   6.479   1.498   7.038  0.5281  0.8006  1.8673
   75CHL1    C7 7967   6.565   1.413   7.229 -0.1340  0.2961 -0.6115
   75CHL1   H7A 7968   6.585   1.515   7.266  0.6627  0.3010 -1.0376
   75CHL1   H7B 7969   6.470   1.367   7.265  0.1498 -0.8938 -1.3170
   75CHL1    C8 7970   6.685   1.329   7.274  0.3042 -0.2258 -1.0029
   75CHL1    H8 7971   6.773   1.396   7.283  1.2488 -1.4816 -0.5208
   75CHL1   C14 7972   6.655   1.276   7.414 -0.7308  0.1697  0.6814
   75CHL1   H14 7973   6.569   1.205   7.416 -1.0485  0.5611  0.9970
   75CHL1   C15 7974   6.623   1.384   7.513  0.7148  0.3269 -1.2680
   75CHL1  H15A 7975   6.684   1.477   7.509 -0.2018  1.0001 -0.0124
   75CHL1  H15B 7976   6.519   1.423   7.516  1.4512  2.3555  0.6771
   75CHL1   C16 7977   6.654   1.316   7.650  0.2248 -0.0102 -0.6742
   75CHL1  H16A 7978   6.715   1.374   7.722  0.7506 -1.1216 -0.1977
   75CHL1  H16B 7979   6.557   1.306   7.704  1.6985 -1.4374  1.9311
   75CHL1   C17 7980   6.720   1.179   7.621 -0.4846 -0.5100  0.2442
   75CHL1   H17 7981   6.634   1.110   7.611  0.7743 -1.8717 -1.6896
   75CHL1   C13 7982   6.779   1.195   7.480  0.0799 -0.3178  0.2073
   75CHL1   C18 7983   6.901   1.287   7.472  0.2243 -0.4438  0.0535
   75CHL1  H18A 7984   6.949   1.311   7.375 -0.0259  1.0697  0.2793
   75CHL1  H18B 7985   6.883   1.377   7.534  1.6122 -0.2683  0.2415
   75CHL1  H18C 7986   6.984   1.227   7.516 -2.5266 -2.7809  2.5421
   75CHL1   C12 7987   6.797   1.065   7.396 -0.9668  0.0238 -0.0171
   75CHL1  H12A 7988   6.874   0.991   7.427 -2.5130 -1.8067 -0.3853
   75CHL1  H12B 7989   6.702   1.008   7.406 -2.0122  1.8518  1.1105
   75CHL1   C11 7990   6.803   1.094   7.244 -0.2160 -0.2069  1.0687
   75CHL1  H11A 7991   6.898   1.144   7.213 -0.6154 -0.0750  0.0238
   75CHL1  H11B 7992   6.806   1.002   7.182  1.3998  1.7397 -2.0033
   75CHL1    C9 7993   6.700   1.200   7.189  0.7319  0.1167  0.3581
   75CHL1    H9 7994   6.605   1.146   7.207 -0.2300  1.5538 -0.2346
   75CHL1   C10 7995   6.717   1.235   7.040  0.7916 -0.7961 -0.1997
   75CHL1   C19 7996   6.859   1.270   7.008  0.1731 -0.4734  0.2285
   75CHL1  H19A 7997   6.865   1.306   6.903  0.1064 -1.3777 -0.0978
   75CHL1  H19B 7998   6.908   1.349   7.067  2.0940 -2.0150  0.7976
   75CHL1  H19C 7999   6.918   1.176   7.019  1.2745 -0.5203 -4.2407
   75CHL1    C1 8000   6.693   1.114   6.954 -0.1077  0.1534  0.6907
   75CHL1   H1A 8001   6.774   1.040   6.970  0.7153  0.3129 -2.1537
   75CHL1   H1B 8002   6.600   1.065   6.989  0.3095 -0.9500  0.2822
   75CHL1    C2 8003   6.678   1.136   6.806  0.3009 -0.6615  0.2304
   75CHL1   H2A 8004   6.654   1.044   6.749  0.0092 -0.2619 -0.3005
   75CHL1   H2B 8005   6.776   1.169   6.763  0.1246 -0.0517  0.2814
   75CHL1   C20 8006   6.821   1.138   7.735  0.4520  0.9125  0.1491
   75CHL1   H20 8007   6.906   1.206   7.755  2.0396 -0.2116 -2.2216
   75CHL1   C21 8008   6.888   1.005   7.698 -0.0702 -0.0636  0.2247
   75CHL1  H21A 8009   6.961   1.024   7.616 -1.1495 -0.2129 -0.7896
   75CHL1  H21B 8010   6.801   0.949   7.657 -1.1356  2.9674 -2.0701
   75CHL1  H21C 8011   6.931   0.954   7.787  0.3746 -0.6284 -0.3052
   75CHL1   C22 8012   6.748   1.110   7.869 -0.1220  0.4088  0.8381
   75CHL1  H22A 8013   6.668   1.186   7.879 -0.6281  0.5752 -2.9964
   75CHL1  H22B 8014   6.700   1.010   7.870 -1.9431  1.1270 -2.2596
   75CHL1   C23 8015   6.819   1.121   8.010  0.2769  0.0440  0.6093
   75CHL1  H23A 8016   6.893   1.038   8.012  1.9353  1.2970 -2.0149
   75CHL1  H23B 8017   6.886   1.208   8.028  1.8519 -0.9912 -0.0015
   75CHL1   C24 8018   6.709   1.102   8.121  0.4627 -0.4391  0.5801
   75CHL1  H24A 8019   6.643   1.190   8.133  1.1366  0.2228 -0.4098
   75CHL1  H24B 8020   6.648   1.011   8.100  0.6538 -0.2752 -0.7761
   75CHL1   C25 8021   6.770   1.088   8.259  0.0401 -0.4686  0.3676
   75CHL1   H25 8022   6.850   1.012   8.247 -0.6488 -0.9205 -1.8124
   75CHL1   C26 8023   6.824   1.222   8.318 -0.2801  0.0130  0.3274
   75CHL1  H26A 8024   6.858   1.207   8.423 -0.8818  1.5470  0.7613
   75CHL1  H26B 8025   6.914   1.260   8.265  1.0763 -1.0836  1.7413
   75CHL1  H26C 8026   6.747   1.302   8.312 -0.0067  0.2430 -0.1046
   75CHL1   C27 8027   6.667   1.012   8.347 -0.7148 -0.1297 -0.0576
   75CHL1  H27A 8028   6.723   0.971   8.433 -1.3957 -3.2595 -0.9820
   75CHL1  H27B 8029   6.590   1.084   8.383 -1.1954 -0.3054 -0.6998
   75CHL1  H27C 8030   6.622   0.924   8.297 -0.1221 -0.8311  0.6313
   76CHL1    C3 8031   4.938   3.147   7.301  0.5735 -0.1011  0.6603
   76CHL1    H3 8032   5.011   3.063   7.310  0.5982 -0.0126  1.4046
   76CHL1    O3 8033   4.954   3.203   7.169 -0.9520  0.5840  0.1475
   76CHL1   H3' 8034   4.902   3.145   7.112  0.4679 -0.5619 -0.0478
   76CHL1    C4 8035   4.798   3.101   7.325 -0.3189 -0.7392  0.1434
   76CHL1   H4A 8036   4.725   3.184   7.314  0.3032 -0.4430 -2.2799
   76CHL1   H4B 8037   4.771   3.027   7.247 -2.6674 -1.0527  1.1743
   76CHL1    C5 8038   4.783   3.054   7.466  0.1712  0.6198 -0.4802
   76CHL1    C6 8039   4.753   2.928   7.497 -0.1454  0.0962  0.9811
   76CHL1    H6 8040   4.753   2.857   7.413 -0.5103  0.8689  0.3228
   76CHL1    C7 8041   4.738   2.874   7.637  0.0382 -0.3793 -0.5822
   76CHL1   H7A 8042   4.661   2.794   7.642 -0.2439 -0.2445 -2.3593
   76CHL1   H7B 8043   4.836   2.830   7.665 -0.3247 -0.7264  0.1838
   76CHL1    C8 8044   4.703   2.984   7.741 -0.5122 -0.1490 -0.9828
   76CHL1    H8 8045   4.603   3.030   7.728 -0.9630 -0.5376  0.7482
   76CHL1   C14 8046   4.732   2.932   7.884  0.2943 -0.7873 -0.2683
   76CHL1   H14 8047   4.838   2.898   7.879  0.5228  0.0017 -1.3363
   76CHL1   C15 8048   4.654   2.807   7.917 -0.5760  0.2879  0.0282
   76CHL1  H15A 8049   4.548   2.831   7.893 -1.3467 -0.0318  2.7890
   76CHL1  H15B 8050   4.695   2.733   7.845  2.8205  2.4105 -0.4222
   76CHL1   C16 8051   4.656   2.797   8.071  0.2055 -0.1077 -0.3111
   76CHL1  H16A 8052   4.561   2.782   8.126  0.8067 -0.3430  0.6744
   76CHL1  H16B 8053   4.719   2.710   8.096  1.2704  0.7609  0.0982
   76CHL1   C17 8054   4.732   2.925   8.121 -0.2329  0.0950  0.1211
   76CHL1   H17 8055   4.836   2.888   8.132 -0.5151 -0.3955  1.2713
   76CHL1   C13 8056   4.719   3.024   8.002 -0.4316 -0.5148 -0.2834
   76CHL1   C18 8057   4.573   3.083   8.018  0.4995  0.3884  0.0327
   76CHL1  H18A 8058   4.538   3.126   7.922 -3.7133  0.8988  1.5641
   76CHL1  H18B 8059   4.504   2.999   8.044  0.8603 -0.7142 -2.3217
   76CHL1  H18C 8060   4.575   3.156   8.101 -0.3987  0.3872  0.0644
   76CHL1   C12 8061   4.820   3.139   7.984  0.3628  0.0440 -0.5058
   76CHL1  H12A 8062   4.820   3.221   8.059 -1.4342 -1.4013  1.1634
   76CHL1  H12B 8063   4.922   3.094   7.984 -0.2090 -1.2934 -0.6057
   76CHL1   C11 8064   4.809   3.200   7.843 -0.0984 -0.2848  0.0348
   76CHL1  H11A 8065   4.717   3.262   7.845  0.8355  1.1373 -0.1923
   76CHL1  H11B 8066   4.887   3.278   7.834 -0.8405  0.3102 -1.5962
   76CHL1    C9 8067   4.806   3.097   7.724 -0.0259 -0.3402  1.0141
   76CHL1    H9 8068   4.900   3.038   7.731 -0.4701 -1.1955 -0.0243
   76CHL1   C10 8069   4.808   3.154   7.582  0.9663  0.0424  0.3047
   76CHL1   C19 8070   4.698   3.259   7.578  0.3035 -0.5211 -0.3492
   76CHL1  H19A 8071   4.732   3.341   7.645  1.2399 -0.8986 -0.3525
   76CHL1  H19B 8072   4.681   3.307   7.479  0.2871  2.3492  0.9388
   76CHL1  H19C 8073   4.604   3.209   7.608  0.2984 -0.9964 -1.1198
   76CHL1    C1 8074   4.949   3.213   7.551 -0.4244  0.2581  0.4417
   76CHL1   H1A 8075   4.988   3.298   7.612 -0.0344 -0.4863  1.2453
   76CHL1   H1B 8076   5.020   3.131   7.574  0.5401  1.4434  1.9650
   76CHL1    C2 8077   4.980   3.254   7.401  0.4346  0.5680  0.2121
   76CHL1   H2A 8078   5.089   3.272   7.392  0.2384  1.1755 -1.2598
   76CHL1   H2B 8079   4.924   3.346   7.375 -0.8000 -0.4433 -0.8572
   76CHL1   C20 8080   4.699   2.970   8.267  0.2782 -0.2949 -0.5080
   76CHL1   H20 8081   4.589   2.983   8.267  0.1945 -0.9474 -0.3473
   76CHL1   C21 8082   4.779   3.093   8.305 -0.5316 -0.0801 -0.6176
   76CHL1  H21A 8083   4.887   3.086   8.280  0.4662  0.1367  3.0994
   76CHL1  H21B 8084   4.775   3.108   8.415  1.2225  0.1167 -0.5524
   76CHL1  H21C 8085   4.742   3.189   8.263 -1.7018  0.7655  2.1278
   76CHL1   C22 8086   4.716   2.852   8.374 -0.3766  0.3256 -0.0901
   76CHL1  H22A 8087   4.681   2.882   8.475  1.0269  1.3094  0.1443
   76CHL1  H22B 8088   4.669   2.756   8.342  0.5524  0.0927 -0.8188
   76CHL1   C23 8089   4.872   2.835   8.405  0.0659  0.6338  0.3056
   76CHL1  H23A 8090   4.923   2.805   8.310 -0.9661  0.7171 -0.2891
   76CHL1  H23B 8091   4.924   2.927   8.438  2.6861 -1.3846  2.1905
   76CHL1   C24 8092   4.905   2.724   8.503  0.0381  0.8899 -0.1344
   76CHL1  H24A 8093   4.861   2.757   8.600 -2.8751 -3.5123  0.3171
   76CHL1  H24B 8094   4.838   2.643   8.467  0.5680  0.0306  0.7470
   76CHL1   C25 8095   5.050   2.687   8.510  0.1935  0.6662 -0.1941
   76CHL1   H25 8096   5.081   2.667   8.405 -0.3002  1.8196 -0.5800
   76CHL1   C26 8097   5.132   2.791   8.569 -0.2886  0.7223  0.2351
   76CHL1  H26A 8098   5.239   2.761   8.565 -1.0508 -2.1437 -1.3059
   76CHL1  H26B 8099   5.117   2.884   8.510 -2.0965  0.1473 -0.2662
   76CHL1  H26C 8100   5.109   2.813   8.676  0.5463  0.4835  0.4748
   76CHL1   C27 8101   5.081   2.551   8.593  0.2276 -0.3241 -0.2424
   76CHL1  H27A 8102   5.183   2.548   8.638 -0.0937 -1.9340  0.4467
   76CHL1  H27B 8103   5.019   2.563   8.684 -0.0119 -2.9524  0.0015
   76CHL1  H27C 8104   5.050   2.456   8.544 -0.9962  0.9689 -2.1005
   77CHL1    C3 8105   4.834   0.976   6.843  0.1627  0.1365 -0.2819
   77CHL1    H3 8106   4.928   0.921   6.824  0.7533  0.7469  0.7769
   77CHL1    O3 8107   4.768   0.997   6.721 -0.0048 -0.8250  0.3855
   77CHL1   H3' 8108   4.716   1.076   6.738 -0.8861 -2.0028  4.6199
   77CHL1    C4 8109   4.737   0.882   6.919  0.6907  0.0087 -0.1272
   77CHL1   H4A 8110   4.638   0.932   6.924  0.7909  0.1960 -0.0218
   77CHL1   H4B 8111   4.722   0.794   6.853 -3.1639  0.5920 -0.2427
   77CHL1    C5 8112   4.791   0.852   7.056 -0.2672 -0.4348 -0.6587
   77CHL1    C6 8113   4.823   0.721   7.078  0.2821  0.6442  0.8989
   77CHL1    H6 8114   4.812   0.644   7.000  3.3535  1.7366 -0.7735
   77CHL1    C7 8115   4.871   0.671   7.207  0.6583 -0.1770 -0.3669
   77CHL1   H7A 8116   4.807   0.584   7.230  1.5707 -0.9135 -0.5373
   77CHL1   H7B 8117   4.974   0.628   7.200  0.7412 -0.1149  0.3644
   77CHL1    C8 8118   4.853   0.780   7.316 -0.6918  0.3718  0.7427
   77CHL1    H8 8119   4.746   0.796   7.340 -0.8690 -0.2085  0.3639
   77CHL1   C14 8120   4.928   0.737   7.445  0.0858  0.0287  0.3653
   77CHL1   H14 8121   5.028   0.705   7.409 -0.1883 -3.0516  2.0716
   77CHL1   C15 8122   4.873   0.607   7.505  0.0511  0.8548 -0.3273
   77CHL1  H15A 8123   4.764   0.623   7.520 -0.2577  0.1573 -1.6637
   77CHL1  H15B 8124   4.884   0.521   7.436 -0.2896  1.7786 -1.5663
   77CHL1   C16 8125   4.944   0.600   7.641 -0.2853 -0.2472  0.7977
   77CHL1  H16A 8126   4.874   0.580   7.725 -1.4796  0.6268  0.0425
   77CHL1  H16B 8127   5.019   0.518   7.630  0.7558  0.4752  2.1894
   77CHL1   C17 8128   5.002   0.740   7.666  0.0304 -0.4049 -0.3561
   77CHL1   H17 8129   5.108   0.740   7.635 -0.2479  1.3319 -1.4886
   77CHL1   C13 8130   4.936   0.835   7.562  0.7562  0.7703  0.1669
   77CHL1   C18 8131   4.791   0.876   7.614  0.5290 -0.1168  0.1156
   77CHL1  H18A 8132   4.733   0.793   7.660  1.2009 -0.5626  0.1620
   77CHL1  H18B 8133   4.797   0.965   7.680  1.0222 -0.0443 -0.0292
   77CHL1  H18C 8134   4.728   0.909   7.528  3.1623  2.5760 -0.9245
   77CHL1   C12 8135   5.014   0.956   7.499 -0.3961 -0.2491 -0.1606
   77CHL1  H12A 8136   5.044   1.034   7.572  1.2337 -1.9629  1.0977
   77CHL1  H12B 8137   5.118   0.926   7.474 -0.6997 -0.5868 -1.0583
   77CHL1   C11 8138   4.939   1.019   7.380  0.1963  0.1558 -0.0477
   77CHL1  H11A 8139   4.840   1.051   7.419  0.8468 -0.6914  2.4927
   77CHL1  H11B 8140   4.994   1.107   7.340  2.6733 -0.7872  1.1271
   77CHL1    C9 8141   4.914   0.915   7.269  0.2179 -0.4530 -0.5106
   77CHL1    H9 8142   5.010   0.876   7.230  0.5270 -1.3192  1.0196
   77CHL1   C10 8143   4.834   0.973   7.149 -0.8228  0.1021 -0.4622
   77CHL1   C19 8144   4.703   1.047   7.198 -0.1327 -0.7426  0.0279
   77CHL1  H19A 8145   4.728   1.142   7.249 -0.2302  0.3426 -1.8610
   77CHL1  H19B 8146   4.645   1.080   7.110 -2.7072  0.9633  2.2149
   77CHL1  H19C 8147   4.636   0.982   7.259 -0.1460 -0.6935  0.0647
   77CHL1    C1 8148   4.917   1.073   7.059 -0.0978 -0.8238  0.6628
   77CHL1   H1A 8149   4.922   1.170   7.113 -1.4075 -0.3143 -0.0943
   77CHL1   H1B 8150   5.021   1.035   7.045  0.2179 -0.1851  1.1893
   77CHL1    C2 8151   4.858   1.104   6.921 -0.6495 -0.8030  0.1147
   77CHL1   H2A 8152   4.922   1.172   6.861 -3.4763  2.6183  0.6826
   77CHL1   H2B 8153   4.766   1.163   6.941  0.5708  0.7566  1.3606
   77CHL1   C20 8154   4.997   0.775   7.814 -0.8270 -0.1186 -0.1198
   77CHL1   H20 8155   4.892   0.771   7.850 -1.1318  0.6092 -0.8668
   77CHL1   C21 8156   5.048   0.917   7.837  0.0543 -0.3003 -0.4122
   77CHL1  H21A 8157   4.973   0.992   7.805 -1.7747 -1.6824  0.4565
   77CHL1  H21B 8158   5.140   0.939   7.778 -0.0164  2.2455  0.3248
   77CHL1  H21C 8159   5.067   0.946   7.942  1.1518 -2.4248  0.0443
   77CHL1   C22 8160   5.081   0.668   7.892 -0.0042 -0.0217  0.4027
   77CHL1  H22A 8161   5.076   0.567   7.848  0.2641  1.2012 -2.7093
   77CHL1  H22B 8162   5.185   0.706   7.897 -0.4117  1.7336 -2.2585
   77CHL1   C23 8163   5.042   0.661   8.037 -1.0148 -0.3275  0.4149
   77CHL1  H23A 8164   5.039   0.765   8.074  0.9516 -0.4877  1.1289
   77CHL1  H23B 8165   4.939   0.617   8.037 -1.9716  1.8065  1.0831
   77CHL1   C24 8166   5.148   0.583   8.117  0.4723 -0.0351  0.1741
   77CHL1  H24A 8167   5.176   0.503   8.044  2.7765  1.3023 -0.5386
   77CHL1  H24B 8168   5.247   0.629   8.142 -0.0343  1.1453  0.0847
   77CHL1   C25 8169   5.080   0.510   8.233 -0.1319  0.0440  0.1533
   77CHL1   H25 8170   4.999   0.447   8.191 -0.1041 -1.1961  1.8619
   77CHL1   C26 8171   5.182   0.419   8.309 -0.1104 -0.8036  0.5219
   77CHL1  H26A 8172   5.273   0.476   8.338 -0.2721  0.7856 -1.8663
   77CHL1  H26B 8173   5.122   0.367   8.387  0.3656 -2.5573 -0.2172
   77CHL1  H26C 8174   5.211   0.333   8.244 -2.0531  0.5601 -2.3406
   77CHL1   C27 8175   5.015   0.611   8.337 -0.5942  0.7887  0.1738
   77CHL1  H27A 8176   5.091   0.674   8.388 -1.9307  2.4446  0.1935
   77CHL1  H27B 8177   4.949   0.683   8.285  0.6735 -0.5716 -3.7552
   77CHL1  H27C 8178   4.965   0.543   8.409  0.1879 -1.1230 -1.0001
   78CHL1    C3 8179   0.231   1.897   6.525  0.7797  0.1621 -1.0781
   78CHL1    H3 8180   0.236   1.786   6.529 -0.3193  0.1307  0.0687
   78CHL1    O3 8181   0.225   1.941   6.387 -0.1511  0.0554 -0.2692
   78CHL1   H3' 8182   0.164   2.015   6.382  0.7590  1.0852  2.2652
   78CHL1    C4 8183   0.100   1.931   6.593 -0.1069 -0.5534  0.9895
   78CHL1   H4A 8184   0.062   2.033   6.573  0.2847 -0.0985  2.4146
   78CHL1   H4B 8185   0.039   1.862   6.531  1.4235  0.4180 -1.7977
   78CHL1    C5 8186   0.102   1.890   6.734  0.1631  0.0771  0.6486
   78CHL1    C6 8187  -0.000   1.807   6.779  0.1612 -0.2180 -0.0445
   78CHL1    H6 8188  -0.075   1.776   6.704  1.6427 -0.6500 -1.3979
   78CHL1    C7 8189  -0.004   1.750   6.918 -0.9348 -0.0993  0.3674
   78CHL1   H7A 8190  -0.109   1.760   6.953 -0.8042 -1.8500  1.3727
   78CHL1   H7B 8191   0.020   1.642   6.910 -0.8260 -0.0390 -0.1569
   78CHL1    C8 8192   0.094   1.827   7.019 -0.6656 -0.2540 -0.5119
   78CHL1    H8 8193   0.036   1.915   7.053 -1.7837 -1.5606  1.1403
   78CHL1   C14 8194   0.127   1.748   7.143 -0.1210 -0.0737  0.0348
   78CHL1   H14 8195   0.182   1.663   7.097 -0.1818 -0.8949  1.4128
   78CHL1   C15 8196   0.014   1.666   7.209 -0.1059  0.1624 -0.1597
   78CHL1  H15A 8197  -0.068   1.741   7.220 -0.5289  0.2954 -3.3449
   78CHL1  H15B 8198  -0.020   1.589   7.138 -0.2656  1.6524 -1.7724
   78CHL1   C16 8199   0.086   1.617   7.333 -0.5727 -0.3165 -0.0718
   78CHL1  H16A 8200   0.013   1.631   7.416 -2.5417 -0.3350 -1.7295
   78CHL1  H16B 8201   0.113   1.511   7.316 -0.2282  0.0240 -1.8822
   78CHL1   C17 8202   0.219   1.703   7.352  0.1079  0.0352  0.2103
   78CHL1   H17 8203   0.296   1.635   7.311 -1.4834 -0.7062 -1.7207
   78CHL1   C13 8204   0.213   1.815   7.250  0.5905  0.2642  0.1013
   78CHL1   C18 8205   0.131   1.929   7.311  0.2996  0.4186  0.4097
   78CHL1  H18A 8206   0.091   1.996   7.233  0.1069  1.4230  1.3470
   78CHL1  H18B 8207   0.050   1.897   7.380  0.0075  2.5116  1.0946
   78CHL1  H18C 8208   0.202   1.993   7.368 -0.0222  0.4043  0.8292
   78CHL1   C12 8209   0.344   1.862   7.185  0.0463 -0.1398 -0.0836
   78CHL1  H12A 8210   0.401   1.928   7.254 -0.8909 -1.1056  1.6764
   78CHL1  H12B 8211   0.394   1.766   7.162 -0.5979 -0.4141 -0.3653
   78CHL1   C11 8212   0.315   1.940   7.059 -0.5757  0.6751 -0.1207
   78CHL1  H11A 8213   0.245   2.019   7.095  1.5585  1.5803  2.4256
   78CHL1  H11B 8214   0.407   1.985   7.016  0.3284 -1.3330 -0.4052
   78CHL1    C9 8215   0.229   1.864   6.956  0.9384 -0.2727  0.3519
   78CHL1    H9 8216   0.273   1.765   6.934 -1.7576 -1.8668  1.6076
   78CHL1   C10 8217   0.213   1.949   6.820 -0.6982  0.1785 -0.1592
   78CHL1   C19 8218   0.174   2.092   6.851 -0.4864 -0.1401  0.9420
   78CHL1  H19A 8219   0.256   2.151   6.896 -0.1777  1.1858 -1.2022
   78CHL1  H19B 8220   0.148   2.147   6.758  0.4641 -0.0580  0.7152
   78CHL1  H19C 8221   0.079   2.093   6.910 -0.9296 -1.3102  0.2756
   78CHL1    C1 8222   0.344   1.926   6.746 -0.9636  0.7765  0.0334
   78CHL1   H1A 8223   0.421   1.983   6.801  0.9274 -1.7038  0.1663
   78CHL1   H1B 8224   0.363   1.816   6.751 -3.9121  0.2330  1.2458
   78CHL1    C2 8225   0.347   1.967   6.593 -0.1244 -0.5625  0.2003
   78CHL1   H2A 8226   0.450   1.955   6.553  1.1443  1.8428  2.4976
   78CHL1   H2B 8227   0.333   2.077   6.584  1.2779 -0.5090 -2.0231
   78CHL1   C20 8228   0.257   1.726   7.499  0.7389 -0.7219 -0.2400
   78CHL1   H20 8229   0.184   1.795   7.544 -0.3317 -0.0438 -2.8527
   78CHL1   C21 8230   0.401   1.794   7.501  1.0712  1.0589 -0.3708
   78CHL1  H21A 8231   0.446   1.816   7.601 -0.0318 -0.5285  0.5204
   78CHL1  H21B 8232   0.400   1.892   7.449  2.9324  1.2687 -0.0854
   78CHL1  H21C 8233   0.466   1.718   7.453 -0.2011  0.1394 -0.7056
   78CHL1   C22 8234   0.266   1.605   7.586 -0.8293  0.3457  0.1738
   78CHL1  H22A 8235   0.168   1.553   7.578 -0.2845 -0.6840  0.0297
   78CHL1  H22B 8236   0.338   1.542   7.530 -2.7896 -2.1647  0.3104
   78CHL1   C23 8237   0.290   1.634   7.735  0.2868  0.1710  0.6214
   78CHL1  H23A 8238   0.385   1.691   7.747 -0.2416  1.4704 -1.0128
   78CHL1  H23B 8239   0.211   1.708   7.760 -0.5041  1.0450 -3.6753
   78CHL1   C24 8240   0.278   1.502   7.819  0.0221 -0.2366  0.3034
   78CHL1  H24A 8241   0.170   1.475   7.822  0.1009 -1.0774 -2.1289
   78CHL1  H24B 8242   0.338   1.422   7.770  0.2550  1.8318 -3.0743
   78CHL1   C25 8243   0.343   1.528   7.957 -0.9116 -0.6034 -0.3564
   78CHL1   H25 8244   0.450   1.548   7.934 -0.0511 -0.4642  3.0884
   78CHL1   C26 8245   0.290   1.648   8.040  0.7386 -0.3209  0.4086
   78CHL1  H26A 8246   0.356   1.671   8.127  2.1828  1.8590 -1.1478
   78CHL1  H26B 8247   0.280   1.747   7.990  0.4259  0.3857  1.8011
   78CHL1  H26C 8248   0.184   1.628   8.070 -0.5206  2.1270 -2.0009
   78CHL1   C27 8249   0.342   1.398   8.039 -0.7348 -0.2061 -0.4380
   78CHL1  H27A 8250   0.388   1.431   8.134  0.1534  0.5351 -1.0983
   78CHL1  H27B 8251   0.244   1.348   8.045  0.7879 -3.9446 -2.8107
   78CHL1  H27C 8252   0.412   1.327   7.989 -1.7708 -0.6598 -1.2819
   79CHL1    C3 8253   5.296   2.111   7.408 -0.3155  0.4471  0.1980
   79CHL1    H3 8254   5.210   2.045   7.430 -0.5000 -0.0133 -1.7937
   79CHL1    O3 8255   5.285   2.143   7.267 -0.0839  0.5320  0.0263
   79CHL1   H3' 8256   5.312   2.059   7.229 -4.3036 -0.5326 -1.1360
   79CHL1    C4 8257   5.287   2.242   7.488 -0.3604 -0.3486  0.5643
   79CHL1   H4A 8258   5.357   2.310   7.436  1.2782 -3.1372 -1.1360
   79CHL1   H4B 8259   5.185   2.280   7.467  0.2843  0.0024 -2.2605
   79CHL1    C5 8260   5.304   2.242   7.640  0.1576  0.4593  0.8356
   79CHL1    C6 8261   5.212   2.293   7.725 -0.1592 -0.1247 -0.5224
   79CHL1    H6 8262   5.118   2.346   7.703 -1.1988 -0.5281  2.5194
   79CHL1    C7 8263   5.226   2.287   7.876 -0.2602 -0.7389 -0.3122
   79CHL1   H7A 8264   5.221   2.387   7.925 -0.0870  0.4743 -2.6368
   79CHL1   H7B 8265   5.148   2.223   7.923  0.4388 -0.6731  0.9986
   79CHL1    C8 8266   5.367   2.244   7.924 -0.2238  0.3559 -0.1646
   79CHL1    H8 8267   5.429   2.335   7.923 -1.2980  1.1066 -0.4140
   79CHL1   C14 8268   5.349   2.180   8.064  0.5896 -0.6710 -0.7154
   79CHL1   H14 8269   5.270   2.104   8.052  0.8049 -0.5168 -3.8849
   79CHL1   C15 8270   5.281   2.272   8.170 -0.5033 -0.6615  0.5797
   79CHL1  H15A 8271   5.326   2.372   8.158 -0.0198 -0.8572  0.7251
   79CHL1  H15B 8272   5.173   2.286   8.151  0.0246  1.0687 -1.6100
   79CHL1   C16 8273   5.319   2.207   8.302  0.7742 -0.5701  0.1922
   79CHL1  H16A 8274   5.364   2.284   8.368 -0.9281  0.6462  0.0029
   79CHL1  H16B 8275   5.227   2.173   8.355  0.7067 -1.0777 -0.2417
   79CHL1   C17 8276   5.417   2.087   8.271 -0.4822 -0.4928  0.3049
   79CHL1   H17 8277   5.356   1.995   8.265 -0.7804 -0.2232 -1.0780
   79CHL1   C13 8278   5.477   2.126   8.124  0.3600 -0.4759 -0.8429
   79CHL1   C18 8279   5.584   2.237   8.136  0.3022 -0.5149  0.7186
   79CHL1  H18A 8280   5.553   2.306   8.218 -1.0022  2.3197 -1.9852
   79CHL1  H18B 8281   5.680   2.183   8.153  0.1168 -1.7456 -1.8073
   79CHL1  H18C 8282   5.598   2.281   8.035  1.5384 -3.0371 -0.2983
   79CHL1   C12 8283   5.512   2.011   8.033 -0.4668  0.5722 -0.3508
   79CHL1  H12A 8284   5.597   1.952   8.073 -1.0779  0.5331  0.9210
   79CHL1  H12B 8285   5.425   1.942   8.044 -1.3229  1.7806  0.7618
   79CHL1   C11 8286   5.533   2.044   7.884 -0.2810  0.1202 -0.7513
   79CHL1  H11A 8287   5.629   2.099   7.890 -0.4529  0.2747  1.7806
   79CHL1  H11B 8288   5.552   1.953   7.824  0.7814  0.7351 -1.3663
   79CHL1    C9 8289   5.419   2.132   7.830  0.5449  0.2882 -0.4637
   79CHL1    H9 8290   5.332   2.063   7.832  0.5937  0.1384  3.6051
   79CHL1   C10 8291   5.437   2.172   7.682  0.5179  0.4429  0.2289
   79CHL1   C19 8292   5.563   2.260   7.657 -0.4660 -0.0534 -0.1758
   79CHL1  H19A 8293   5.561   2.352   7.719  3.2784  0.8987 -1.1658
   79CHL1  H19B 8294   5.660   2.208   7.678 -0.0788  0.2052 -1.2785
   79CHL1  H19C 8295   5.572   2.303   7.555  1.4122  3.2872  1.2307
   79CHL1    C1 8296   5.456   2.042   7.591 -0.0691  0.2808  0.2166
   79CHL1   H1A 8297   5.558   1.999   7.598 -0.8172 -2.3211 -2.5765
   79CHL1   H1B 8298   5.382   1.971   7.634  1.9557 -1.6144  0.7889
   79CHL1    C2 8299   5.425   2.044   7.442 -0.5072  0.0373 -0.2700
   79CHL1   H2A 8300   5.435   1.942   7.399  1.6013  0.5586 -1.1234
   79CHL1   H2B 8301   5.510   2.096   7.394  0.8290  0.2868  2.2227
   79CHL1   C20 8302   5.521   2.069   8.377 -0.6056  0.1110 -0.2721
   79CHL1   H20 8303   5.569   2.169   8.378 -1.7193  0.6608 -0.1326
   79CHL1   C21 8304   5.627   1.963   8.357 -0.1012  0.0765  0.1544
   79CHL1  H21A 8305   5.574   1.866   8.344 -0.5882  0.1517  1.4735
   79CHL1  H21B 8306   5.700   1.948   8.440  0.3215 -2.9329 -0.6183
   79CHL1  H21C 8307   5.682   1.985   8.263  1.8473  0.5386  1.3477
   79CHL1   C22 8308   5.459   2.048   8.520  0.0725  0.6381  0.2797
   79CHL1  H22A 8309   5.368   2.112   8.526 -1.1978 -0.9602 -0.8478
   79CHL1  H22B 8310   5.416   1.946   8.534 -1.4613  1.0893 -0.8866
   79CHL1   C23 8311   5.541   2.094   8.638 -0.3020  0.1646  0.3977
   79CHL1  H23A 8312   5.626   2.025   8.661 -0.8548 -0.4547  0.6058
   79CHL1  H23B 8313   5.585   2.194   8.620  0.5026 -0.5028 -1.6611
   79CHL1   C24 8314   5.451   2.101   8.761 -0.0788 -0.3048  0.4089
   79CHL1  H24A 8315   5.392   2.196   8.762  0.0589 -0.2188  0.3103
   79CHL1  H24B 8316   5.374   2.021   8.761  1.1032 -1.4873  1.5317
   79CHL1   C25 8317   5.522   2.098   8.895 -0.5573  0.1991 -0.1679
   79CHL1   H25 8318   5.563   1.995   8.899 -1.2508 -0.2104 -2.2069
   79CHL1   C26 8319   5.635   2.199   8.895 -0.5416  0.0625  0.4572
   79CHL1  H26A 8320   5.710   2.174   8.817 -1.2502  0.5937 -0.4094
   79CHL1  H26B 8321   5.593   2.302   8.892 -0.8566 -0.0702  0.3498
   79CHL1  H26C 8322   5.701   2.208   8.985  1.9624  0.0520 -1.2567
   79CHL1   C27 8323   5.431   2.120   9.022  0.1248  0.4600 -0.5067
   79CHL1  H27A 8324   5.495   2.131   9.112  0.2775  1.3515 -0.7103
   79CHL1  H27B 8325   5.381   2.219   9.016 -0.2691  0.4614  1.9108
   79CHL1  H27C 8326   5.350   2.045   9.028 -0.2279  0.8573 -0.2917
   80CHL1    C3 8327   5.977   5.361   6.909  1.3466  0.6129 -0.1977
   80CHL1    H3 8328   6.073   5.307   6.921  1.2815  0.3233 -0.9543
   80CHL1    O3 8329   5.970   5.416   6.780 -0.1111 -0.2478  0.3114
   80CHL1   H3' 8330   5.877   5.439   6.787 -0.4607 -0.4785 -2.4510
   80CHL1    C4 8331   5.854   5.257   6.916 -0.3515 -0.3708 -0.2005
   80CHL1   H4A 8332   5.767   5.318   6.882  0.9487  1.5891 -0.1107
   80CHL1   H4B 8333   5.876   5.184   6.835 -0.3810  0.6109 -1.1054
   80CHL1    C5 8334   5.823   5.200   7.052  0.3656 -0.1253 -0.6892
   80CHL1    C6 8335   5.820   5.063   7.076 -0.3925 -0.1478  0.3731
   80CHL1    H6 8336   5.837   4.999   6.989  1.4075  1.7924 -0.8207
   80CHL1    C7 8337   5.805   4.999   7.209 -0.2903  0.1329 -0.6377
   80CHL1   H7A 8338   5.733   4.915   7.216 -0.8828  0.6305 -0.5873
   80CHL1   H7B 8339   5.897   4.945   7.238 -2.4751 -2.5467  1.9909
   80CHL1    C8 8340   5.759   5.093   7.322  0.0540  0.0552 -0.1635
   80CHL1    H8 8341   5.653   5.118   7.301  0.5050  0.8471 -1.6468
   80CHL1   C14 8342   5.781   5.020   7.454 -0.0990  0.3165 -0.3511
   80CHL1   H14 8343   5.892   5.011   7.457 -0.1339  0.1614  0.6388
   80CHL1   C15 8344   5.725   4.875   7.470 -0.0508 -0.4231  0.4444
   80CHL1  H15A 8345   5.623   4.860   7.428 -0.9067  3.1468  0.9437
   80CHL1  H15B 8346   5.794   4.800   7.426  0.6032  1.4802 -2.0106
   80CHL1   C16 8347   5.711   4.865   7.623 -0.0882 -0.1236  0.0269
   80CHL1  H16A 8348   5.608   4.863   7.663  1.0274 -0.4264  3.2092
   80CHL1  H16B 8349   5.774   4.783   7.665  1.0609  0.7557  0.0787
   80CHL1   C17 8350   5.774   4.997   7.684 -0.6977 -0.1639 -0.2732
   80CHL1   H17 8351   5.884   4.988   7.694 -0.5315  0.4339 -1.4169
   80CHL1   C13 8352   5.744   5.103   7.574 -0.0655  0.1205  0.6706
   80CHL1   C18 8353   5.593   5.136   7.569  0.2983  0.4577  0.0498
   80CHL1  H18A 8354   5.530   5.046   7.554  1.5646 -1.0818  3.0764
   80CHL1  H18B 8355   5.551   5.183   7.661 -1.8592  0.5400 -0.9112
   80CHL1  H18C 8356   5.568   5.208   7.488  0.0396 -1.2392 -1.4227
   80CHL1   C12 8357   5.824   5.235   7.573  0.0882 -0.2156 -0.5496
   80CHL1  H12A 8358   5.783   5.296   7.657  1.3194  0.3154 -0.3145
   80CHL1  H12B 8359   5.933   5.222   7.589 -0.2727  0.2415  3.2778
   80CHL1   C11 8360   5.809   5.316   7.436  0.2888 -0.1250 -0.5863
   80CHL1  H11A 8361   5.709   5.363   7.431 -0.2394 -1.1436 -0.0405
   80CHL1  H11B 8362   5.885   5.396   7.451 -0.6956  0.6757  0.2856
   80CHL1    C9 8363   5.841   5.226   7.312 -0.8171 -0.5905  1.1501
   80CHL1    H9 8364   5.943   5.185   7.324 -0.7429 -0.3433  1.3528
   80CHL1   C10 8365   5.829   5.298   7.174 -0.1157  0.0205 -0.1740
   80CHL1   C19 8366   5.683   5.363   7.169 -0.5654  0.4403 -0.1479
   80CHL1  H19A 8367   5.672   5.402   7.066 -2.0553 -0.2735 -0.2930
   80CHL1  H19B 8368   5.600   5.290   7.181 -0.7806  0.5925 -0.7052
   80CHL1  H19C 8369   5.672   5.447   7.240 -0.9350  0.2661  0.0023
   80CHL1    C1 8370   5.940   5.403   7.154 -0.2416 -0.2358  0.1031
   80CHL1   H1A 8371   5.936   5.474   7.239  2.8858  0.3690 -0.1374
   80CHL1   H1B 8372   6.036   5.349   7.168  0.3147  0.9841  1.2462
   80CHL1    C2 8373   5.957   5.471   7.016  0.1349  0.4478  0.5246
   80CHL1   H2A 8374   6.045   5.538   7.011  0.5637 -0.1030  0.5087
   80CHL1   H2B 8375   5.867   5.536   7.004 -0.6888 -0.1682  2.7758
   80CHL1   C20 8376   5.718   5.020   7.826 -0.7733  0.3444 -0.5865
   80CHL1   H20 8377   5.615   5.062   7.826 -1.2053 -0.6780  0.6001
   80CHL1   C21 8378   5.813   5.120   7.899 -0.0645 -0.2197 -0.2977
   80CHL1  H21A 8379   5.780   5.158   7.998  0.0201 -2.8665  0.8432
   80CHL1  H21B 8380   5.818   5.204   7.826 -0.0885 -0.2990 -0.3905
   80CHL1  H21C 8381   5.919   5.088   7.912  1.0504  2.4329 -2.1059
   80CHL1   C22 8382   5.712   4.887   7.911 -0.1265 -0.8962  0.0914
   80CHL1  H22A 8383   5.642   4.807   7.879 -1.3369  0.7778 -1.7498
   80CHL1  H22B 8384   5.815   4.845   7.913  0.0273 -0.5058  0.5092
   80CHL1   C23 8385   5.676   4.917   8.059  0.0201 -0.6278 -0.4193
   80CHL1  H23A 8386   5.755   4.977   8.108  1.5471 -1.0593 -2.2430
   80CHL1  H23B 8387   5.587   4.984   8.064  0.4604 -0.1141  0.9492
   80CHL1   C24 8388   5.646   4.786   8.137 -0.5659 -0.7287  0.1174
   80CHL1  H24A 8389   5.557   4.729   8.101 -0.8515 -1.2240  1.5075
   80CHL1  H24B 8390   5.733   4.722   8.112  1.5977  2.0525  0.0827
   80CHL1   C25 8391   5.603   4.818   8.288 -0.1896  0.6115  0.5988
   80CHL1   H25 8392   5.551   4.916   8.283 -3.0349 -0.7029  1.8965
   80CHL1   C26 8393   5.506   4.705   8.341 -0.4855  0.1971 -0.1131
   80CHL1  H26A 8394   5.549   4.603   8.346 -0.0554  0.3364 -0.8374
   80CHL1  H26B 8395   5.477   4.729   8.445 -0.1450  1.9114 -0.3888
   80CHL1  H26C 8396   5.410   4.705   8.284 -1.1227  1.0772  0.9167
   80CHL1   C27 8397   5.718   4.831   8.386  0.5350 -0.2997 -0.9163
   80CHL1  H27A 8398   5.672   4.886   8.470 -0.8444  1.5814 -2.7866
   80CHL1  H27B 8399   5.752   4.734   8.426 -0.3547 -1.3686 -2.5894
   80CHL1  H27C 8400   5.797   4.904   8.359  1.0326  0.1940  1.6182
   81CHL1    C3 8401   2.647   5.831   6.793  0.6757  0.6370  0.1375
   81CHL1    H3 8402   2.744   5.865   6.835  1.6657 -1.5402 -0.2531
   81CHL1    O3 8403   2.637   5.875   6.664  0.1175  0.3708 -0.1043
   81CHL1   H3' 8404   2.555   5.834   6.633  0.4982 -1.5013  1.1575
   81CHL1    C4 8405   2.655   5.674   6.793  0.4883 -0.1461  0.0312
   81CHL1   H4A 8406   2.565   5.637   6.740 -0.0931 -1.0247  1.5722
   81CHL1   H4B 8407   2.745   5.647   6.732 -0.0539 -0.9845 -0.4091
   81CHL1    C5 8408   2.678   5.621   6.933 -0.0236  0.3877  0.2948
   81CHL1    C6 8409   2.792   5.543   6.957 -0.3195 -0.4985  0.5616
   81CHL1    H6 8410   2.852   5.515   6.869 -0.6488 -0.6442  0.3832
   81CHL1    C7 8411   2.842   5.480   7.085  0.5012 -0.7588  0.4791
   81CHL1   H7A 8412   2.858   5.370   7.079  0.6282 -1.0116  3.5634
   81CHL1   H7B 8413   2.943   5.522   7.102  0.2745  0.4354 -0.8853
   81CHL1    C8 8414   2.740   5.509   7.194 -0.0352 -0.2297  0.9372
   81CHL1    H8 8415   2.658   5.434   7.195 -1.3637  1.1311 -0.6650
   81CHL1   C14 8416   2.808   5.498   7.325 -0.6789  0.1415 -0.0117
   81CHL1   H14 8417   2.893   5.570   7.318 -0.4490  0.4338  3.5773
   81CHL1   C15 8418   2.878   5.367   7.360 -0.2691 -0.3904 -0.5301
   81CHL1  H15A 8419   2.821   5.273   7.345  0.0895 -0.6708 -0.1430
   81CHL1  H15B 8420   2.972   5.365   7.300 -1.4382  1.6396 -2.6267
   81CHL1   C16 8421   2.903   5.379   7.511  0.1623  0.2516  0.1803
   81CHL1  H16A 8422   2.854   5.295   7.565  1.3493  0.1966  1.2174
   81CHL1  H16B 8423   3.013   5.373   7.525  0.3197  0.1430 -0.9970
   81CHL1   C17 8424   2.837   5.514   7.557  0.2168 -0.2304  0.0293
   81CHL1   H17 8425   2.916   5.588   7.538 -0.1794 -0.1235 -1.2812
   81CHL1   C13 8426   2.730   5.541   7.450  0.1173  0.2519  0.2599
   81CHL1   C18 8427   2.612   5.447   7.479 -0.3086 -0.4577 -0.1252
   81CHL1  H18A 8428   2.649   5.342   7.485  1.5376  0.1384 -0.5061
   81CHL1  H18B 8429   2.555   5.473   7.571 -1.3440 -2.0080 -0.2932
   81CHL1  H18C 8430   2.535   5.456   7.400 -0.1944 -1.7727 -0.4106
   81CHL1   C12 8431   2.688   5.686   7.436  0.3942 -0.0902 -0.7871
   81CHL1  H12A 8432   2.617   5.711   7.518  0.7154 -0.2188 -0.4659
   81CHL1  H12B 8433   2.779   5.749   7.444  1.7875 -2.1467  0.2440
   81CHL1   C11 8434   2.607   5.706   7.304  0.9319 -0.0127  0.0569
   81CHL1  H11A 8435   2.507   5.660   7.317  0.7863  0.1223 -0.5992
   81CHL1  H11B 8436   2.599   5.815   7.283  2.0609 -0.0658 -0.7494
   81CHL1    C9 8437   2.675   5.652   7.181 -0.7328  0.0508  0.0059
   81CHL1    H9 8438   2.769   5.710   7.177  1.3591 -2.8904  1.9129
   81CHL1   C10 8439   2.598   5.675   7.045  0.0967  0.4437 -0.1439
   81CHL1   C19 8440   2.471   5.590   7.062  0.5483 -0.5590  0.1917
   81CHL1  H19A 8441   2.402   5.587   6.975  0.4325 -0.8573  0.2907
   81CHL1  H19B 8442   2.500   5.483   7.073  0.2466 -0.6223  0.3782
   81CHL1  H19C 8443   2.417   5.622   7.154  1.0726  0.5795  0.1277
   81CHL1    C1 8444   2.564   5.831   7.031 -0.1897 -0.3645 -0.4123
   81CHL1   H1A 8445   2.481   5.863   7.098  0.4882 -0.1071  0.3233
   81CHL1   H1B 8446   2.656   5.883   7.065 -0.3400  0.6066 -1.4356
   81CHL1    C2 8447   2.532   5.876   6.882  0.3960 -0.4332 -0.4919
   81CHL1   H2A 8448   2.531   5.987   6.883 -1.0740 -0.4235 -1.0761
   81CHL1   H2B 8449   2.431   5.843   6.851 -0.3363 -0.6431  1.9300
   81CHL1   C20 8450   2.796   5.514   7.707 -0.5461 -0.9303 -0.2412
   81CHL1   H20 8451   2.707   5.450   7.725 -1.2594  0.6109  2.2804
   81CHL1   C21 8452   2.751   5.654   7.748  0.4471  0.0139  0.2568
   81CHL1  H21A 8453   2.816   5.726   7.693 -0.1175 -0.2930 -0.8609
   81CHL1  H21B 8454   2.748   5.667   7.858  0.5121 -0.8879  0.3720
   81CHL1  H21C 8455   2.649   5.676   7.707  0.8366  3.9342  0.9857
   81CHL1   C22 8456   2.901   5.460   7.813  0.1207 -0.5425 -0.1268
   81CHL1  H22A 8457   2.859   5.453   7.915  1.5821 -0.6641  0.4904
   81CHL1  H22B 8458   2.910   5.352   7.788 -2.9487 -1.1562  0.9867
   81CHL1   C23 8459   3.035   5.535   7.816  0.2568 -0.3849  0.2543
   81CHL1  H23A 8460   3.073   5.541   7.712 -1.4266  0.1119 -0.3699
   81CHL1  H23B 8461   3.014   5.635   7.857 -1.3802 -0.9958  1.0093
   81CHL1   C24 8462   3.141   5.471   7.901 -0.3678 -0.2737  0.1943
   81CHL1  H24A 8463   3.228   5.533   7.930  0.7405 -2.1124  1.0178
   81CHL1  H24B 8464   3.093   5.437   7.996 -1.7512  0.1145 -0.3389
   81CHL1   C25 8465   3.207   5.336   7.855 -0.0067  0.1394  0.5275
   81CHL1   H25 8466   3.126   5.261   7.838  0.6644 -0.7709  1.2521
   81CHL1   C26 8467   3.293   5.358   7.726  0.5587  0.1259 -0.2202
   81CHL1  H26A 8468   3.383   5.419   7.751  0.4717 -0.8079  2.7809
   81CHL1  H26B 8469   3.314   5.256   7.688 -1.2599 -1.3932  2.5037
   81CHL1  H26C 8470   3.238   5.416   7.649  0.9823  1.6837  0.5897
   81CHL1   C27 8471   3.307   5.302   7.969  0.1895  0.1951  0.2706
   81CHL1  H27A 8472   3.376   5.387   7.989  0.8260 -0.0460 -0.7752
   81CHL1  H27B 8473   3.253   5.281   8.063 -2.1397  1.0471 -0.8096
   81CHL1  H27C 8474   3.370   5.215   7.941 -0.0161 -0.4472  1.7299
   82CHL1    C3 8475   3.985   0.260   7.047  0.2744  0.2640  0.8940
   82CHL1    H3 8476   3.895   0.325   7.056 -0.2312 -0.0454 -1.3160
   82CHL1    O3 8477   4.021   0.261   6.910  0.3023  0.1794  0.2749
   82CHL1   H3' 8478   3.958   0.209   6.859 -0.6894  1.5654  0.0371
   82CHL1    C4 8479   4.097   0.335   7.125 -0.4516  0.4561 -0.2648
   82CHL1   H4A 8480   4.190   0.281   7.095 -1.6062 -1.4415 -0.5618
   82CHL1   H4B 8481   4.126   0.434   7.083 -0.3658  0.7498  0.4780
   82CHL1    C5 8482   4.094   0.325   7.276  0.0445 -0.0607  0.0512
   82CHL1    C6 8483   4.104   0.433   7.351 -0.9138 -0.2772  0.4221
   82CHL1    H6 8484   4.122   0.531   7.304 -2.3288  1.5812  3.4346
   82CHL1    C7 8485   4.093   0.438   7.501  0.0698 -0.1264 -0.4346
   82CHL1   H7A 8486   4.158   0.516   7.546 -2.3080  1.0718  1.1297
   82CHL1   H7B 8487   3.991   0.464   7.538  0.4877 -0.7321  1.2447
   82CHL1    C8 8488   4.115   0.299   7.565 -0.0015  0.2929  0.4729
   82CHL1    H8 8489   4.220   0.266   7.554  0.3303  1.4894 -0.1278
   82CHL1   C14 8490   4.078   0.304   7.717 -0.6809  0.6188 -0.1146
   82CHL1   H14 8491   3.970   0.330   7.715 -0.6720  0.6323 -0.5325
   82CHL1   C15 8492   4.151   0.408   7.799 -0.0351 -0.7181 -0.4205
   82CHL1  H15A 8493   4.257   0.410   7.766  0.0552 -1.4444 -0.1842
   82CHL1  H15B 8494   4.122   0.515   7.786  2.2049  0.1871  1.2912
   82CHL1   C16 8495   4.140   0.359   7.941 -0.4968 -1.0193  0.8576
   82CHL1  H16A 8496   4.242   0.339   7.979  0.4130 -3.1497 -2.3185
   82CHL1  H16B 8497   4.080   0.429   8.004 -2.0849 -3.2304  1.9340
   82CHL1   C17 8498   4.063   0.226   7.934 -0.2585 -0.0268 -0.0057
   82CHL1   H17 8499   3.955   0.252   7.941  0.1774  2.0199 -0.1679
   82CHL1   C13 8500   4.094   0.172   7.790  0.8297 -0.0674 -0.1419
   82CHL1   C18 8501   4.244   0.126   7.784 -0.2124 -0.1284 -0.2036
   82CHL1  H18A 8502   4.243   0.027   7.834 -2.7720  0.6625  1.5385
   82CHL1  H18B 8503   4.281   0.108   7.680  2.0695 -2.3700  0.8938
   82CHL1  H18C 8504   4.314   0.196   7.835 -1.6093  0.1154  1.4475
   82CHL1   C12 8505   4.004   0.065   7.719  0.2626  0.4945  0.3750
   82CHL1  H12A 8506   4.011  -0.033   7.772 -0.3050  1.1145  1.6498
   82CHL1  H12B 8507   3.898   0.097   7.722 -0.0936 -0.4370 -1.1783
   82CHL1   C11 8508   4.037   0.046   7.562 -0.1274 -0.3000  0.1466
   82CHL1  H11A 8509   4.139   0.006   7.545  0.0717  1.0448 -2.4574
   82CHL1  H11B 8510   3.970  -0.033   7.523  1.6230 -1.3049 -0.9594
   82CHL1    C9 8511   4.030   0.187   7.485  0.1790  0.1911  0.6476
   82CHL1    H9 8512   3.924   0.218   7.489 -0.1399  0.1558 -3.3685
   82CHL1   C10 8513   4.069   0.187   7.338 -0.7226  0.9390  0.2709
   82CHL1   C19 8514   4.202   0.104   7.307 -0.0733 -0.9991 -0.1927
   82CHL1  H19A 8515   4.222   0.106   7.197  1.1846 -0.3391  0.0399
   82CHL1  H19B 8516   4.299   0.142   7.344 -0.4973  1.2178 -1.2066
   82CHL1  H19C 8517   4.200  -0.006   7.325 -2.1521 -1.3496 -2.0572
   82CHL1    C1 8518   3.952   0.123   7.256 -0.2260  0.2416 -0.3285
   82CHL1   H1A 8519   3.947   0.013   7.273 -1.1978  0.2767 -0.3318
   82CHL1   H1B 8520   3.851   0.162   7.282 -1.5012 -2.9709  0.0088
   82CHL1    C2 8521   3.963   0.126   7.106 -0.1452  0.1570 -0.0093
   82CHL1   H2A 8522   3.868   0.079   7.073  0.7875 -0.9584 -1.2525
   82CHL1   H2B 8523   4.041   0.056   7.067 -0.3990 -0.2699  0.2365
   82CHL1   C20 8524   4.075   0.133   8.055 -0.1940  0.1678 -0.1539
   82CHL1   H20 8525   4.167   0.071   8.044 -2.3414 -3.0347 -1.9942
   82CHL1   C21 8526   3.959   0.032   8.058 -0.7754 -0.1369 -0.3237
   82CHL1  H21A 8527   3.859   0.074   8.082 -1.4141 -1.7666  0.0514
   82CHL1  H21B 8528   3.974  -0.035   8.145 -0.8951 -0.6682 -0.7090
   82CHL1  H21C 8529   3.945  -0.037   7.972  0.1988 -0.9307  0.1260
   82CHL1   C22 8530   4.072   0.203   8.197 -0.0550  0.6442 -0.6347
   82CHL1  H22A 8531   4.125   0.301   8.193 -0.5563  0.9436 -0.0288
   82CHL1  H22B 8532   3.968   0.235   8.217 -0.9640 -2.6632  0.5042
   82CHL1   C23 8533   4.114   0.112   8.315 -0.2655 -0.4185  0.9736
   82CHL1  H23A 8534   4.033   0.038   8.332 -1.0274 -0.4791 -2.2409
   82CHL1  H23B 8535   4.201   0.051   8.282  0.4881  0.6515  0.9345
   82CHL1   C24 8536   4.136   0.189   8.444  0.4677  1.6124  0.1555
   82CHL1  H24A 8537   4.044   0.248   8.461  1.2771  2.6143  1.2772
   82CHL1  H24B 8538   4.171   0.117   8.521  0.5750  1.2309 -0.2503
   82CHL1   C25 8539   4.247   0.296   8.452 -0.2395  0.2998  1.0006
   82CHL1   H25 8540   4.323   0.264   8.378  0.3434 -0.7908  2.0242
   82CHL1   C26 8541   4.187   0.433   8.432 -0.1376  0.5485 -0.3603
   82CHL1  H26A 8542   4.120   0.431   8.343 -0.7433 -0.8767  0.0814
   82CHL1  H26B 8543   4.123   0.464   8.518 -0.4827 -0.2734 -0.3044
   82CHL1  H26C 8544   4.273   0.500   8.415  1.5585 -1.4839 -0.1347
   82CHL1   C27 8545   4.321   0.297   8.588  0.2874  0.1308 -0.6184
   82CHL1  H27A 8546   4.244   0.331   8.661  1.0602 -1.6568  1.1285
   82CHL1  H27B 8547   4.352   0.193   8.610  1.5377  0.4603 -0.7810
   82CHL1  H27C 8548   4.413   0.359   8.584  0.2196  0.2619 -0.1305
   83CHL1    C3 8549   5.367   1.115   6.828  0.7030  0.2031  0.6400
   83CHL1    H3 8550   5.333   1.010   6.832  1.9720 -0.1909  3.4641
   83CHL1    O3 8551   5.324   1.166   6.707  0.2140 -0.2735 -0.6170
   83CHL1   H3' 8552   5.362   1.254   6.700 -0.8177  0.2751  0.3620
   83CHL1    C4 8553   5.303   1.193   6.948  0.3176  0.1054  0.0536
   83CHL1   H4A 8554   5.316   1.300   6.921  0.6875  0.1258  0.3072
   83CHL1   H4B 8555   5.196   1.162   6.950  0.5800 -0.8810 -0.5246
   83CHL1    C5 8556   5.354   1.156   7.090  0.4479 -0.3531  0.5616
   83CHL1    C6 8557   5.271   1.125   7.190  0.5169 -0.7944  0.9089
   83CHL1    H6 8558   5.162   1.130   7.175  0.3838  1.0959  2.0964
   83CHL1    C7 8559   5.296   1.105   7.328 -0.5547 -0.5898  0.3032
   83CHL1   H7A 8560   5.222   1.149   7.399 -1.0551  0.3123 -0.7440
   83CHL1   H7B 8561   5.277   0.996   7.336 -2.8242 -0.3462 -0.7278
   83CHL1    C8 8562   5.441   1.145   7.360 -0.3431  0.2531  0.3557
   83CHL1    H8 8563   5.434   1.254   7.381 -0.0588  0.6792 -1.5295
   83CHL1   C14 8564   5.484   1.076   7.486 -0.1902 -0.6067  0.2131
   83CHL1   H14 8565   5.480   0.969   7.456  1.5075 -0.6375 -0.0079
   83CHL1   C15 8566   5.404   1.104   7.615  0.0326  0.9001 -0.2785
   83CHL1  H15A 8567   5.376   1.212   7.608  2.3527  1.6746  0.9278
   83CHL1  H15B 8568   5.309   1.048   7.612  1.3485 -1.5586  0.8270
   83CHL1   C16 8569   5.503   1.069   7.727 -0.2048  0.3738 -0.1442
   83CHL1  H16A 8570   5.502   1.158   7.793 -2.4318  1.0917 -1.0460
   83CHL1  H16B 8571   5.466   0.977   7.777 -0.0570 -1.9699 -3.9897
   83CHL1   C17 8572   5.646   1.042   7.670  0.4442 -0.0426  0.6308
   83CHL1   H17 8573   5.666   0.933   7.657  4.7756  0.7589 -1.0082
   83CHL1   C13 8574   5.636   1.110   7.533  0.4824 -0.7024  0.2097
   83CHL1   C18 8575   5.638   1.265   7.553  0.3291  0.3346 -0.0924
   83CHL1  H18A 8576   5.600   1.312   7.460 -1.6045  0.3569  0.6630
   83CHL1  H18B 8577   5.592   1.308   7.644  0.0579  1.4116 -0.7244
   83CHL1  H18C 8578   5.744   1.299   7.562 -0.4771  3.2864 -0.8066
   83CHL1   C12 8579   5.730   1.066   7.419 -0.6203  0.3035 -0.3665
   83CHL1  H12A 8580   5.837   1.082   7.443  0.3129 -1.4515 -2.9253
   83CHL1  H12B 8581   5.710   0.958   7.402 -2.5274  0.1568  2.1621
   83CHL1   C11 8582   5.690   1.136   7.280 -0.3335  0.2773  0.0907
   83CHL1  H11A 8583   5.714   1.244   7.293  2.1208 -0.0577 -1.0252
   83CHL1  H11B 8584   5.757   1.092   7.203  1.3648 -1.1544  2.2590
   83CHL1    C9 8585   5.540   1.111   7.246 -0.4028  0.1006 -0.3927
   83CHL1    H9 8586   5.532   1.001   7.244  0.0974 -0.1709  3.8668
   83CHL1   C10 8587   5.501   1.171   7.110 -0.2704  0.2182  0.4199
   83CHL1   C19 8588   5.549   1.315   7.100 -0.2347  0.2737 -0.3667
   83CHL1  H19A 8589   5.660   1.313   7.098 -0.2308  0.1495 -0.1400
   83CHL1  H19B 8590   5.529   1.357   7.000  1.0088  0.1598 -0.6692
   83CHL1  H19C 8591   5.522   1.369   7.194  1.6145 -0.2504  0.5258
   83CHL1    C1 8592   5.564   1.085   6.986  0.0691 -0.2498  0.1318
   83CHL1   H1A 8593   5.675   1.085   6.988  0.2735 -4.2528 -1.9530
   83CHL1   H1B 8594   5.523   0.982   6.992 -0.4262 -0.3437 -3.2122
   83CHL1    C2 8595   5.521   1.120   6.844 -0.6996  0.2200 -0.2404
   83CHL1   H2A 8596   5.569   1.047   6.775 -1.5599 -2.0447  1.4260
   83CHL1   H2B 8597   5.565   1.219   6.818  0.9225 -0.7113 -1.2750
   83CHL1   C20 8598   5.755   1.089   7.765  0.2304  0.2380 -0.0992
   83CHL1   H20 8599   5.744   1.198   7.786  0.6311  0.1778  0.4726
   83CHL1   C21 8600   5.894   1.056   7.706  0.0512  0.0181  0.1225
   83CHL1  H21A 8601   5.916   1.135   7.631  0.8685  0.2899  0.6233
   83CHL1  H21B 8602   5.882   0.955   7.662 -0.6127 -0.2159  0.8086
   83CHL1  H21C 8603   5.974   1.069   7.783 -0.6639  2.5913  0.5266
   83CHL1   C22 8604   5.741   1.029   7.908  0.6706  0.0427  0.2839
   83CHL1  H22A 8605   5.634   1.043   7.933  0.3923  0.8452 -1.2428
   83CHL1  H22B 8606   5.780   0.925   7.912 -1.6557 -0.9041 -0.1599
   83CHL1   C23 8607   5.817   1.118   8.009 -0.4302  0.3389 -0.8827
   83CHL1  H23A 8608   5.927   1.118   7.989 -0.1678  1.1595  0.4497
   83CHL1  H23B 8609   5.789   1.225   8.011 -2.4723 -0.1584  1.4400
   83CHL1   C24 8610   5.802   1.075   8.159 -0.6326  0.4903  0.3961
   83CHL1  H24A 8611   5.692   1.073   8.176 -0.5292  0.8145  1.1285
   83CHL1  H24B 8612   5.844   0.973   8.170  0.3218  0.6114 -1.6176
   83CHL1   C25 8613   5.842   1.167   8.278  0.3098  0.1431 -0.0360
   83CHL1   H25 8614   5.792   1.263   8.252 -1.5827 -0.4068  1.3016
   83CHL1   C26 8615   5.769   1.123   8.410 -0.4516 -0.2970 -0.3294
   83CHL1  H26A 8616   5.662   1.098   8.393 -0.2200 -0.8124 -1.0825
   83CHL1  H26B 8617   5.828   1.037   8.450  0.8635 -1.4004 -4.1766
   83CHL1  H26C 8618   5.772   1.212   8.475 -0.2682 -0.5417  0.0020
   83CHL1   C27 8619   5.992   1.185   8.305 -0.1901 -0.3422 -0.0650
   83CHL1  H27A 8620   6.015   1.249   8.393  1.3429  0.5816 -1.0744
   83CHL1  H27B 8621   6.044   1.087   8.310  0.8403 -0.0642 -3.1160
   83CHL1  H27C 8622   6.041   1.232   8.216 -0.4524  0.0328 -0.0152
   84CHL1    C3 8623   1.275   4.413   6.960  1.0852 -0.2631  0.1232
   84CHL1    H3 8624   1.372   4.468   6.967  0.1176  1.3193  2.1550
   84CHL1    O3 8625   1.210   4.458   6.840 -0.0649 -0.2237 -0.2873
   84CHL1   H3' 8626   1.116   4.447   6.856 -0.0805  0.7242  0.3607
   84CHL1    C4 8627   1.283   4.270   6.964  0.7373  0.2457 -0.5971
   84CHL1   H4A 8628   1.180   4.229   6.950 -0.5054  1.7896  2.8873
   84CHL1   H4B 8629   1.354   4.221   6.894  0.7762  0.2145 -0.5364
   84CHL1    C5 8630   1.330   4.217   7.103  0.1760  0.0190  0.0649
   84CHL1    C6 8631   1.440   4.148   7.120  0.5583  0.8776  0.7842
   84CHL1    H6 8632   1.483   4.098   7.031  0.8021  2.4055  0.0167
   84CHL1    C7 8633   1.482   4.101   7.258 -0.8608  0.0913  0.2976
   84CHL1   H7A 8634   1.509   3.994   7.250 -1.4468  0.0855 -3.1124
   84CHL1   H7B 8635   1.564   4.171   7.285 -1.1708  0.9545 -0.9266
   84CHL1    C8 8636   1.369   4.109   7.369  0.5648 -0.0601 -0.3719
   84CHL1    H8 8637   1.300   4.026   7.341 -0.3025  0.1711  0.9933
   84CHL1   C14 8638   1.418   4.081   7.508  0.7583  0.7331 -0.0012
   84CHL1   H14 8639   1.496   4.159   7.525 -0.3642  1.8239  0.3317
   84CHL1   C15 8640   1.500   3.954   7.542 -0.7464  0.0414 -0.5546
   84CHL1  H15A 8641   1.444   3.869   7.497 -0.5299 -0.0616 -0.6310
   84CHL1  H15B 8642   1.601   3.948   7.496 -0.1494 -2.5276  0.9407
   84CHL1   C16 8643   1.509   3.957   7.696  0.0101 -0.3548  0.2446
   84CHL1  H16A 8644   1.467   3.860   7.730  1.1152 -0.7320  0.5877
   84CHL1  H16B 8645   1.616   3.972   7.725 -0.3937  1.2357  1.0295
   84CHL1   C17 8646   1.427   4.084   7.749  0.0652  1.3567 -0.0410
   84CHL1   H17 8647   1.505   4.163   7.759  1.0255  0.2180  2.2110
   84CHL1   C13 8648   1.327   4.107   7.631  0.2435  0.2641 -0.0841
   84CHL1   C18 8649   1.218   3.997   7.629 -0.5979 -0.5534  0.8931
   84CHL1  H18A 8650   1.159   3.991   7.535 -0.2979 -1.0579  0.7305
   84CHL1  H18B 8651   1.261   3.896   7.643 -0.3517 -0.7159 -0.8302
   84CHL1  H18C 8652   1.149   4.008   7.716 -1.5563 -0.1529  0.1106
   84CHL1   C12 8653   1.262   4.240   7.617 -0.0987 -0.3670  0.5642
   84CHL1  H12A 8654   1.182   4.269   7.687 -0.8616 -0.9176 -0.0674
   84CHL1  H12B 8655   1.339   4.319   7.631  0.5791 -0.5924 -1.4453
   84CHL1   C11 8656   1.199   4.261   7.475  0.3846  0.0239 -1.2787
   84CHL1  H11A 8657   1.111   4.193   7.469 -0.0533  0.4670 -0.1408
   84CHL1  H11B 8658   1.147   4.359   7.480 -0.1592 -0.3077 -0.3207
   84CHL1    C9 8659   1.302   4.244   7.364 -1.0400  0.2550 -0.2413
   84CHL1    H9 8660   1.376   4.322   7.389 -0.7966 -0.9470  3.3088
   84CHL1   C10 8661   1.243   4.266   7.223  0.5466 -0.5205  0.5759
   84CHL1   C19 8662   1.102   4.200   7.209 -0.2665  0.7405 -0.5299
   84CHL1  H19A 8663   1.061   4.198   7.106  0.2489 -2.8901 -0.7809
   84CHL1  H19B 8664   1.107   4.094   7.240  0.9154  0.9070 -0.1056
   84CHL1  H19C 8665   1.029   4.245   7.280  1.4608 -0.3781  2.1217
   84CHL1    C1 8666   1.242   4.421   7.209 -0.4152  0.0073  0.2881
   84CHL1   H1A 8667   1.189   4.479   7.288  0.7116  1.3357  0.1100
   84CHL1   H1B 8668   1.347   4.452   7.195 -0.5900 -0.4511 -2.6853
   84CHL1    C2 8669   1.185   4.469   7.075 -0.1197  0.0481  0.1806
   84CHL1   H2A 8670   1.198   4.579   7.060  0.4164 -0.1022 -0.5348
   84CHL1   H2B 8671   1.079   4.441   7.061  0.0424 -0.1124 -0.8310
   84CHL1   C20 8672   1.370   4.070   7.888 -0.4144 -0.0908 -0.3443
   84CHL1   H20 8673   1.271   4.022   7.875 -1.8559  2.8440 -1.2905
   84CHL1   C21 8674   1.337   4.211   7.952 -0.3867 -0.2051  0.0953
   84CHL1  H21A 8675   1.421   4.277   7.983 -1.8890  1.6349  0.4566
   84CHL1  H21B 8676   1.268   4.196   8.038  0.2401 -0.9596  0.4779
   84CHL1  H21C 8677   1.282   4.273   7.877 -2.2018 -0.9410  0.7704
   84CHL1   C22 8678   1.462   3.989   7.989  0.1007 -0.3647  0.4059
   84CHL1  H22A 8679   1.481   3.885   7.956 -2.3668 -1.4118  1.9713
   84CHL1  H22B 8680   1.560   4.041   7.978 -0.3133  0.3587 -0.0079
   84CHL1   C23 8681   1.428   4.006   8.137  0.0559  0.0493  0.1025
   84CHL1  H23A 8682   1.449   4.107   8.178 -0.5259 -0.7860  2.7098
   84CHL1  H23B 8683   1.323   3.969   8.145 -0.4852  0.5647 -3.1664
   84CHL1   C24 8684   1.507   3.905   8.212 -0.3732  0.3531  0.1987
   84CHL1  H24A 8685   1.485   3.808   8.163 -2.2154  0.9285 -0.2045
   84CHL1  H24B 8686   1.613   3.922   8.186 -0.0870 -0.5040  0.7640
   84CHL1   C25 8687   1.500   3.889   8.362 -0.1296  0.1690  0.3906
   84CHL1   H25 8688   1.390   3.890   8.377 -0.1034  0.4093  0.5812
   84CHL1   C26 8689   1.552   3.755   8.412 -0.3272  0.4979  0.2723
   84CHL1  H26A 8690   1.526   3.750   8.520 -1.9404  1.4317 -0.0284
   84CHL1  H26B 8691   1.504   3.670   8.358  1.0774  0.5373 -1.0919
   84CHL1  H26C 8692   1.661   3.750   8.394 -0.1731 -0.4639  1.3684
   84CHL1   C27 8693   1.562   4.007   8.442  0.0688  0.1863  1.0277
   84CHL1  H27A 8694   1.659   4.039   8.400 -0.3716 -1.5135 -1.5433
   84CHL1  H27B 8695   1.493   4.094   8.436 -1.0780 -0.6777  1.1269
   84CHL1  H27C 8696   1.575   3.980   8.549 -2.0061  2.1755  1.8732
   85CHL1    C3 8697   0.798   1.937   6.803  0.8103  0.3950 -0.5683
   85CHL1    H3 8698   0.848   2.032   6.834  1.9241 -0.4339  0.2661
   85CHL1    O3 8699   0.763   1.944   6.665 -0.3627  0.5490  0.0827
   85CHL1   H3' 8700   0.732   1.857   6.637  1.0714 -0.0045  0.1659
   85CHL1    C4 8701   0.888   1.817   6.826 -0.3828  0.8366 -0.2560
   85CHL1   H4A 8702   0.838   1.723   6.794 -1.3090  0.6503  1.6071
   85CHL1   H4B 8703   0.983   1.841   6.775 -0.2016 -0.9931 -0.8389
   85CHL1    C5 8704   0.929   1.804   6.977  0.2865 -0.4160  0.2255
   85CHL1    C6 8705   1.049   1.805   7.022  0.2397  0.6521  0.2357
   85CHL1    H6 8706   1.136   1.799   6.955  0.3962 -0.1183  0.5027
   85CHL1    C7 8707   1.087   1.788   7.163  0.4857  0.1989 -0.1101
   85CHL1   H7A 8708   1.177   1.726   7.182  0.6728  0.6907  0.6644
   85CHL1   H7B 8709   1.108   1.887   7.211  0.0894 -2.1261  5.7138
   85CHL1    C8 8710   0.974   1.731   7.259 -0.3402  0.6078  0.5032
   85CHL1    H8 8711   0.964   1.627   7.223  0.5623  0.9613 -0.8789
   85CHL1   C14 8712   1.001   1.759   7.401  0.1722  0.1725 -0.4759
   85CHL1   H14 8713   0.984   1.866   7.424 -0.5346 -0.0064 -0.1447
   85CHL1   C15 8714   1.138   1.712   7.455  0.3595 -0.0004  0.6036
   85CHL1  H15A 8715   1.161   1.623   7.392 -2.6500 -0.5309  0.1211
   85CHL1  H15B 8716   1.217   1.789   7.442 -0.6028  1.9549  4.6890
   85CHL1   C16 8717   1.113   1.685   7.602 -0.3464 -0.1276 -0.1641
   85CHL1  H16A 8718   1.136   1.577   7.614 -0.3423 -0.2195 -0.9641
   85CHL1  H16B 8719   1.164   1.760   7.666 -3.1541  0.4120  1.5801
   85CHL1   C17 8720   0.960   1.705   7.632 -0.0305 -0.4787  0.3210
   85CHL1   H17 8721   0.937   1.812   7.651 -2.8681 -1.0905  0.7184
   85CHL1   C13 8722   0.894   1.693   7.490  0.1718  0.7912 -0.0211
   85CHL1   C18 8723   0.880   1.536   7.475  0.1695  0.4749  0.6101
   85CHL1  H18A 8724   0.857   1.520   7.367 -0.1722  1.0446  0.5897
   85CHL1  H18B 8725   0.960   1.480   7.527 -0.9745 -1.1675  0.6532
   85CHL1  H18C 8726   0.782   1.507   7.520 -0.2032  1.5903  0.5482
   85CHL1   C12 8727   0.757   1.764   7.461  0.4950  0.4081 -0.2229
   85CHL1  H12A 8728   0.677   1.709   7.514  0.3190  0.1538 -0.7367
   85CHL1  H12B 8729   0.753   1.870   7.491 -0.8115  0.2006  0.3876
   85CHL1   C11 8730   0.727   1.753   7.315  0.5898 -0.8154 -0.5603
   85CHL1  H11A 8731   0.686   1.651   7.298 -2.8769  0.6819 -2.2685
   85CHL1  H11B 8732   0.637   1.815   7.297  0.1605 -0.6035  1.9521
   85CHL1    C9 8733   0.846   1.801   7.224  0.3923 -0.4173 -0.2239
   85CHL1    H9 8734   0.859   1.910   7.241  0.1389 -0.1003 -1.9260
   85CHL1   C10 8735   0.802   1.801   7.071 -0.2419 -0.4708 -0.6324
   85CHL1   C19 8736   0.724   1.672   7.043 -0.1231  0.0681  0.3037
   85CHL1  H19A 8737   0.629   1.675   7.102 -1.4422  1.4196 -1.7564
   85CHL1  H19B 8738   0.682   1.650   6.943 -0.4742 -2.7959  0.9953
   85CHL1  H19C 8739   0.778   1.579   7.070 -0.9236 -0.9641 -1.5072
   85CHL1    C1 8740   0.713   1.924   7.042 -0.0028  0.0271 -0.1467
   85CHL1   H1A 8741   0.630   1.922   7.115  0.0091  0.0025 -0.1342
   85CHL1   H1B 8742   0.773   2.014   7.069  1.4229 -0.0881 -2.6162
   85CHL1    C2 8743   0.671   1.932   6.893 -0.0190  0.0521  0.7823
   85CHL1   H2A 8744   0.619   2.028   6.873  0.7402  0.0627 -1.3817
   85CHL1   H2B 8745   0.600   1.855   6.857 -1.3102  1.5298  0.0692
   85CHL1   C20 8746   0.901   1.638   7.754 -0.8368  0.3914  0.2960
   85CHL1   H20 8747   0.913   1.528   7.744  1.1459  0.6564 -0.7834
   85CHL1   C21 8748   0.754   1.686   7.765 -0.1572  0.4000  0.2335
   85CHL1  H21A 8749   0.713   1.659   7.865  1.7948  0.3186  1.0544
   85CHL1  H21B 8750   0.684   1.644   7.690 -0.6463  0.9713  0.3632
   85CHL1  H21C 8751   0.738   1.796   7.760  0.0794  0.5251  1.6650
   85CHL1   C22 8752   0.974   1.671   7.886 -0.2307  0.3128  0.2780
   85CHL1  H22A 8753   0.942   1.600   7.964 -2.4210 -1.0355 -1.6898
   85CHL1  H22B 8754   1.080   1.649   7.860 -0.0586  2.7296 -1.4603
   85CHL1   C23 8755   0.972   1.819   7.923  0.0118  0.6935 -0.0383
   85CHL1  H23A 8756   1.031   1.875   7.847  1.2167  0.2814  0.5630
   85CHL1  H23B 8757   0.871   1.864   7.925  0.5028  1.8239  2.2316
   85CHL1   C24 8758   1.042   1.839   8.057 -0.1506  0.1019 -0.1440
   85CHL1  H24A 8759   1.041   1.949   8.071  0.8360 -0.0143  0.9495
   85CHL1  H24B 8760   0.975   1.794   8.134 -0.6772  0.5273 -0.3404
   85CHL1   C25 8761   1.177   1.780   8.065 -0.3171 -0.5018 -0.5705
   85CHL1   H25 8762   1.179   1.673   8.039  0.9388 -0.6840  0.1777
   85CHL1   C26 8763   1.277   1.862   7.977 -0.2678  0.3410 -0.8332
   85CHL1  H26A 8764   1.382   1.836   8.002  0.1776  0.9248 -2.0313
   85CHL1  H26B 8765   1.254   1.827   7.874  0.9414 -0.9340 -0.7066
   85CHL1  H26C 8766   1.253   1.970   7.974 -0.6840  0.2344 -1.4581
   85CHL1   C27 8767   1.229   1.799   8.209  0.7739 -0.1751  0.5621
   85CHL1  H27A 8768   1.170   1.751   8.291 -0.1964 -0.4018 -0.2426
   85CHL1  H27B 8769   1.336   1.772   8.210  1.4194  2.1831  0.6510
   85CHL1  H27C 8770   1.236   1.909   8.220  3.4533 -0.2361  0.0003
   86CHL1    C3 8771   5.306   6.498   6.982 -0.0841  0.3485  0.1953
   86CHL1    H3 8772   5.349   6.395   6.985 -2.8750 -0.9069  1.1066
   86CHL1    O3 8773   5.286   6.527   6.843 -0.2212 -0.3180  0.1671
   86CHL1   H3' 8774   5.264   6.621   6.838 -1.4064 -0.5730  0.2190
   86CHL1    C4 8775   5.169   6.494   7.052 -0.5960 -0.4282 -0.3745
   86CHL1   H4A 8776   5.123   6.594   7.047  0.9095  0.2462 -1.7687
   86CHL1   H4B 8777   5.101   6.424   6.997  1.6589 -1.5443 -1.9288
   86CHL1    C5 8778   5.194   6.462   7.197  0.0974 -0.6019 -0.3839
   86CHL1    C6 8779   5.145   6.347   7.242 -0.3315 -0.4130  0.6019
   86CHL1    H6 8780   5.067   6.304   7.178  0.6363  1.3701 -1.9386
   86CHL1    C7 8781   5.155   6.301   7.381 -0.0038 -0.1534 -0.8423
   86CHL1   H7A 8782   5.055   6.267   7.414  0.2631 -0.2710 -0.1436
   86CHL1   H7B 8783   5.230   6.219   7.378  1.2706  0.9256  0.3929
   86CHL1    C8 8784   5.204   6.413   7.474  0.8603  0.2244  0.3228
   86CHL1    H8 8785   5.125   6.487   7.498 -0.4979 -0.6740 -1.1824
   86CHL1   C14 8786   5.246   6.358   7.606  0.0460  0.6193  0.1591
   86CHL1   H14 8787   5.316   6.275   7.584  1.4157  1.9434 -0.7150
   86CHL1   C15 8788   5.132   6.283   7.687 -0.0022 -0.5687 -0.3708
   86CHL1  H15A 8789   5.045   6.351   7.676 -0.6823 -1.2245  0.8175
   86CHL1  H15B 8790   5.095   6.184   7.655  0.9309 -0.7547 -0.9072
   86CHL1   C16 8791   5.184   6.285   7.829  0.4043 -0.1134 -0.0188
   86CHL1  H16A 8792   5.104   6.328   7.892 -0.1793 -2.3581  0.8515
   86CHL1  H16B 8793   5.207   6.186   7.873 -0.2984  1.3322  4.0774
   86CHL1   C17 8794   5.316   6.369   7.836  0.2025  0.8272  0.0002
   86CHL1   H17 8795   5.390   6.289   7.815  1.3785  1.2611  2.2222
   86CHL1   C13 8796   5.311   6.454   7.705  0.0300 -0.0710  0.0705
   86CHL1   C18 8797   5.229   6.580   7.731 -0.1718 -0.0990 -0.3636
   86CHL1  H18A 8798   5.285   6.641   7.805  0.7719 -0.9865 -0.3278
   86CHL1  H18B 8799   5.195   6.647   7.649 -0.2622  2.3263  1.5364
   86CHL1  H18C 8800   5.132   6.545   7.770 -0.4889 -1.0320 -1.8961
   86CHL1   C12 8801   5.448   6.485   7.643 -0.4832  0.8373  0.0430
   86CHL1  H12A 8802   5.518   6.544   7.705  1.8782 -1.6040 -0.0806
   86CHL1  H12B 8803   5.508   6.392   7.629 -1.0877  0.7736 -2.9044
   86CHL1   C11 8804   5.426   6.563   7.505  0.2075  0.2633 -0.0858
   86CHL1  H11A 8805   5.386   6.662   7.535 -0.2833  0.4133 -1.1764
   86CHL1  H11B 8806   5.526   6.583   7.463  0.8192  0.8211  1.5510
   86CHL1    C9 8807   5.330   6.485   7.412  0.3011 -0.1907 -0.1906
   86CHL1    H9 8808   5.386   6.393   7.385  0.7464 -1.0840  3.3226
   86CHL1   C10 8809   5.292   6.556   7.272 -0.0598  0.1534  0.9608
   86CHL1   C19 8810   5.222   6.690   7.303  0.2088  0.0010 -0.1015
   86CHL1  H19A 8811   5.280   6.758   7.369 -0.0315 -2.9947  3.5055
   86CHL1  H19B 8812   5.205   6.732   7.201  1.7407 -2.2247 -1.3493
   86CHL1  H19C 8813   5.133   6.660   7.364 -0.3759  1.1580 -0.3531
   86CHL1    C1 8814   5.426   6.570   7.198  0.2914 -0.4942  0.8251
   86CHL1   H1A 8815   5.497   6.651   7.226 -0.1414  0.7922 -1.5519
   86CHL1   H1B 8816   5.492   6.480   7.199 -0.6564 -1.3007 -1.3075
   86CHL1    C2 8817   5.398   6.596   7.047 -0.4165 -0.3259 -0.3748
   86CHL1   H2A 8818   5.492   6.599   6.988  1.8933  0.0402  3.0388
   86CHL1   H2B 8819   5.344   6.693   7.047  0.8323  0.4273  1.7821
   86CHL1   C20 8820   5.343   6.432   7.974 -0.9387  0.5298  0.2051
   86CHL1   H20 8821   5.280   6.522   7.988 -2.2384 -0.3038 -0.1563
   86CHL1   C21 8822   5.488   6.477   7.989  0.0522  0.0623 -0.1735
   86CHL1  H21A 8823   5.558   6.392   7.978 -0.8692 -0.8053  0.4833
   86CHL1  H21B 8824   5.511   6.520   8.089  0.2054 -0.0916 -0.1425
   86CHL1  H21C 8825   5.513   6.551   7.910  0.5266  1.8662  1.5899
   86CHL1   C22 8826   5.307   6.317   8.083  0.1287 -0.1873  0.5306
   86CHL1  H22A 8827   5.311   6.353   8.188  0.7510  0.9874  0.1240
   86CHL1  H22B 8828   5.203   6.283   8.066  1.5165 -3.9617 -1.7887
   86CHL1   C23 8829   5.405   6.197   8.082 -0.0611 -0.5696 -0.4602
   86CHL1  H23A 8830   5.421   6.162   7.977 -0.5511 -1.2513 -0.3153
   86CHL1  H23B 8831   5.505   6.214   8.129  0.2592 -2.4656 -0.3723
   86CHL1   C24 8832   5.347   6.072   8.136 -0.1064 -0.7157  0.1717
   86CHL1  H24A 8833   5.323   6.098   8.241 -0.3767  1.3998 -0.3612
   86CHL1  H24B 8834   5.256   6.054   8.075 -0.4892  0.8298  0.2506
   86CHL1   C25 8835   5.423   5.943   8.137  0.4912  0.1921  0.7065
   86CHL1   H25 8836   5.442   5.915   8.031  1.2427 -2.1714  1.3815
   86CHL1   C26 8837   5.555   5.948   8.207 -0.0861  0.2767 -0.1117
   86CHL1  H26A 8838   5.535   5.968   8.315 -0.1427  0.7372 -0.2066
   86CHL1  H26B 8839   5.601   5.847   8.200  2.1288  1.3281 -1.6940
   86CHL1  H26C 8840   5.623   6.026   8.169  0.8442 -1.0074 -1.1559
   86CHL1   C27 8841   5.332   5.832   8.191 -0.2530 -0.0558  0.2205
   86CHL1  H27A 8842   5.303   5.850   8.297 -1.7957 -0.1221 -0.1779
   86CHL1  H27B 8843   5.246   5.816   8.124  1.4906 -0.2515 -2.1003
   86CHL1  H27C 8844   5.386   5.735   8.182  0.3851  0.2289  0.8419
   87CHL1    C3 8845   4.362   4.446   6.992  1.2971  0.4452  0.0347
   87CHL1    H3 8846   4.457   4.395   6.968  0.2277 -1.4907 -0.3195
   87CHL1    O3 8847   4.306   4.509   6.874 -0.1835  0.6291 -0.2027
   87CHL1   H3' 8848   4.387   4.532   6.827  0.0932 -0.9007 -0.5473
   87CHL1    C4 8849   4.259   4.345   7.047  0.0980 -0.3149  0.0957
   87CHL1   H4A 8850   4.161   4.396   7.060  0.0689 -0.0536 -1.0397
   87CHL1   H4B 8851   4.230   4.265   6.976 -0.7981  1.2330 -1.3681
   87CHL1    C5 8852   4.297   4.284   7.176 -0.6113  0.1935 -0.1723
   87CHL1    C6 8853   4.319   4.145   7.188 -0.5597  0.0884 -0.3229
   87CHL1    H6 8854   4.303   4.074   7.106 -0.8451 -0.6758  0.3740
   87CHL1    C7 8855   4.359   4.084   7.318  0.5999 -0.3604  0.4047
   87CHL1   H7A 8856   4.299   3.991   7.335  0.5602 -0.5328 -0.5942
   87CHL1   H7B 8857   4.463   4.048   7.326  0.6051 -0.2466  0.8676
   87CHL1    C8 8858   4.329   4.180   7.429  0.0435 -0.3866 -1.2861
   87CHL1    H8 8859   4.219   4.197   7.439  0.1136 -1.0347  1.7275
   87CHL1   C14 8860   4.381   4.116   7.562  0.1976 -0.3070  0.6722
   87CHL1   H14 8861   4.491   4.106   7.547  0.1121 -1.1410  0.5185
   87CHL1   C15 8862   4.324   3.984   7.596  0.6211  0.1506  0.0176
   87CHL1  H15A 8863   4.215   3.990   7.573  0.3980 -0.0164  0.9864
   87CHL1  H15B 8864   4.378   3.908   7.536 -0.3238 -0.2320 -0.3753
   87CHL1   C16 8865   4.335   3.967   7.741  0.6659  0.5175 -0.9092
   87CHL1  H16A 8866   4.240   3.941   7.791  0.1799  1.1376 -1.4844
   87CHL1  H16B 8867   4.405   3.894   7.786  1.5590  3.9408  4.0903
   87CHL1   C17 8868   4.387   4.108   7.796  0.0959  0.0868 -0.8753
   87CHL1   H17 8869   4.498   4.102   7.807  0.1597 -1.2078 -1.8854
   87CHL1   C13 8870   4.350   4.210   7.685 -0.5511  0.3248 -0.5549
   87CHL1   C18 8871   4.200   4.252   7.701  0.1234 -0.4447 -0.1884
   87CHL1  H18A 8872   4.134   4.164   7.719 -0.7515  0.2413  0.0260
   87CHL1  H18B 8873   4.193   4.319   7.790  1.5806  0.2026 -0.5275
   87CHL1  H18C 8874   4.164   4.304   7.610 -1.1187 -1.6314 -0.4128
   87CHL1   C12 8875   4.451   4.327   7.675  0.3561 -0.5557  0.6829
   87CHL1  H12A 8876   4.452   4.399   7.760  1.3558 -1.1171  1.1649
   87CHL1  H12B 8877   4.548   4.274   7.666 -1.0169 -2.8913 -1.3577
   87CHL1   C11 8878   4.429   4.398   7.537  0.3701  0.0806 -0.0703
   87CHL1  H11A 8879   4.341   4.465   7.553  0.0528 -0.7431  1.8225
   87CHL1  H11B 8880   4.520   4.456   7.513  0.4287 -0.0243 -0.1026
   87CHL1    C9 8881   4.405   4.311   7.406 -0.4102  0.2681  0.0776
   87CHL1    H9 8882   4.500   4.270   7.366 -0.4424 -0.5151  0.7875
   87CHL1   C10 8883   4.340   4.387   7.285 -1.1899  0.3149  0.1900
   87CHL1   C19 8884   4.211   4.462   7.329 -0.0952 -0.9383  0.4270
   87CHL1  H19A 8885   4.139   4.388   7.369 -1.1385  0.4715  1.2728
   87CHL1  H19B 8886   4.231   4.541   7.405  1.0673 -1.5628  0.7993
   87CHL1  H19C 8887   4.165   4.512   7.241  0.4320  0.2842  0.8107
   87CHL1    C1 8888   4.444   4.494   7.224  0.1521  0.0957  0.1729
   87CHL1   H1A 8889   4.467   4.576   7.295  0.8956  0.3928 -0.4039
   87CHL1   H1B 8890   4.543   4.450   7.203 -0.1997 -0.3322 -0.6254
   87CHL1    C2 8891   4.397   4.565   7.089  0.4590  0.2127 -0.1166
   87CHL1   H2A 8892   4.471   4.630   7.037 -0.3104  2.4051  1.4181
   87CHL1   H2B 8893   4.311   4.634   7.098  0.6876  0.7824 -1.9154
   87CHL1   C20 8894   4.334   4.132   7.941 -0.7783 -0.1118 -0.0700
   87CHL1   H20 8895   4.223   4.128   7.939 -0.7310 -3.6763 -1.1183
   87CHL1   C21 8896   4.386   4.268   7.979  0.1689 -0.4783  0.0736
   87CHL1  H21A 8897   4.359   4.281   8.086 -0.2441  2.7011 -0.3369
   87CHL1  H21B 8898   4.340   4.357   7.931 -0.9552 -0.1837  1.5957
   87CHL1  H21C 8899   4.494   4.291   7.970 -0.1195  0.7785 -0.4082
   87CHL1   C22 8900   4.377   4.021   8.033  0.1590  0.2651  0.8190
   87CHL1  H22A 8901   4.344   3.922   7.995  1.6736  0.1419 -0.2733
   87CHL1  H22B 8902   4.487   4.017   8.046  0.1548  0.1203  0.8121
   87CHL1   C23 8903   4.314   4.035   8.173  0.4125  0.1482 -0.7123
   87CHL1  H23A 8904   4.348   4.127   8.225 -0.0309 -0.2083  0.2387
   87CHL1  H23B 8905   4.210   4.058   8.140  0.1007 -2.0392 -1.4028
   87CHL1   C24 8906   4.320   3.918   8.275  1.0779  0.0036  0.0627
   87CHL1  H24A 8907   4.287   3.824   8.225 -0.7947  0.2326  0.8087
   87CHL1  H24B 8908   4.426   3.908   8.309  1.0956 -2.1389 -0.4689
   87CHL1   C25 8909   4.238   3.939   8.400 -0.0230  0.4164  0.1080
   87CHL1   H25 8910   4.141   3.981   8.365  0.4697  0.8687 -0.7612
   87CHL1   C26 8911   4.228   3.799   8.460 -0.1595  0.0532 -0.0883
   87CHL1  H26A 8912   4.207   3.804   8.569  0.0416 -0.7136 -0.0065
   87CHL1  H26B 8913   4.146   3.746   8.408  0.6925 -1.4922  0.0799
   87CHL1  H26C 8914   4.322   3.740   8.454  0.3785  0.9983 -1.6232
   87CHL1   C27 8915   4.305   4.040   8.499  0.8769 -0.0033  0.0217
   87CHL1  H27A 8916   4.246   4.038   8.593  1.0641  2.1175  0.2261
   87CHL1  H27B 8917   4.408   4.003   8.521  0.6009 -1.2205 -0.6207
   87CHL1  H27C 8918   4.302   4.141   8.453 -0.2967  0.5140  1.1578
   88CHL1    C3 8919   0.455   2.379   6.836  0.1638 -0.5981 -0.4796
   88CHL1    H3 8920   0.377   2.299   6.842 -0.7182  0.2758  0.0120
   88CHL1    O3 8921   0.455   2.442   6.715  1.3314 -0.0443  0.6303
   88CHL1   H3' 8922   0.365   2.445   6.682  2.5991 -1.9839 -3.7902
   88CHL1    C4 8923   0.400   2.479   6.938  0.6334 -0.0784 -0.8201
   88CHL1   H4A 8924   0.467   2.567   6.946  0.3140  0.3967 -2.7283
   88CHL1   H4B 8925   0.301   2.520   6.910  0.9100 -0.0339 -1.7748
   88CHL1    C5 8926   0.393   2.417   7.073 -0.4041 -0.1686 -1.1033
   88CHL1    C6 8927   0.280   2.403   7.135  0.4451 -0.2242  0.4380
   88CHL1    H6 8928   0.187   2.430   7.083  0.2992  0.7547  1.1731
   88CHL1    C7 8929   0.271   2.350   7.278  0.1973  0.4487  0.3444
   88CHL1   H7A 8930   0.207   2.411   7.345 -0.5714 -2.1131  2.0625
   88CHL1   H7B 8931   0.212   2.256   7.273 -0.8280  1.1052 -0.2890
   88CHL1    C8 8932   0.410   2.341   7.350  0.0198  0.0252  0.5004
   88CHL1    H8 8933   0.452   2.443   7.362  0.7333 -0.0127 -1.3747
   88CHL1   C14 8934   0.390   2.267   7.481 -0.0644 -0.2231 -0.1290
   88CHL1   H14 8935   0.354   2.164   7.459  1.6638 -0.5832 -1.4834
   88CHL1   C15 8936   0.299   2.330   7.582  0.3067 -0.8517 -0.1355
   88CHL1  H15A 8937   0.312   2.440   7.587  0.5048 -0.9224  1.4282
   88CHL1  H15B 8938   0.192   2.313   7.556  0.4971  1.4527 -2.8747
   88CHL1   C16 8939   0.333   2.256   7.712 -0.6749 -0.5797  0.0627
   88CHL1  H16A 8940   0.352   2.339   7.784 -0.1664 -0.4617 -0.2035
   88CHL1  H16B 8941   0.245   2.200   7.750 -0.3202 -0.2420  1.4414
   88CHL1   C17 8942   0.457   2.173   7.683  0.3709  1.0529  0.6929
   88CHL1   H17 8943   0.414   2.077   7.648  0.4862  2.0482 -2.4502
   88CHL1   C13 8944   0.518   2.233   7.554 -0.2110  0.4482 -0.4531
   88CHL1   C18 8945   0.589   2.368   7.598 -0.7393  0.3933 -0.3388
   88CHL1  H18A 8946   0.693   2.343   7.625 -0.6015 -1.4275 -2.3390
   88CHL1  H18B 8947   0.588   2.440   7.514  1.6358  0.3075 -0.5002
   88CHL1  H18C 8948   0.541   2.414   7.688 -0.3419 -2.1927  1.2950
   88CHL1   C12 8949   0.602   2.149   7.457  0.2869  0.3250 -0.4155
   88CHL1  H12A 8950   0.703   2.124   7.496 -0.3117 -1.0690  0.3225
   88CHL1  H12B 8951   0.553   2.053   7.428 -1.5494  1.2725 -0.5887
   88CHL1   C11 8952   0.636   2.231   7.335  0.6761  0.1456  0.8139
   88CHL1  H11A 8953   0.699   2.321   7.352  1.3781  0.3691 -2.4019
   88CHL1  H11B 8954   0.696   2.167   7.267 -0.0711 -1.1989  1.3891
   88CHL1    C9 8955   0.506   2.275   7.257  0.0618  0.7353  0.4762
   88CHL1    H9 8956   0.449   2.188   7.218 -1.9806  2.2600 -0.0955
   88CHL1   C10 8957   0.530   2.367   7.131 -0.3765 -0.1328  0.0076
   88CHL1   C19 8958   0.636   2.471   7.160  0.5228  0.2017 -1.0755
   88CHL1  H19A 8959   0.734   2.420   7.161 -0.3054 -1.5416  1.4775
   88CHL1  H19B 8960   0.638   2.546   7.078 -0.2449 -0.0998 -1.3764
   88CHL1  H19C 8961   0.613   2.531   7.250  0.9158  0.3983 -1.1028
   88CHL1    C1 8962   0.590   2.275   7.021 -0.0239  1.0365 -0.2148
   88CHL1   H1A 8963   0.691   2.232   7.039 -0.4027 -0.7085 -1.8920
   88CHL1   H1B 8964   0.526   2.188   6.997 -0.2277  1.0490  0.2934
   88CHL1    C2 8965   0.596   2.338   6.880  0.4149 -0.5833  0.2563
   88CHL1   H2A 8966   0.638   2.266   6.806  1.5458 -0.8423  1.1120
   88CHL1   H2B 8967   0.662   2.427   6.876  0.7075 -0.8440 -2.0144
   88CHL1   C20 8968   0.544   2.146   7.805 -0.6885  0.0972 -0.2532
   88CHL1   H20 8969   0.623   2.222   7.821  0.9290 -1.7715  1.0477
   88CHL1   C21 8970   0.620   2.016   7.782 -0.6860 -0.1020 -0.4862
   88CHL1  H21A 8971   0.693   1.986   7.860 -0.1099  1.9681 -0.1608
   88CHL1  H21B 8972   0.682   2.032   7.692 -2.6263 -1.6462 -2.2236
   88CHL1  H21C 8973   0.543   1.939   7.759  0.4992 -1.8835  1.2563
   88CHL1   C22 8974   0.468   2.116   7.934 -0.2066  0.2883 -0.2954
   88CHL1  H22A 8975   0.416   2.207   7.969  0.3115 -0.1100  1.6212
   88CHL1  H22B 8976   0.387   2.040   7.923 -1.7942  1.5368  1.9027
   88CHL1   C23 8977   0.549   2.064   8.060  0.2860  0.1963 -0.4661
   88CHL1  H23A 8978   0.590   1.965   8.031 -0.8256 -0.0245 -1.3665
   88CHL1  H23B 8979   0.639   2.129   8.073 -1.5320  2.3630  2.4696
   88CHL1   C24 8980   0.470   2.050   8.179  0.0423  0.6327 -0.5220
   88CHL1  H24A 8981   0.430   2.152   8.200 -2.2552 -0.1508 -0.8069
   88CHL1  H24B 8982   0.386   1.985   8.150 -0.2023 -0.4814  2.3382
   88CHL1   C25 8983   0.535   1.983   8.296 -0.0803 -0.3955 -0.7465
   88CHL1   H25 8984   0.632   2.034   8.316 -0.8050  0.5988  0.3831
   88CHL1   C26 8985   0.454   1.998   8.424  0.3361 -0.6975  0.3233
   88CHL1  H26A 8986   0.427   2.104   8.441 -2.4482 -1.6264  2.3529
   88CHL1  H26B 8987   0.368   1.929   8.417  1.3406 -1.9993  0.3215
   88CHL1  H26C 8988   0.514   1.961   8.510 -0.8494 -1.1206  0.9938
   88CHL1   C27 8989   0.550   1.828   8.279 -0.3932  0.2136  0.3578
   88CHL1  H27A 8990   0.454   1.784   8.246  0.8622 -2.2979 -0.2166
   88CHL1  H27B 8991   0.636   1.800   8.214 -1.9688  0.4702 -1.9648
   88CHL1  H27C 8992   0.583   1.777   8.372 -0.8655  2.1342  1.6515
   89CHL1    C3 8993   3.632   0.627   7.133  0.3486  0.7797  0.1431
   89CHL1    H3 8994   3.734   0.639   7.174  0.3795 -1.1844  0.7657
   89CHL1    O3 8995   3.637   0.628   6.992 -0.0226  0.2183 -0.3203
   89CHL1   H3' 8996   3.553   0.588   6.968  0.2769 -0.1113 -0.8594
   89CHL1    C4 8997   3.593   0.481   7.193 -0.3336  0.3078  0.2020
   89CHL1   H4A 8998   3.498   0.439   7.154 -0.9296  0.4616  1.4536
   89CHL1   H4B 8999   3.676   0.421   7.151  0.5668  1.5739  0.0953
   89CHL1    C5 9000   3.583   0.485   7.340 -0.1319 -0.0972 -0.5843
   89CHL1    C6 9001   3.659   0.399   7.402  0.2986  0.0978 -0.7247
   89CHL1    H6 9002   3.704   0.318   7.343 -0.1982 -0.4677 -0.3460
   89CHL1    C7 9003   3.659   0.381   7.553  0.0921 -0.0213  0.1683
   89CHL1   H7A 9004   3.653   0.272   7.575 -2.5457  0.0175 -0.0279
   89CHL1   H7B 9005   3.756   0.409   7.598  0.4143 -0.0126 -0.5308
   89CHL1    C8 9006   3.541   0.456   7.625 -0.0435 -0.5263  0.2100
   89CHL1    H8 9007   3.448   0.395   7.611 -1.1222  0.8053  1.3447
   89CHL1   C14 9008   3.562   0.456   7.780  0.0493  0.5380  0.1656
   89CHL1   H14 9009   3.653   0.518   7.788 -0.3799  1.0274  1.5797
   89CHL1   C15 9010   3.592   0.324   7.852 -0.3960 -0.2521  0.7914
   89CHL1  H15A 9011   3.532   0.238   7.814  0.1452 -1.4835  2.5638
   89CHL1  H15B 9012   3.700   0.304   7.833  0.2397  3.9504 -1.1881
   89CHL1   C16 9013   3.568   0.360   7.999 -0.5799 -0.2737 -0.1742
   89CHL1  H16A 9014   3.491   0.292   8.041  1.3390 -2.4224  0.0842
   89CHL1  H16B 9015   3.659   0.356   8.063 -2.0914 -0.3710  2.0973
   89CHL1   C17 9016   3.506   0.500   8.005  0.5378 -0.3190 -0.3257
   89CHL1   H17 9017   3.587   0.575   8.011  0.7268 -0.6371  1.5031
   89CHL1   C13 9018   3.459   0.529   7.862  0.3384 -0.2788  0.0778
   89CHL1   C18 9019   3.322   0.449   7.853  0.2317 -0.2390 -0.4854
   89CHL1  H18A 9020   3.254   0.510   7.916  2.0310  0.8100  0.5436
   89CHL1  H18B 9021   3.278   0.444   7.752 -0.9715 -1.7860  0.0823
   89CHL1  H18C 9022   3.333   0.346   7.892  4.6902  0.1516 -0.0967
   89CHL1   C12 9023   3.448   0.674   7.807 -0.4156  0.2417 -0.2680
   89CHL1  H12A 9024   3.373   0.739   7.857 -0.1708  0.2379  0.1054
   89CHL1  H12B 9025   3.548   0.722   7.804  1.0493 -2.5124  0.8410
   89CHL1   C11 9026   3.411   0.670   7.655 -0.2318 -0.3015  0.2240
   89CHL1  H11A 9027   3.309   0.626   7.657 -0.5549  0.4201  0.0069
   89CHL1  H11B 9028   3.391   0.767   7.603 -2.1751  0.2064  1.7913
   89CHL1    C9 9029   3.516   0.597   7.570 -0.4782 -0.5992  0.3352
   89CHL1    H9 9030   3.617   0.642   7.584 -0.8514  0.0896  0.8454
   89CHL1   C10 9031   3.496   0.596   7.411 -0.3117 -0.2233 -0.8424
   89CHL1   C19 9032   3.354   0.541   7.386  1.0963 -0.1590  0.1949
   89CHL1  H19A 9033   3.343   0.446   7.444  1.7189 -0.8841 -0.8366
   89CHL1  H19B 9034   3.276   0.595   7.444  3.7570  2.1865  1.8639
   89CHL1  H19C 9035   3.322   0.533   7.280  0.7872  0.3870  0.2460
   89CHL1    C1 9036   3.528   0.723   7.343 -0.4642  0.3736 -0.0350
   89CHL1   H1A 9037   3.458   0.806   7.367  0.8486  1.5086 -0.0062
   89CHL1   H1B 9038   3.626   0.750   7.388 -2.0272  1.4537  3.0508
   89CHL1    C2 9039   3.533   0.728   7.192 -0.1641  0.1688  0.5795
   89CHL1   H2A 9040   3.575   0.828   7.166  0.7354 -0.1326  0.8326
   89CHL1   H2B 9041   3.430   0.704   7.158 -0.3830  0.7066  0.8638
   89CHL1   C20 9042   3.413   0.522   8.127  0.1093  0.4896 -0.2195
   89CHL1   H20 9043   3.320   0.461   8.117  0.1526  0.3980 -0.0730
   89CHL1   C21 9044   3.372   0.673   8.141  0.3022  0.3583 -0.3718
   89CHL1  H21A 9045   3.345   0.693   8.247  0.4378  0.2525 -0.3179
   89CHL1  H21B 9046   3.300   0.719   8.070 -1.1399  1.0976  1.4558
   89CHL1  H21C 9047   3.458   0.741   8.124 -1.5390  3.6720  2.2745
   89CHL1   C22 9048   3.476   0.469   8.261  0.5986 -0.0836  0.7325
   89CHL1  H22A 9049   3.510   0.365   8.245 -0.2383 -0.3270  0.4643
   89CHL1  H22B 9050   3.568   0.526   8.285  0.4005  1.7345 -2.2622
   89CHL1   C23 9051   3.388   0.454   8.385  0.0901 -0.5456  0.1029
   89CHL1  H23A 9052   3.461   0.453   8.469 -1.3822 -1.0626  1.4318
   89CHL1  H23B 9053   3.335   0.551   8.392  1.2291  0.0500  0.7985
   89CHL1   C24 9054   3.304   0.332   8.391 -0.4096 -0.1674 -0.3489
   89CHL1  H24A 9055   3.244   0.332   8.297 -4.2679  0.0438  1.8659
   89CHL1  H24B 9056   3.347   0.230   8.397  1.0038  0.3573 -1.2041
   89CHL1   C25 9057   3.201   0.338   8.512  0.1404 -1.2040  0.5810
   89CHL1   H25 9058   3.151   0.239   8.508 -0.2949 -0.9588 -0.9341
   89CHL1   C26 9059   3.268   0.346   8.643 -0.2268 -0.1331 -0.1111
   89CHL1  H26A 9060   3.337   0.433   8.651 -1.3595  0.8603 -0.9344
   89CHL1  H26B 9061   3.197   0.367   8.725  1.1494 -0.0777  1.1013
   89CHL1  H26C 9062   3.328   0.256   8.669  1.4979  0.7991 -0.7017
   89CHL1   C27 9063   3.099   0.443   8.490  0.7056 -1.3155 -0.5385
   89CHL1  H27A 9064   3.055   0.449   8.388 -0.0448 -0.8579 -0.1992
   89CHL1  H27B 9065   3.015   0.434   8.562 -0.1329  2.5338 -0.8599
   89CHL1  H27C 9066   3.128   0.549   8.504  1.0606 -1.4287 -0.3917
   90CHL1    C3 9067   3.259   3.248   6.940  0.3203  0.3830  0.5748
   90CHL1    H3 9068   3.334   3.170   6.965  0.6149  0.4275 -0.1572
   90CHL1    O3 9069   3.230   3.271   6.805  0.2331  0.1434 -0.8586
   90CHL1   H3' 9070   3.154   3.329   6.818  1.1108  1.1638 -0.0981
   90CHL1    C4 9071   3.128   3.223   7.018  0.9712  0.3482 -0.4093
   90CHL1   H4A 9072   3.059   3.308   6.999  1.0191  0.4769 -0.0234
   90CHL1   H4B 9073   3.078   3.134   6.974  2.8134 -0.8747 -0.1809
   90CHL1    C5 9074   3.139   3.211   7.169  0.2773  1.1406  0.0284
   90CHL1    C6 9075   3.105   3.097   7.232 -0.2842 -0.4825 -0.0163
   90CHL1    H6 9076   3.082   3.009   7.170  0.4470  0.9725 -2.4877
   90CHL1    C7 9077   3.137   3.068   7.371  0.2134  0.0328 -0.4784
   90CHL1   H7A 9078   3.057   3.009   7.421 -1.2074  1.3538 -1.0964
   90CHL1   H7B 9079   3.218   2.992   7.365 -2.2437 -2.6326 -2.6142
   90CHL1    C8 9080   3.156   3.198   7.454  0.1356  0.0098  0.0417
   90CHL1    H8 9081   3.061   3.256   7.453 -1.3777 -2.2971  1.1384
   90CHL1   C14 9082   3.206   3.159   7.593  0.2750 -0.0665  0.4622
   90CHL1   H14 9083   3.303   3.107   7.583 -0.2922 -0.7473 -2.2885
   90CHL1   C15 9084   3.114   3.061   7.675  0.2019  1.1252 -0.3198
   90CHL1  H15A 9085   3.010   3.098   7.669 -0.4572 -0.6457 -0.4512
   90CHL1  H15B 9086   3.130   2.958   7.636  0.0034  1.6466 -1.8116
   90CHL1   C16 9087   3.175   3.068   7.816  0.0581  0.2814 -0.5066
   90CHL1  H16A 9088   3.091   3.056   7.887 -0.9056  2.1235 -1.2543
   90CHL1  H16B 9089   3.247   2.988   7.839  0.4248  0.7300 -0.0679
   90CHL1   C17 9090   3.259   3.200   7.826  0.1905 -0.1080 -0.7139
   90CHL1   H17 9091   3.360   3.155   7.816  0.3198 -0.1602  0.6434
   90CHL1   C13 9092   3.236   3.275   7.695  1.0394 -0.0158 -0.5632
   90CHL1   C18 9093   3.111   3.367   7.709 -0.6263 -0.2367 -0.1444
   90CHL1  H18A 9094   3.090   3.414   7.610 -2.7395  2.1934  1.3552
   90CHL1  H18B 9095   3.017   3.315   7.737 -1.7225  1.6231 -0.1809
   90CHL1  H18C 9096   3.130   3.461   7.766  0.2829  0.1543 -1.0555
   90CHL1   C12 9097   3.353   3.349   7.632 -0.5317  0.8271  0.3802
   90CHL1  H12A 9098   3.380   3.434   7.697 -0.1101 -1.5663  3.5381
   90CHL1  H12B 9099   3.444   3.287   7.625  0.5373  2.5360 -3.0180
   90CHL1   C11 9100   3.315   3.399   7.487  0.6934 -0.1809  0.8882
   90CHL1  H11A 9101   3.237   3.477   7.486  0.6834 -0.1680 -1.3366
   90CHL1  H11B 9102   3.406   3.441   7.438  1.2361 -2.4305 -0.1730
   90CHL1    C9 9103   3.260   3.288   7.385  0.5287  0.4036 -0.4866
   90CHL1    H9 9104   3.348   3.222   7.369  1.9694  1.8595  1.0444
   90CHL1   C10 9105   3.211   3.326   7.240  0.1755 -0.4603  0.3451
   90CHL1   C19 9106   3.110   3.444   7.261  0.2542 -0.0154  0.1075
   90CHL1  H19A 9107   3.169   3.531   7.296  0.6530 -0.1506 -0.2182
   90CHL1  H19B 9108   3.071   3.474   7.161 -0.8899 -0.8676  0.2834
   90CHL1  H19C 9109   3.025   3.413   7.326 -0.6289 -0.1717 -1.0841
   90CHL1    C1 9110   3.332   3.365   7.142  0.3309 -0.2167 -0.1011
   90CHL1   H1A 9111   3.369   3.464   7.177  0.2374  0.0423 -0.7151
   90CHL1   H1B 9112   3.411   3.294   7.175  1.1814  0.2226 -1.1272
   90CHL1    C2 9113   3.309   3.378   6.992 -0.3770 -0.3497 -0.5595
   90CHL1   H2A 9114   3.406   3.392   6.942  0.5582 -2.5760  0.4616
   90CHL1   H2B 9115   3.241   3.459   6.958 -0.4726 -0.2781 -0.2085
   90CHL1   C20 9116   3.244   3.269   7.963  0.8081 -0.4227 -0.1587
   90CHL1   H20 9117   3.156   3.336   7.971  0.1512 -0.9706 -2.1162
   90CHL1   C21 9118   3.364   3.369   7.985  0.4454 -0.4783  0.5929
   90CHL1  H21A 9119   3.458   3.310   7.974 -0.9146 -2.7999  0.6949
   90CHL1  H21B 9120   3.354   3.422   8.081  3.9214 -0.0143  0.8311
   90CHL1  H21C 9121   3.359   3.446   7.905  0.6346  0.9219  1.8832
   90CHL1   C22 9122   3.223   3.175   8.090 -0.4124 -0.4473 -0.3618
   90CHL1  H22A 9123   3.121   3.134   8.072 -0.4770 -0.7212  0.5368
   90CHL1  H22B 9124   3.305   3.100   8.083 -0.1001 -0.1266 -0.1681
   90CHL1   C23 9125   3.223   3.234   8.227  0.8790  0.1072  0.5721
   90CHL1  H23A 9126   3.220   3.155   8.306  0.9937 -0.4825 -0.0052
   90CHL1  H23B 9127   3.316   3.291   8.247 -0.2557  1.8144  1.2112
   90CHL1   C24 9128   3.099   3.321   8.260 -0.0637 -0.6135 -0.1981
   90CHL1  H24A 9129   3.094   3.407   8.190 -0.5648 -1.2428 -0.9461
   90CHL1  H24B 9130   3.005   3.262   8.252 -0.7826  0.6124 -1.2808
   90CHL1   C25 9131   3.092   3.384   8.404 -0.4304 -0.6235  0.0412
   90CHL1   H25 9132   3.193   3.430   8.407 -0.8928  0.4221 -0.1893
   90CHL1   C26 9133   2.988   3.493   8.414 -0.7079  1.6039  0.0635
   90CHL1  H26A 9134   3.011   3.576   8.344 -0.3220  0.5548 -1.0864
   90CHL1  H26B 9135   2.884   3.457   8.396  0.3766 -0.6002 -2.4952
   90CHL1  H26C 9136   3.005   3.546   8.510  1.7702 -0.1956  0.7235
   90CHL1   C27 9137   3.077   3.281   8.513  0.8019 -1.1420 -0.7241
   90CHL1  H27A 9138   3.160   3.208   8.515  2.0192  0.2187  0.8425
   90CHL1  H27B 9139   3.082   3.328   8.613  0.5469 -0.9030 -0.8202
   90CHL1  H27C 9140   2.983   3.221   8.515 -0.2713  0.5041  0.6236
   91CHL1    C3 9141   4.493   3.130   7.035 -0.0184 -0.1130  0.2065
   91CHL1    H3 9142   4.596   3.127   7.076  1.3213  2.6779 -2.5337
   91CHL1    O3 9143   4.493   3.141   6.892 -0.3644 -0.0767  0.0341
   91CHL1   H3' 9144   4.522   3.231   6.876  0.2805 -0.1881  0.5190
   91CHL1    C4 9145   4.420   2.997   7.065 -0.6852  0.2628 -0.0619
   91CHL1   H4A 9146   4.325   2.988   7.008 -0.5129  1.2713 -0.5305
   91CHL1   H4B 9147   4.481   2.917   7.020  0.5640 -0.0333  2.0372
   91CHL1    C5 9148   4.396   2.967   7.210  0.1978 -0.2574  0.2361
   91CHL1    C6 9149   4.430   2.853   7.268  0.2220  0.2435 -0.5468
   91CHL1    H6 9150   4.477   2.770   7.215  2.5610 -0.0337  1.7621
   91CHL1    C7 9151   4.409   2.814   7.416  0.2444 -0.4144  0.1640
   91CHL1   H7A 9152   4.370   2.711   7.428  0.6679 -0.6595 -0.4750
   91CHL1   H7B 9153   4.507   2.810   7.467  0.4476  1.5498 -0.0098
   91CHL1    C8 9154   4.311   2.915   7.481  0.1945  0.0074  0.3202
   91CHL1    H8 9155   4.206   2.891   7.454  0.1284 -0.2856  0.8279
   91CHL1   C14 9156   4.320   2.909   7.627 -0.1509 -0.4756 -0.3734
   91CHL1   H14 9157   4.419   2.950   7.657 -0.9512  2.9233 -1.8602
   91CHL1   C15 9158   4.312   2.764   7.691 -0.4139  0.4166  0.2632
   91CHL1  H15A 9159   4.233   2.704   7.641  1.4040 -0.0548 -2.2442
   91CHL1  H15B 9160   4.404   2.704   7.679 -1.2739 -0.4830 -2.8841
   91CHL1   C16 9161   4.272   2.795   7.836 -0.2706 -0.5131  0.5721
   91CHL1  H16A 9162   4.177   2.742   7.857 -0.7786  0.3809  0.5537
   91CHL1  H16B 9163   4.357   2.765   7.901  0.5251  1.4083  0.4662
   91CHL1   C17 9164   4.260   2.947   7.843 -0.3711  0.5077 -0.2426
   91CHL1   H17 9165   4.365   2.979   7.865  0.8588 -4.3849  2.3864
   91CHL1   C13 9166   4.224   2.994   7.701 -0.1714  0.3024  0.4228
   91CHL1   C18 9167   4.080   2.952   7.673 -0.3530 -0.1310 -0.4795
   91CHL1  H18A 9168   4.050   2.942   7.566  0.2178  0.1773 -0.6768
   91CHL1  H18B 9169   4.053   2.860   7.728 -0.3327 -0.2575 -0.6793
   91CHL1  H18C 9170   4.013   3.032   7.712  0.6054  1.7087 -2.3765
   91CHL1   C12 9171   4.247   3.141   7.669  0.3047  0.0622  0.1528
   91CHL1  H12A 9172   4.157   3.187   7.713  0.9493 -0.8448  2.6138
   91CHL1  H12B 9173   4.339   3.180   7.719  0.6800 -0.7767  0.1435
   91CHL1   C11 9174   4.231   3.159   7.519 -0.1155 -0.3795 -0.3686
   91CHL1  H11A 9175   4.123   3.146   7.496 -0.6312 -3.3133  3.0056
   91CHL1  H11B 9176   4.268   3.261   7.491 -0.8324 -0.4644 -1.7272
   91CHL1    C9 9177   4.330   3.063   7.441 -0.3799  0.6123  0.0795
   91CHL1    H9 9178   4.433   3.089   7.470  0.1989  0.0874 -1.4214
   91CHL1   C10 9179   4.326   3.075   7.288  0.5649 -0.3990 -0.5326
   91CHL1   C19 9180   4.179   3.091   7.244  0.1892  0.5603 -0.6175
   91CHL1  H19A 9181   4.172   3.096   7.134 -1.6652  0.7551 -0.5173
   91CHL1  H19B 9182   4.125   3.004   7.288  1.3381 -0.4246 -1.0884
   91CHL1  H19C 9183   4.125   3.180   7.281 -0.8677  0.3069 -1.5075
   91CHL1    C1 9184   4.399   3.205   7.254  0.3755 -0.0886  0.0517
   91CHL1   H1A 9185   4.348   3.296   7.291 -0.7254  0.0147 -1.6336
   91CHL1   H1B 9186   4.499   3.190   7.301 -0.2937 -2.5187  0.8907
   91CHL1    C2 9187   4.420   3.239   7.106  0.5281  0.0533  0.4590
   91CHL1   H2A 9188   4.481   3.331   7.094 -0.2276  0.7355  1.6552
   91CHL1   H2B 9189   4.324   3.263   7.055  0.3182  2.3119  1.7711
   91CHL1   C20 9190   4.167   2.992   7.962 -0.3163 -0.3072  0.4610
   91CHL1   H20 9191   4.061   2.974   7.931 -1.3714  4.3802  0.5199
   91CHL1   C21 9192   4.186   3.137   7.986 -0.3730  0.0961  0.2778
   91CHL1  H21A 9193   4.294   3.156   7.968 -0.8859  1.2393 -2.0978
   91CHL1  H21B 9194   4.157   3.165   8.089  2.0769 -0.7959  1.2706
   91CHL1  H21C 9195   4.129   3.197   7.911 -0.9412 -0.2442  0.4266
   91CHL1   C22 9196   4.189   2.919   8.096  0.6642  0.2165  0.0366
   91CHL1  H22A 9197   4.174   2.809   8.089  0.8773  0.0864  1.3542
   91CHL1  H22B 9198   4.295   2.945   8.117  1.4046 -0.2509 -2.6859
   91CHL1   C23 9199   4.089   2.971   8.214  0.5213 -0.1587 -0.4859
   91CHL1  H23A 9200   4.005   3.031   8.174 -2.7876 -2.5897  2.2122
   91CHL1  H23B 9201   4.022   2.889   8.246 -2.8195  1.1475 -3.4523
   91CHL1   C24 9202   4.167   3.032   8.335 -0.1704  0.3888 -0.4643
   91CHL1  H24A 9203   4.251   3.098   8.306  0.3832  0.4657  1.1655
   91CHL1  H24B 9204   4.095   3.089   8.397  0.2622 -0.3655  0.7912
   91CHL1   C25 9205   4.231   2.928   8.425 -0.3919  0.0361  1.0168
   91CHL1   H25 9206   4.268   2.845   8.360  0.8856 -0.7823  2.7072
   91CHL1   C26 9207   4.354   2.985   8.497 -0.3425 -0.3166 -0.7424
   91CHL1  H26A 9208   4.396   2.913   8.571 -1.2483  0.4415  0.5540
   91CHL1  H26B 9209   4.417   3.036   8.422 -0.1381  1.4912  0.5789
   91CHL1  H26C 9210   4.321   3.074   8.556 -1.4770  1.4621 -3.8093
   91CHL1   C27 9211   4.127   2.891   8.529  0.1670  0.0940  0.4625
   91CHL1  H27A 9212   4.156   2.801   8.588  0.5294 -0.2578 -0.2426
   91CHL1  H27B 9213   4.122   2.973   8.603  0.5293  0.3689  0.1854
   91CHL1  H27C 9214   4.023   2.880   8.489 -0.2527 -2.1726  1.9788
   92CHL1    C3 9215   1.133   2.670   6.665 -0.0700  0.3030 -0.2216
   92CHL1    H3 9216   1.219   2.739   6.676  1.3801 -1.4938  0.1508
   92CHL1    O3 9217   1.151   2.628   6.525 -0.4640  0.5808 -0.5869
   92CHL1   H3' 9218   1.109   2.543   6.507 -1.2732  0.8581 -0.0044
   92CHL1    C4 9219   1.163   2.556   6.761 -0.8710 -0.1295  0.0607
   92CHL1   H4A 9220   1.090   2.474   6.743 -0.6275 -0.0950 -1.1429
   92CHL1   H4B 9221   1.265   2.519   6.738 -1.5084 -1.5248 -0.6674
   92CHL1    C5 9222   1.134   2.600   6.907 -1.0049  1.3157  0.2738
   92CHL1    C6 9223   1.232   2.572   6.994 -0.1439 -0.6562  0.3711
   92CHL1    H6 9224   1.320   2.513   6.962 -1.7218 -2.1526 -1.4449
   92CHL1    C7 9225   1.217   2.594   7.144  0.2673 -0.5350  0.7843
   92CHL1   H7A 9226   1.235   2.499   7.199  0.9927 -0.8374  0.0398
   92CHL1   H7B 9227   1.285   2.678   7.168  0.9769 -0.6591 -0.6825
   92CHL1    C8 9228   1.070   2.638   7.180 -0.0679  0.3087 -0.5528
   92CHL1    H8 9229   1.006   2.548   7.185  0.7675 -0.2570  0.2347
   92CHL1   C14 9230   1.082   2.717   7.309 -0.1482  0.1785 -0.5112
   92CHL1   H14 9231   1.142   2.807   7.288 -0.3948  0.1910 -1.1644
   92CHL1   C15 9232   1.170   2.665   7.428  0.0744  0.5910  0.0333
   92CHL1  H15A 9233   1.145   2.558   7.449 -1.2741  0.8576 -0.1336
   92CHL1  H15B 9234   1.275   2.668   7.393  0.3998 -0.4175  0.8644
   92CHL1   C16 9235   1.134   2.757   7.545  0.0508 -0.1456  0.6054
   92CHL1  H16A 9236   1.115   2.690   7.632 -1.0960 -2.2963 -1.1947
   92CHL1  H16B 9237   1.218   2.825   7.569  0.1963 -0.6827  1.7162
   92CHL1   C17 9238   1.009   2.836   7.500 -0.3495  0.8450  0.1382
   92CHL1   H17 9239   1.047   2.935   7.468 -1.1676  1.4629  0.9789
   92CHL1   C13 9240   0.954   2.762   7.376  0.1265  0.6127 -0.2994
   92CHL1   C18 9241   0.876   2.639   7.428 -0.8353  0.8899  0.5101
   92CHL1  H18A 9242   0.928   2.577   7.505 -1.3144  1.5742  1.4012
   92CHL1  H18B 9243   0.777   2.662   7.472  0.4013  4.1692  1.8809
   92CHL1  H18C 9244   0.846   2.574   7.343 -2.4807  1.6194  0.5129
   92CHL1   C12 9245   0.869   2.844   7.270  0.0747 -0.5556 -0.6841
   92CHL1  H12A 9246   0.768   2.873   7.307  1.5980 -0.0545  3.6099
   92CHL1  H12B 9247   0.919   2.943   7.258  0.6899 -0.9938 -1.8358
   92CHL1   C11 9248   0.860   2.775   7.129 -0.5974  0.1575  0.3962
   92CHL1  H11A 9249   0.798   2.686   7.153 -1.3544  1.1465  2.2677
   92CHL1  H11B 9250   0.809   2.840   7.055 -2.9289 -0.9586  0.9381
   92CHL1    C9 9251   1.004   2.726   7.075 -0.1327 -0.3332  0.2644
   92CHL1    H9 9252   1.064   2.818   7.063 -1.1357  0.2648 -0.3671
   92CHL1   C10 9253   1.002   2.665   6.933 -0.6342 -0.7189  0.5704
   92CHL1   C19 9254   0.895   2.555   6.926  0.2825  0.1086 -0.3113
   92CHL1  H19A 9255   0.911   2.481   7.007 -0.8197  0.5360  0.3277
   92CHL1  H19B 9256   0.792   2.597   6.934 -0.5063 -1.4948 -1.3235
   92CHL1  H19C 9257   0.898   2.499   6.830 -1.1496  0.6545 -0.7044
   92CHL1    C1 9258   0.972   2.773   6.821  0.0522 -0.6966  0.0301
   92CHL1   H1A 9259   0.864   2.796   6.833 -0.2725 -0.9757 -1.9701
   92CHL1   H1B 9260   1.038   2.858   6.849  0.4507 -0.7905 -0.6099
   92CHL1    C2 9261   0.993   2.715   6.680  0.9254  0.4109  0.0276
   92CHL1   H2A 9262   0.965   2.798   6.613 -0.7599  0.0988  0.3099
   92CHL1   H2B 9263   0.916   2.637   6.662  2.2016 -1.2778  1.4329
   92CHL1   C20 9264   0.910   2.856   7.619 -0.3554 -0.1606 -0.5371
   92CHL1   H20 9265   0.886   2.752   7.650  0.2244  0.1640  1.0875
   92CHL1   C21 9266   0.786   2.935   7.580 -0.0646  0.1887 -1.0232
   92CHL1  H21A 9267   0.710   2.881   7.521  0.2775 -3.5037  1.5593
   92CHL1  H21B 9268   0.803   3.040   7.548  0.2292  1.4631  2.7766
   92CHL1  H21C 9269   0.723   2.945   7.671  0.7584 -0.1725 -0.3988
   92CHL1   C22 9270   0.988   2.921   7.742  0.5423 -0.4848  0.1105
   92CHL1  H22A 9271   0.907   2.928   7.817  2.3253 -1.2976  2.2164
   92CHL1  H22B 9272   1.051   2.843   7.789  1.3207  1.0500  1.6890
   92CHL1   C23 9273   1.073   3.050   7.723  0.0854 -1.0704  0.2763
   92CHL1  H23A 9274   1.151   3.033   7.647 -0.6186 -1.3478 -0.3985
   92CHL1  H23B 9275   1.012   3.136   7.688  1.1746 -1.0075 -1.5588
   92CHL1   C24 9276   1.139   3.086   7.858 -0.2870 -0.3400  0.9909
   92CHL1  H24A 9277   1.068   3.092   7.943  0.2508  0.8048  1.3810
   92CHL1  H24B 9278   1.225   3.016   7.869 -0.2657 -0.4169  0.3685
   92CHL1   C25 9279   1.208   3.224   7.846  0.1003  0.3978 -0.5701
   92CHL1   H25 9280   1.276   3.225   7.758  1.2241 -0.0283  0.2712
   92CHL1   C26 9281   1.102   3.340   7.854  0.2027 -0.0091 -0.1233
   92CHL1  H26A 9282   1.045   3.336   7.949 -1.6124 -1.3543 -1.1835
   92CHL1  H26B 9283   1.149   3.440   7.846 -0.6556  0.4621  0.5655
   92CHL1  H26C 9284   1.015   3.326   7.786 -0.3300  1.0038  0.3299
   92CHL1   C27 9285   1.293   3.244   7.976  0.0466 -0.5075 -0.1572
   92CHL1  H27A 9286   1.387   3.185   7.981  0.1419 -0.5287 -1.5828
   92CHL1  H27B 9287   1.329   3.349   7.974  0.1690 -0.5102  1.1064
   92CHL1  H27C 9288   1.221   3.234   8.059 -1.4718  1.4446 -1.1424
   93CHL1    C3 9289   4.568   2.108   6.993  0.5799 -0.7654 -0.1653
   93CHL1    H3 9290   4.636   2.187   7.031 -0.4189 -0.7195  1.6355
   93CHL1    O3 9291   4.525   2.135   6.865 -0.4930 -0.2070 -0.5492
   93CHL1   H3' 9292   4.447   2.079   6.859  0.4055 -1.7154  0.8597
   93CHL1    C4 9293   4.635   1.972   7.000  0.1323 -0.3838  0.1198
   93CHL1   H4A 9294   4.555   1.898   6.981 -0.5932 -0.0090  1.6125
   93CHL1   H4B 9295   4.713   1.960   6.921 -1.3745 -0.0628 -1.4791
   93CHL1    C5 9296   4.690   1.950   7.138 -0.5735  0.7062 -0.4137
   93CHL1    C6 9297   4.820   1.934   7.156 -0.5376  0.4039 -0.9743
   93CHL1    H6 9298   4.879   1.913   7.066  2.3314 -0.3396  0.9218
   93CHL1    C7 9299   4.887   1.924   7.291 -0.6169  0.4328 -0.5579
   93CHL1   H7A 9300   4.955   1.837   7.299 -0.9342  0.3059  1.2800
   93CHL1   H7B 9301   4.943   2.015   7.323 -1.6660  0.4950  1.2131
   93CHL1    C8 9302   4.784   1.895   7.410 -0.5642  0.4304 -0.4755
   93CHL1    H8 9303   4.758   1.787   7.405  3.0268 -0.6130  0.6573
   93CHL1   C14 9304   4.843   1.926   7.547  0.2382 -1.2443  0.0328
   93CHL1   H14 9305   4.867   2.035   7.549 -1.1827 -0.9252  0.9383
   93CHL1   C15 9306   4.975   1.853   7.593 -0.2192  0.3992 -0.5073
   93CHL1  H15A 9307   4.973   1.747   7.561 -0.3343  0.8339 -2.0021
   93CHL1  H15B 9308   5.070   1.897   7.556 -1.2893  1.5623 -1.9692
   93CHL1   C16 9309   4.975   1.872   7.748  0.2309  0.5408 -0.0370
   93CHL1  H16A 9310   4.975   1.773   7.799  0.8973  0.4170 -0.2623
   93CHL1  H16B 9311   5.067   1.928   7.774  2.3473 -1.7700 -2.0598
   93CHL1   C17 9312   4.853   1.951   7.781 -0.0348  0.7246 -0.9104
   93CHL1   H17 9313   4.877   2.059   7.771  1.6648  0.4487 -0.0933
   93CHL1   C13 9314   4.754   1.912   7.670 -0.4400  0.1559  0.4513
   93CHL1   C18 9315   4.708   1.768   7.706 -0.0021 -0.0045  0.6837
   93CHL1  H18A 9316   4.652   1.761   7.801 -1.6367 -2.0278 -0.3503
   93CHL1  H18B 9317   4.627   1.743   7.634  3.3074  0.3438 -3.5854
   93CHL1  H18C 9318   4.785   1.689   7.693 -0.2402 -0.2132  0.5351
   93CHL1   C12 9319   4.641   2.001   7.639  0.1368 -0.1469 -0.5594
   93CHL1  H12A 9320   4.565   1.991   7.720  1.0261  1.1662  0.4836
   93CHL1  H12B 9321   4.682   2.104   7.639 -0.3103  0.0363 -1.0378
   93CHL1   C11 9322   4.570   1.985   7.502 -0.6072  0.5180  0.6542
   93CHL1  H11A 9323   4.528   1.882   7.513  0.4794  0.0810  0.8820
   93CHL1  H11B 9324   4.489   2.060   7.491 -1.0951 -0.1256 -0.3104
   93CHL1    C9 9325   4.664   1.985   7.383 -0.0069 -0.1155 -0.4249
   93CHL1    H9 9326   4.699   2.090   7.381 -2.0934  0.7046  1.3651
   93CHL1   C10 9327   4.590   1.965   7.252  0.0272 -0.6536 -0.2447
   93CHL1   C19 9328   4.511   1.831   7.256  0.3739  0.1024 -0.3184
   93CHL1  H19A 9329   4.468   1.800   7.158  0.4878  0.1694 -0.3909
   93CHL1  H19B 9330   4.576   1.744   7.279  0.1574 -0.3416 -1.3174
   93CHL1  H19C 9331   4.427   1.843   7.327 -0.3956  1.3635 -1.3722
   93CHL1    C1 9332   4.491   2.082   7.230  0.3846 -0.5987  0.0592
   93CHL1   H1A 9333   4.409   2.067   7.303 -3.3836 -0.5939 -3.7564
   93CHL1   H1B 9334   4.548   2.176   7.249 -3.0709  1.5389  0.7816
   93CHL1    C2 9335   4.447   2.098   7.086  0.4091 -0.2207  0.6042
   93CHL1   H2A 9336   4.383   2.185   7.063  2.2290  0.2979 -3.3917
   93CHL1   H2B 9337   4.382   2.009   7.069  1.8020 -1.0726 -0.4574
   93CHL1   C20 9338   4.803   1.943   7.936  0.0035 -0.0249  0.3512
   93CHL1   H20 9339   4.794   1.836   7.962  1.4038 -0.0162  0.9511
   93CHL1   C21 9340   4.670   2.005   7.954  0.6006 -0.0555 -0.2782
   93CHL1  H21A 9341   4.642   2.036   8.057  0.4762 -2.3456  0.4287
   93CHL1  H21B 9342   4.590   1.937   7.918  0.1875 -0.5550  1.5168
   93CHL1  H21C 9343   4.665   2.092   7.884  0.5837  1.0006  0.9928
   93CHL1   C22 9344   4.914   1.990   8.032 -0.3039  0.0699 -0.4840
   93CHL1  H22A 9345   5.013   1.942   8.013  0.1192  1.4964 -2.1047
   93CHL1  H22B 9346   4.941   2.097   8.020  2.3663 -0.2742  1.3679
   93CHL1   C23 9347   4.893   1.965   8.183 -0.2288  0.1018  0.7036
   93CHL1  H23A 9348   4.978   2.023   8.226  1.2950 -0.3385 -1.5668
   93CHL1  H23B 9349   4.797   2.012   8.213  0.8774  2.1763  1.2907
   93CHL1   C24 9350   4.884   1.813   8.225 -0.9322 -0.5193  0.1041
   93CHL1  H24A 9351   4.846   1.795   8.328  0.2362  0.3594  0.7106
   93CHL1  H24B 9352   4.803   1.773   8.161  0.6105 -0.9147 -1.6693
   93CHL1   C25 9353   5.011   1.728   8.198  0.1050  0.8466 -0.1912
   93CHL1   H25 9354   5.011   1.705   8.089  0.5713  2.2427 -0.5069
   93CHL1   C26 9355   5.135   1.806   8.241 -0.2572 -0.2909 -0.2571
   93CHL1  H26A 9356   5.224   1.746   8.214 -1.5241 -2.1069 -0.5529
   93CHL1  H26B 9357   5.142   1.899   8.180 -1.3430  0.1507  0.2627
   93CHL1  H26C 9358   5.143   1.837   8.347 -0.1557 -1.0899 -0.0280
   93CHL1   C27 9359   4.991   1.596   8.278 -0.2144 -0.2898 -0.1482
   93CHL1  H27A 9360   4.900   1.537   8.253 -0.7595  0.8146 -0.8184
   93CHL1  H27B 9361   5.083   1.537   8.255  0.6744  0.3524  1.5853
   93CHL1  H27C 9362   5.004   1.609   8.387 -2.4139 -2.0026  0.3877
   94CHL1    C3 9363   1.851   4.523   6.903 -0.2590 -0.2762 -0.2173
   94CHL1    H3 9364   1.958   4.512   6.930  0.0251  0.1274 -1.1185
   94CHL1    O3 9365   1.844   4.539   6.763 -0.2302  0.1953  0.3477
   94CHL1   H3' 9366   1.752   4.527   6.741 -0.4203 -1.7488  1.9914
   94CHL1    C4 9367   1.786   4.400   6.956  0.0658  0.1691  0.1930
   94CHL1   H4A 9368   1.681   4.410   6.920 -0.3122 -1.6235  0.6884
   94CHL1   H4B 9369   1.815   4.307   6.902 -0.2525  0.5269 -0.6181
   94CHL1    C5 9370   1.789   4.385   7.107  0.0493 -0.4719  0.4219
   94CHL1    C6 9371   1.825   4.272   7.172  0.6925 -0.7480 -0.0784
   94CHL1    H6 9372   1.852   4.195   7.099  1.3214  0.1604 -0.8369
   94CHL1    C7 9373   1.840   4.261   7.320 -0.2285  0.7296  0.3243
   94CHL1   H7A 9374   1.791   4.168   7.356  0.0584  0.7471  0.7675
   94CHL1   H7B 9375   1.949   4.266   7.340  0.3838 -0.0134 -2.4586
   94CHL1    C8 9376   1.776   4.371   7.399 -0.4123  0.0649  0.0851
   94CHL1    H8 9377   1.666   4.358   7.389 -0.3700 -0.8968  0.7049
   94CHL1   C14 9378   1.824   4.355   7.544  0.5537 -0.6291  0.1924
   94CHL1   H14 9379   1.933   4.370   7.535  0.3075  0.6072 -1.0352
   94CHL1   C15 9380   1.806   4.216   7.611 -0.1630 -0.8138 -1.2736
   94CHL1  H15A 9381   1.709   4.162   7.606 -0.1799 -1.2925  1.9760
   94CHL1  H15B 9382   1.894   4.156   7.581  2.2948  2.1302 -0.5283
   94CHL1   C16 9383   1.823   4.255   7.761 -0.3921  0.3211 -0.0665
   94CHL1  H16A 9384   1.737   4.222   7.824  0.2714 -0.3501  0.5013
   94CHL1  H16B 9385   1.908   4.202   7.808 -1.0802  0.9157  1.9757
   94CHL1   C17 9386   1.840   4.408   7.768 -0.1586 -0.5013 -0.2234
   94CHL1   H17 9387   1.945   4.443   7.759 -0.1086 -0.7339 -0.5423
   94CHL1   C13 9388   1.772   4.457   7.640  0.4748 -0.4936  0.5798
   94CHL1   C18 9389   1.617   4.449   7.662 -0.1742  0.3834  0.7619
   94CHL1  H18A 9390   1.558   4.457   7.568  0.6366  0.7048  0.2695
   94CHL1  H18B 9391   1.587   4.348   7.697 -0.9009 -0.7052 -2.5988
   94CHL1  H18C 9392   1.585   4.526   7.734 -0.5677  0.2907  0.6891
   94CHL1   C12 9393   1.804   4.593   7.585  0.1985  0.2837 -0.2723
   94CHL1  H12A 9394   1.752   4.666   7.650 -2.0924  0.1509 -1.8417
   94CHL1  H12B 9395   1.915   4.597   7.591  0.1213  0.8421  1.1431
   94CHL1   C11 9396   1.764   4.614   7.433 -0.5882 -0.6713 -0.0078
   94CHL1  H11A 9397   1.653   4.605   7.427 -0.6108 -1.0810  0.7935
   94CHL1  H11B 9398   1.817   4.709   7.413  3.7546 -2.3619  2.0296
   94CHL1    C9 9399   1.820   4.503   7.341 -0.0462 -0.3595 -0.2714
   94CHL1    H9 9400   1.931   4.502   7.338  0.0120  0.1536  1.2491
   94CHL1   C10 9401   1.761   4.514   7.191  0.3012 -0.0302  0.0103
   94CHL1   C19 9402   1.603   4.524   7.178 -0.4379 -0.3462 -0.7921
   94CHL1  H19A 9403   1.572   4.509   7.073 -1.0684 -0.1468 -0.6413
   94CHL1  H19B 9404   1.542   4.447   7.231 -2.2724  1.0595 -0.7657
   94CHL1  H19C 9405   1.570   4.623   7.216 -2.2384 -1.3551  0.4648
   94CHL1    C1 9406   1.820   4.637   7.122  0.3324  0.2389 -1.1766
   94CHL1   H1A 9407   1.789   4.728   7.178 -0.5075 -0.8182  0.1254
   94CHL1   H1B 9408   1.931   4.625   7.126  0.1291 -1.5172  2.4341
   94CHL1    C2 9409   1.797   4.646   6.969  0.2358  0.1587 -0.0043
   94CHL1   H2A 9410   1.843   4.742   6.937  0.4974 -0.7544 -2.6463
   94CHL1   H2B 9411   1.687   4.659   6.958  0.2757  0.4794 -0.0484
   94CHL1   C20 9412   1.798   4.472   7.902 -0.3561  0.1043  0.2580
   94CHL1   H20 9413   1.688   4.457   7.915 -0.1850 -2.3629 -0.6833
   94CHL1   C21 9414   1.823   4.622   7.913 -0.2216  0.1374  0.6597
   94CHL1  H21A 9415   1.929   4.648   7.892 -0.3415  0.0025 -0.1364
   94CHL1  H21B 9416   1.791   4.643   8.017 -1.1201  1.3878  0.1450
   94CHL1  H21C 9417   1.758   4.683   7.847  0.5553  0.0135 -0.2413
   94CHL1   C22 9418   1.877   4.415   8.030 -0.0901  0.0631  0.3683
   94CHL1  H22A 9419   1.893   4.307   8.012  2.3741  0.5830 -1.0260
   94CHL1  H22B 9420   1.981   4.452   8.012  0.4155 -1.6816 -0.4573
   94CHL1   C23 9421   1.819   4.433   8.173  0.6387 -1.0190 -0.3152
   94CHL1  H23A 9422   1.895   4.408   8.251  1.5448 -4.1806 -2.0216
   94CHL1  H23B 9423   1.811   4.542   8.188  1.0596 -0.6261 -2.6067
   94CHL1   C24 9424   1.674   4.374   8.195 -0.0654  0.5603  0.0620
   94CHL1  H24A 9425   1.619   4.415   8.108  0.8912  1.4181 -0.1620
   94CHL1  H24B 9426   1.671   4.263   8.196  0.1920  0.5518 -0.1459
   94CHL1   C25 9427   1.608   4.413   8.332 -0.9132  0.3183  0.6794
   94CHL1   H25 9428   1.512   4.357   8.335 -0.7885  0.1122  0.8261
   94CHL1   C26 9429   1.685   4.357   8.456  0.2725 -0.3805 -0.0353
   94CHL1  H26A 9430   1.655   4.252   8.479 -0.2121  0.0646  1.4373
   94CHL1  H26B 9431   1.794   4.348   8.440  0.1164 -1.2859 -0.7393
   94CHL1  H26C 9432   1.665   4.408   8.552  1.8634  1.4736 -0.6425
   94CHL1   C27 9433   1.574   4.569   8.341  0.5210  0.1304 -0.1632
   94CHL1  H27A 9434   1.500   4.591   8.261  0.1213 -1.1910 -0.1826
   94CHL1  H27B 9435   1.549   4.608   8.442 -2.8225  0.1918 -0.8802
   94CHL1  H27C 9436   1.672   4.618   8.321  1.3012 -0.8770  1.0429
   95CHL1    C3 9437   2.284   4.136   6.636  0.5242  0.0197 -0.3727
   95CHL1    H3 9438   2.386   4.181   6.626 -0.2224  1.4600 -2.1336
   95CHL1    O3 9439   2.238   4.086   6.514 -0.1973 -0.4245 -0.1645
   95CHL1   H3' 9440   2.182   4.011   6.537  1.9601 -1.2688  2.8772
   95CHL1    C4 9441   2.307   4.002   6.711  1.0770  0.7498 -0.3154
   95CHL1   H4A 9442   2.211   3.945   6.713  1.9221 -0.7032  0.8516
   95CHL1   H4B 9443   2.376   3.931   6.660 -0.7163 -1.0743 -0.3356
   95CHL1    C5 9444   2.330   4.022   6.861 -0.2292 -0.6919 -0.0617
   95CHL1    C6 9445   2.435   3.971   6.919 -0.2411 -0.0452  1.3085
   95CHL1    H6 9446   2.499   3.909   6.854 -0.2123  2.0937 -0.8700
   95CHL1    C7 9447   2.484   3.997   7.055  0.3309  0.1632  0.3407
   95CHL1   H7A 9448   2.521   3.903   7.102  0.6626  0.2136  0.1789
   95CHL1   H7B 9449   2.577   4.057   7.053  0.9908 -0.8751 -0.7422
   95CHL1    C8 9450   2.363   4.052   7.141 -0.5848  0.6571 -0.1890
   95CHL1    H8 9451   2.292   3.969   7.158  0.6154 -0.3397  0.0924
   95CHL1   C14 9452   2.414   4.099   7.274 -0.1086 -0.1788  0.0758
   95CHL1   H14 9453   2.484   4.183   7.258 -0.9299  0.5672  0.3120
   95CHL1   C15 9454   2.494   3.994   7.348  0.3534  0.0613  0.1144
   95CHL1  H15A 9455   2.445   3.895   7.356 -2.1756  1.4176  4.2928
   95CHL1  H15B 9456   2.591   3.992   7.294  0.4325 -1.4289  0.2606
   95CHL1   C16 9457   2.499   4.058   7.497 -0.5122  0.5171  0.1271
   95CHL1  H16A 9458   2.464   3.978   7.566  0.0471  0.1059 -0.0489
   95CHL1  H16B 9459   2.602   4.090   7.526 -0.4121  0.1905  0.1416
   95CHL1   C17 9460   2.397   4.171   7.497 -0.0826  0.2193  0.4960
   95CHL1   H17 9461   2.451   4.265   7.470 -0.9872  0.1153 -1.9501
   95CHL1   C13 9462   2.314   4.151   7.370 -0.5623  0.0762 -0.3657
   95CHL1   C18 9463   2.202   4.047   7.396 -0.1214 -0.2927 -0.6852
   95CHL1  H18A 9464   2.154   4.030   7.298  1.3051  0.0483 -1.4683
   95CHL1  H18B 9465   2.229   3.952   7.447  0.5982 -0.4508 -1.3410
   95CHL1  H18C 9466   2.127   4.092   7.464 -0.4143 -1.5419 -0.1539
   95CHL1   C12 9467   2.262   4.279   7.297  0.1311  0.1187  0.6829
   95CHL1  H12A 9468   2.185   4.331   7.358  0.6536  0.2708  1.2223
   95CHL1  H12B 9469   2.345   4.353   7.295  0.5066 -0.3173 -0.5688
   95CHL1   C11 9470   2.198   4.242   7.163 -0.0816  0.2253 -0.4142
   95CHL1  H11A 9471   2.106   4.190   7.198  0.1045 -0.0140 -0.2829
   95CHL1  H11B 9472   2.154   4.330   7.110 -2.7006 -0.6945  0.0935
   95CHL1    C9 9473   2.292   4.165   7.070  1.0750 -0.1344  0.2286
   95CHL1    H9 9474   2.375   4.232   7.042 -0.2222  1.0362 -0.9959
   95CHL1   C10 9475   2.237   4.125   6.928 -0.5274  0.4865  0.2129
   95CHL1   C19 9476   2.099   4.057   6.949  0.4069  0.0866 -0.0928
   95CHL1  H19A 9477   2.021   4.127   6.987  0.2563 -0.3831  0.4683
   95CHL1  H19B 9478   2.063   4.010   6.855  1.7655 -0.9379 -0.1286
   95CHL1  H19C 9479   2.113   3.974   7.021  2.4378  0.2688 -0.2246
   95CHL1    C1 9480   2.203   4.253   6.850  0.5237 -0.4702  0.3870
   95CHL1   H1A 9481   2.123   4.308   6.902  0.2747 -1.5205  1.1420
   95CHL1   H1B 9482   2.286   4.327   6.851 -1.7855  2.3077 -0.5406
   95CHL1    C2 9483   2.179   4.232   6.702  0.2712 -0.1077  0.1555
   95CHL1   H2A 9484   2.186   4.327   6.645 -0.6358 -0.2879 -0.2746
   95CHL1   H2B 9485   2.077   4.191   6.685 -0.8620  2.2846  0.7555
   95CHL1   C20 9486   2.314   4.192   7.625 -0.0396  0.4659  0.2857
   95CHL1   H20 9487   2.236   4.113   7.638 -1.4700  2.1164  2.4587
   95CHL1   C21 9488   2.233   4.324   7.605 -0.3675  0.7091  0.1032
   95CHL1  H21A 9489   2.218   4.371   7.704 -0.5915 -1.1860  1.0218
   95CHL1  H21B 9490   2.137   4.308   7.551  0.6230 -2.4637 -0.9677
   95CHL1  H21C 9491   2.287   4.391   7.535 -2.7784 -0.2845 -2.9807
   95CHL1   C22 9492   2.399   4.181   7.755  0.0046 -0.0493  0.5129
   95CHL1  H22A 9493   2.482   4.108   7.751  1.5800  1.6722  0.2828
   95CHL1  H22B 9494   2.447   4.281   7.757 -0.0590 -0.0240  0.8656
   95CHL1   C23 9495   2.315   4.164   7.879 -0.0212 -0.1388 -0.5583
   95CHL1  H23A 9496   2.249   4.251   7.901  1.2112  0.1890  2.2015
   95CHL1  H23B 9497   2.247   4.078   7.859 -1.3356  0.8254 -0.3612
   95CHL1   C24 9498   2.408   4.137   8.008  0.5974  0.4208  0.1765
   95CHL1  H24A 9499   2.453   4.037   7.994 -0.9619 -0.2712 -0.1981
   95CHL1  H24B 9500   2.483   4.219   8.004  1.0166  0.0083 -0.8764
   95CHL1   C25 9501   2.332   4.137   8.147  0.4475  0.9051  0.2380
   95CHL1   H25 9502   2.240   4.075   8.140  1.5415 -0.8099  0.6815
   95CHL1   C26 9503   2.423   4.083   8.247  0.1184 -0.3189  0.0096
   95CHL1  H26A 9504   2.450   3.982   8.210  1.3781  0.6129 -1.8111
   95CHL1  H26B 9505   2.513   4.148   8.248 -0.6927  0.8274  0.0723
   95CHL1  H26C 9506   2.371   4.089   8.345 -0.0746 -0.5971 -0.0765
   95CHL1   C27 9507   2.281   4.276   8.198 -0.6649 -0.6154 -0.5528
   95CHL1  H27A 9508   2.225   4.335   8.122 -1.9170  0.9664  1.4853
   95CHL1  H27B 9509   2.206   4.263   8.279  0.8879 -0.3232  0.9956
   95CHL1  H27C 9510   2.367   4.340   8.225 -1.8281  0.9006 -0.3042
   96CHL1    C3 9511   2.736   2.974   6.696 -0.0362  1.0074  0.6300
   96CHL1    H3 9512   2.816   2.904   6.731 -0.6608  0.4319  0.9366
   96CHL1    O3 9513   2.727   2.974   6.554  0.2824  0.2334 -0.0833
   96CHL1   H3' 9514   2.640   3.009   6.533 -0.6838 -2.8230 -1.8011
   96CHL1    C4 9515   2.598   2.946   6.761 -0.3981 -0.9391  0.2124
   96CHL1   H4A 9516   2.518   3.002   6.709  0.0402 -0.6921 -0.1985
   96CHL1   H4B 9517   2.570   2.842   6.733 -0.2527 -1.4268  1.7798
   96CHL1    C5 9518   2.590   2.965   6.909 -0.1188 -0.4624 -0.7344
   96CHL1    C6 9519   2.546   2.868   6.995 -0.3829  0.0155 -0.1572
   96CHL1    H6 9520   2.509   2.775   6.949 -0.9872 -1.5254  3.1502
   96CHL1    C7 9521   2.538   2.889   7.142 -0.0176  0.2158 -0.9311
   96CHL1   H7A 9522   2.434   2.873   7.177 -0.4535  2.8260 -0.8291
   96CHL1   H7B 9523   2.603   2.815   7.192 -0.8968 -0.5368 -0.8838
   96CHL1    C8 9524   2.574   3.026   7.197  0.1227 -0.0413  1.1824
   96CHL1    H8 9525   2.494   3.100   7.178  0.0604 -0.7430 -1.6696
   96CHL1   C14 9526   2.609   3.016   7.343  0.8092 -0.2679  0.2757
   96CHL1   H14 9527   2.707   2.966   7.347  0.3784 -1.0258  3.0049
   96CHL1   C15 9528   2.511   2.942   7.434 -0.2612  0.1699  0.3846
   96CHL1  H15A 9529   2.405   2.968   7.413  0.1787 -0.0241 -2.3202
   96CHL1  H15B 9530   2.518   2.831   7.431  1.8671  0.2265  1.3989
   96CHL1   C16 9531   2.553   2.994   7.576  0.2019 -0.0793 -0.5581
   96CHL1  H16A 9532   2.469   3.037   7.633  2.8670 -0.0790  3.7878
   96CHL1  H16B 9533   2.592   2.912   7.640  0.0261 -0.3102 -0.7455
   96CHL1   C17 9534   2.662   3.106   7.562 -0.3112  0.9437 -0.5164
   96CHL1   H17 9535   2.764   3.061   7.562  0.1882  2.0385 -0.0916
   96CHL1   C13 9536   2.643   3.151   7.410 -0.1890  0.8227  0.1876
   96CHL1   C18 9537   2.523   3.247   7.406  0.7673 -0.5481  0.3592
   96CHL1  H18A 9538   2.453   3.245   7.320 -1.9745  3.4320  2.1734
   96CHL1  H18B 9539   2.466   3.243   7.501  0.7531 -0.9157  0.3344
   96CHL1  H18C 9540   2.552   3.354   7.391 -2.2801  0.1388 -1.5134
   96CHL1   C12 9541   2.763   3.210   7.332 -0.3026 -0.0190  0.0591
   96CHL1  H12A 9542   2.778   3.313   7.369  0.0632 -0.3400  0.8202
   96CHL1  H12B 9543   2.850   3.142   7.343 -0.9847 -0.5281  2.9169
   96CHL1   C11 9544   2.736   3.225   7.175 -0.2237 -0.1693 -0.3278
   96CHL1  H11A 9545   2.657   3.301   7.156 -0.7656 -0.5865  0.2086
   96CHL1  H11B 9546   2.833   3.248   7.125  1.2613 -1.1764  1.9073
   96CHL1    C9 9547   2.690   3.084   7.114 -0.1801  0.3961 -0.1776
   96CHL1    H9 9548   2.781   3.022   7.128  0.6529  1.8927  1.4908
   96CHL1   C10 9549   2.663   3.092   6.957 -0.1885 -0.2208 -0.1040
   96CHL1   C19 9550   2.576   3.214   6.930  0.2989  0.0698  0.2376
   96CHL1  H19A 9551   2.476   3.204   6.977  0.7263 -0.5809  1.0312
   96CHL1  H19B 9552   2.630   3.310   6.944  0.6785 -0.1850  0.5215
   96CHL1  H19C 9553   2.556   3.217   6.820 -0.4847  0.5828  0.3873
   96CHL1    C1 9554   2.800   3.121   6.881 -0.5083 -0.5262 -0.0462
   96CHL1   H1A 9555   2.851   3.217   6.904  0.9436 -1.2247 -0.1914
   96CHL1   H1B 9556   2.866   3.041   6.921  0.2847  0.0131 -0.2448
   96CHL1    C2 9557   2.788   3.111   6.731 -0.2515  0.6993 -0.0631
   96CHL1   H2A 9558   2.892   3.131   6.695 -0.0684  1.2084  0.7420
   96CHL1   H2B 9559   2.721   3.188   6.687  0.2666  0.1374 -1.9636
   96CHL1   C20 9560   2.676   3.211   7.679 -0.1207  0.3751 -0.4712
   96CHL1   H20 9561   2.579   3.266   7.689  0.1200  0.6895  0.1878
   96CHL1   C21 9562   2.773   3.326   7.643 -0.2050  0.0830 -0.4259
   96CHL1  H21A 9563   2.736   3.382   7.554  0.4755 -0.2743 -0.9386
   96CHL1  H21B 9564   2.869   3.284   7.606 -1.0178  0.5076 -3.2562
   96CHL1  H21C 9565   2.800   3.384   7.733 -1.6127 -2.7532  2.0059
   96CHL1   C22 9566   2.711   3.152   7.823  0.2303  0.5970 -0.6504
   96CHL1  H22A 9567   2.643   3.066   7.841  0.9179 -0.6548 -3.4188
   96CHL1  H22B 9568   2.817   3.120   7.811 -0.2476 -0.9014 -1.0963
   96CHL1   C23 9569   2.702   3.257   7.942 -0.4550  0.3936  0.4391
   96CHL1  H23A 9570   2.764   3.346   7.918  0.8038 -1.3251 -3.6884
   96CHL1  H23B 9571   2.595   3.285   7.941 -0.7884 -0.8044 -0.4385
   96CHL1   C24 9572   2.729   3.212   8.087 -0.4243 -0.6958  0.3064
   96CHL1  H24A 9573   2.712   3.103   8.099  1.3086 -1.0308 -0.0326
   96CHL1  H24B 9574   2.839   3.211   8.102 -0.6049 -0.6744  1.7447
   96CHL1   C25 9575   2.652   3.294   8.190 -0.4725  0.1360 -0.5324
   96CHL1   H25 9576   2.545   3.271   8.172 -0.9862 -0.1683  2.4054
   96CHL1   C26 9577   2.680   3.237   8.329 -0.1101 -0.1803 -0.4387
   96CHL1  H26A 9578   2.613   3.291   8.399 -0.0231 -0.2141 -0.3293
   96CHL1  H26B 9579   2.649   3.131   8.345  0.8435 -0.4747 -0.5024
   96CHL1  H26C 9580   2.786   3.242   8.360 -0.3360  2.1929  0.0901
   96CHL1   C27 9581   2.688   3.444   8.180 -0.0311  0.5178 -0.3394
   96CHL1  H27A 9582   2.645   3.512   8.256 -0.0226  0.1107  0.0314
   96CHL1  H27B 9583   2.798   3.449   8.193 -0.0035  2.0523 -0.9248
   96CHL1  H27C 9584   2.659   3.483   8.080 -1.1070 -0.5778 -0.4748
   97OSM      N 9585   4.226   5.007  11.015  0.5783 -0.4321  0.7768
   97OSM    C15 9586   4.171   5.137  11.075  0.7881 -0.5806 -0.1032
   97OSM   H15A 9587   4.249   5.196  11.122 -0.6027  0.2422  1.2761
   97OSM   H15B 9588   4.097   5.123  11.153 -1.0804  0.2655 -1.6418
   97OSM   H15C 9589   4.130   5.203  11.000  0.8649  0.9704  1.1538
   97OSM    C14 9590   4.337   4.953  11.098  0.1721 -0.0625  1.0622
   97OSM   H14A 9591   4.322   4.961  11.205 -1.4089  1.5493  0.7732
   97OSM   H14B 9592   4.430   4.993  11.062 -0.6282 -0.8263 -2.1590
   97OSM   H14C 9593   4.362   4.851  11.077 -0.8145 -0.2667  0.8129
   97OSM    C13 9594   4.113   4.902  11.022 -0.4663 -0.2649  0.5264
   97OSM   H13A 9595   4.023   4.918  10.965  0.2641  1.6154 -0.1658
   97OSM   H13B 9596   4.094   4.884  11.126  1.2240  1.9891  1.3025
   97OSM   H13C 9597   4.152   4.810  10.980  1.4691  0.5842  0.3316
   97OSM    C12 9598   4.279   5.028  10.874 -0.4382  0.2879  0.1357
   97OSM   H12A 9599   4.192   5.038  10.810 -1.3802  1.7349  1.5795
   97OSM   H12B 9600   4.325   4.932  10.856  0.5212  0.5501  1.0710
   97OSM    C11 9601   4.392   5.132  10.839 -0.0094  0.2058 -0.0145
   97OSM   H11A 9602   4.351   5.235  10.844 -1.6754 -0.3988 -0.8170
   97OSM   H11B 9603   4.414   5.119  10.731 -1.1946 -1.6031 -0.0708
   97OSM      P 9604   4.646   5.189  10.904  0.1639 -0.0207 -0.0120
   97OSM    O13 9605   4.665   5.301  10.993 -0.3584 -0.5092 -0.5570
   97OSM    O14 9606   4.764   5.097  10.890  0.5066 -0.3639  0.2174
   97OSM    O11 9607   4.625   5.251  10.758  0.1098  0.0061 -0.4547
   97OSM    O12 9608   4.509   5.110  10.913  0.0880 -0.1616 -0.4177
   97OSM    C1S 9609   4.705   5.206  10.649 -0.3935 -0.0415 -0.5796
   97OSM    H1S 9610   4.696   5.097  10.629 -1.0030 -0.1177  0.0752
   97OSM    H1T 9611   4.811   5.238  10.660 -0.5476  0.6451 -1.0663
   97OSM     NF 9612   4.738   5.190  10.408 -0.3168 -0.5053 -0.1456
   97OSM    HNF 9613   4.829   5.226  10.390 -0.1956 -0.6004  0.2532
   97OSM    C2S 9614   4.660   5.265  10.512  0.3053 -0.3484 -0.8010
   97OSM    H2S 9615   4.551   5.248  10.497  0.0627  0.5289 -0.0474
   97OSM    C3S 9616   4.675   5.425  10.513  0.0422  0.1098 -1.0483
   97OSM    H3S 9617   4.783   5.448  10.520  0.4746  0.1118 -5.2587
   97OSM     O3 9618   4.611   5.485  10.623 -0.2987 -0.3569  0.2825
   97OSM    HO3 9619   4.609   5.411  10.684  2.3297 -2.1130 -1.5261
   97OSM    C4S 9620   4.610   5.485  10.391  0.0710  0.2259 -0.4567
   97OSM    H4S 9621   4.682   5.535  10.325  0.6587  0.9868  0.7252
   97OSM    C5S 9622   4.481   5.491  10.366 -0.0372 -0.6240 -0.2495
   97OSM    H5S 9623   4.417   5.461  10.450  0.1998 -1.9872 -0.5478
   97OSM    C6S 9624   4.410   5.550  10.246  0.5931  0.2211 -0.0916
   97OSM    H6S 9625   4.453   5.650  10.222 -1.2153  0.8459 -0.9103
   97OSM    H6T 9626   4.305   5.575  10.271 -0.0435 -0.9384 -1.4740
   97OSM    C7S 9627   4.412   5.442  10.140  0.5454 -0.1173  0.3739
   97OSM    H7S 9628   4.352   5.354  10.173 -1.1484  1.1111  0.7082
   97OSM    H7T 9629   4.521   5.424  10.125  0.2305 -1.2847 -0.6976
   97OSM    C8S 9630   4.356   5.486  10.006 -0.1016  0.4146  0.5431
   97OSM    H8S 9631   4.402   5.585   9.987 -0.8304  1.0476  1.9141
   97OSM    H8T 9632   4.251   5.523  10.008  0.2310  1.4112 -0.1511
   97OSM    C9S 9633   4.392   5.397   9.884 -0.3582  0.2637 -0.2972
   97OSM    H9S 9634   4.329   5.305   9.892 -0.8457  0.4937 -1.2384
   97OSM    H9T 9635   4.496   5.362   9.896 -0.2245  1.2837  2.0967
   97OSM   C10S 9636   4.376   5.469   9.755  0.3906  0.5033 -0.2790
   97OSM   H10S 9637   4.428   5.566   9.768  2.6838 -0.7966  0.7147
   97OSM   H10T 9638   4.268   5.495   9.744  0.0436 -0.6367  0.3199
   97OSM   C11S 9639   4.445   5.405   9.644  0.6259 -0.1753  0.4514
   97OSM   H11S 9640   4.413   5.299   9.632  0.6731  0.0554 -2.3711
   97OSM   H11T 9641   4.552   5.411   9.675  0.3794  3.2142  1.0003
   97OSM   C12S 9642   4.427   5.477   9.508  0.4396 -0.0159 -0.4846
   97OSM   H12S 9643   4.449   5.586   9.517  1.4866 -0.1853 -0.7555
   97OSM   H12T 9644   4.322   5.458   9.479 -0.1272 -0.7356  1.8476
   97OSM   C13S 9645   4.513   5.424   9.401 -0.0375  0.1562  0.1447
   97OSM   H13S 9646   4.520   5.313   9.390 -1.4099  0.1417 -0.7776
   97OSM   H13T 9647   4.623   5.438   9.410 -0.0890 -0.2225  1.5967
   97OSM   C14S 9648   4.474   5.476   9.264 -0.6213  0.2588  0.8596
   97OSM   H14S 9649   4.540   5.423   9.192  0.0380  0.7848  1.0688
   97OSM   H14T 9650   4.506   5.582   9.257  3.1443 -0.6738  1.5863
   97OSM   C15S 9651   4.327   5.455   9.223 -0.1137 -0.1136 -0.1473
   97OSM   H15S 9652   4.261   5.492   9.304  1.0724  0.0521  0.7617
   97OSM   H15T 9653   4.292   5.350   9.216  0.4424 -0.3143  0.1308
   97OSM   C16S 9654   4.296   5.516   9.083 -0.6887  0.0709  0.1655
   97OSM   H16S 9655   4.326   5.623   9.086  0.5609 -0.1571  5.4275
   97OSM   H16T 9656   4.186   5.499   9.078 -0.6172 -1.6207  2.5884
   97OSM   C17S 9657   4.359   5.442   8.963 -0.2123  0.3312 -0.2262
   97OSM   H17S 9658   4.336   5.334   8.972 -2.7875  0.8204 -0.2034
   97OSM   H17T 9659   4.469   5.452   8.950 -0.4772 -0.0835 -3.6036
   97OSM   C18S 9660   4.294   5.484   8.830 -0.1188 -0.1030  0.7139
   97OSM   H18S 9661   4.350   5.449   8.740 -0.5188  2.0007 -0.4267
   97OSM   H18T 9662   4.300   5.595   8.826  0.3705 -0.1076  1.1367
   97OSM   H18U 9663   4.197   5.432   8.820  0.3026 -0.6508 -0.8520
   97OSM    C1F 9664   4.709   5.065  10.377 -0.6574 -0.0300  0.3834
   97OSM     OF 9665   4.601   5.017  10.399  0.0490 -0.0712 -0.2548
   97OSM    C2F 9666   4.824   4.982  10.318 -0.2533  0.0881 -0.3370
   97OSM    H2F 9667   4.878   4.937  10.404 -3.3659  0.6291  2.0879
   97OSM    H2G 9668   4.891   5.048  10.259 -1.0984  1.5056  0.2345
   97OSM    C3F 9669   4.789   4.871  10.215 -0.2338 -0.2319 -0.0756
   97OSM    H3F 9670   4.738   4.908  10.124  0.3837 -0.4461 -0.5144
   97OSM    H3G 9671   4.725   4.795  10.266  1.9106 -3.0007 -1.2618
   97OSM    C4F 9672   4.910   4.776  10.189  0.3483  0.1580  0.5222
   97OSM    H4F 9673   4.870   4.675  10.168  4.1282 -1.6549  1.2294
   97OSM    H4G 9674   4.979   4.765  10.275 -2.3740 -3.0582  2.5275
   97OSM    C5F 9675   4.982   4.826  10.068 -0.1338 -0.2687  0.9970
   97OSM    H5F 9676   5.020   4.928  10.093  0.9675 -0.8420  1.7937
   97OSM    H5G 9677   4.901   4.819   9.993  0.2632 -0.5343  0.5827
   97OSM    C6F 9678   5.107   4.738  10.021  0.3492  0.0711 -0.3753
   97OSM    H6F 9679   5.066   4.636  10.009 -0.4728 -0.1565  3.1410
   97OSM    H6G 9680   5.186   4.727  10.099  0.3345  3.3161  0.2671
   97OSM    C7F 9681   5.166   4.795   9.892 -0.0081 -0.2129 -0.1677
   97OSM    H7F 9682   5.084   4.809   9.818 -1.1534  0.7821  1.2124
   97OSM    H7G 9683   5.232   4.714   9.855 -0.0820 -0.1615 -0.4137
   97OSM    C8F 9684   5.252   4.919   9.906  0.1553 -0.4267  0.0986
   97OSM    H8F 9685   5.316   4.918   9.996 -1.5853  3.8948  1.6737
   97OSM    H8G 9686   5.183   5.001   9.936  0.5538 -0.7005  1.8291
   97OSM    C9F 9687   5.326   4.942   9.779 -0.2179  0.4986  0.8362
   97OSM    H9F 9688   5.410   4.874   9.762 -1.3166 -0.3668 -1.4785
   97OSM   C10F 9689   5.306   5.037   9.685  0.5714 -0.2306  0.5653
   97OSM   H10F 9690   5.374   5.034   9.599  0.6630 -1.9681  0.6550
   97OSM   C11F 9691   5.205   5.148   9.694 -0.4038  0.0496 -0.0849
   97OSM   H11F 9692   5.240   5.243   9.648 -0.3888  0.0273 -0.1188
   97OSM   H11G 9693   5.187   5.164   9.802 -1.6744 -0.4061 -0.2109
   97OSM   C12F 9694   5.067   5.103   9.634  0.8441  0.7090  0.0773
   97OSM   H12F 9695   5.025   5.020   9.694  0.6100  0.9124  0.1933
   97OSM   H12G 9696   5.085   5.063   9.531  2.0624 -0.4931  0.7254
   97OSM   C13F 9697   4.965   5.216   9.625 -0.6074 -0.1900  0.2198
   97OSM   H13F 9698   4.865   5.178   9.595  0.5674 -1.0404 -3.0431
   97OSM   H13G 9699   4.999   5.285   9.545  2.1776  1.7997  2.8827
   97OSM   C14F 9700   4.964   5.294   9.761  0.4660  0.3582 -0.3624
   97OSM   H14F 9701   4.884   5.370   9.750  1.3468  1.2323 -0.9185
   97OSM   H14G 9702   5.061   5.345   9.778  1.7023 -1.7668 -0.7203
   97OSM   C15F 9703   4.925   5.200   9.880 -0.0907  0.4028  0.9992
   97OSM   H15F 9704   5.002   5.122   9.901  0.0047 -0.2627 -1.5533
   97OSM   H15G 9705   4.829   5.152   9.851  0.6095 -0.9191  0.8035
   97OSM   C16F 9706   4.884   5.273  10.009  0.0196  0.1077  0.0099
   97OSM   H16F 9707   4.832   5.200  10.075 -2.3056 -0.2033 -2.0164
   97OSM   H16G 9708   4.813   5.357   9.995 -0.2399 -0.0530  0.3498
   97OSM   C17F 9709   5.003   5.338  10.072  0.1137 -0.0644  0.4287
   97OSM   H17F 9710   5.040   5.410   9.996  1.2362 -0.6759  0.3748
   97OSM   H17G 9711   5.084   5.264  10.090  1.0470  0.6907 -0.5598
   97OSM   C18F 9712   4.968   5.410  10.207 -0.0055 -0.5792  0.1967
   97OSM   H18F 9713   4.883   5.480  10.195 -0.5503 -1.4912 -1.5343
   97OSM   H18G 9714   5.052   5.468  10.252 -0.9835  0.7054  0.4326
   97OSM   H18H 9715   4.938   5.335  10.283 -1.0854 -0.5333 -0.1744
   98OSM      N 9716   4.600   4.145  11.087 -0.4447  0.1800  0.0569
   98OSM    C15 9717   4.689   4.064  11.165 -0.3492 -0.1412  0.0067
   98OSM   H15A 9718   4.712   4.102  11.263 -3.1173  0.9367  0.3224
   98OSM   H15B 9719   4.780   4.054  11.108 -1.2296  0.5782 -1.5956
   98OSM   H15C 9720   4.652   3.965  11.185 -1.3423  0.2599  0.1691
   98OSM    C14 9721   4.578   4.069  10.967  0.3629 -0.3469  0.2979
   98OSM   H14A 9722   4.502   4.094  10.893  3.1624  2.2897 -1.9603
   98OSM   H14B 9723   4.569   3.964  10.988 -0.6637 -0.7509 -1.8443
   98OSM   H14C 9724   4.667   4.078  10.906 -1.8046 -0.5325 -3.2241
   98OSM    C13 9725   4.468   4.167  11.151  0.5823  0.7614 -0.1134
   98OSM   H13A 9726   4.409   4.215  11.074  1.7449  4.2418  0.9828
   98OSM   H13B 9727   4.476   4.245  11.225 -0.0590 -0.4968  1.3504
   98OSM   H13C 9728   4.423   4.076  11.190 -0.0035  1.2966  0.4847
   98OSM    C12 9729   4.651   4.281  11.056  0.2503 -0.7403 -0.4106
   98OSM   H12A 9730   4.654   4.335  11.150 -1.0915 -0.3362 -0.5860
   98OSM   H12B 9731   4.583   4.335  10.992 -0.9383 -2.1282 -0.3730
   98OSM    C11 9732   4.789   4.289  10.988  0.5644  0.3955 -0.1136
   98OSM   H11A 9733   4.868   4.250  11.056 -0.0313 -0.0965  0.2991
   98OSM   H11B 9734   4.826   4.391  10.965 -0.6672  0.4873 -1.8173
   98OSM      P 9735   4.927   4.168  10.803 -0.0023 -0.7368 -0.3126
   98OSM    O13 9736   4.993   4.290  10.759  1.2803 -0.5590 -0.6328
   98OSM    O14 9737   4.988   4.075  10.896 -0.4357 -0.1575  0.2010
   98OSM    O11 9738   4.897   4.087  10.677 -0.3642  0.2022  0.0584
   98OSM    O12 9739   4.788   4.212  10.864 -0.1419  0.3668  0.4725
   98OSM    C1S 9740   4.813   4.138  10.573 -0.3963  0.0628  0.0008
   98OSM    H1S 9741   4.814   4.249  10.571  0.2609  0.0821  0.6282
   98OSM    H1T 9742   4.712   4.095  10.585 -1.1381  1.9696  1.0230
   98OSM     NF 9743   4.786   4.123  10.321 -0.4397 -0.1681  0.3150
   98OSM    HNF 9744   4.755   4.055  10.255  3.2440 -0.7726 -1.0281
   98OSM    C2S 9745   4.864   4.082  10.433  0.3133  0.1492 -0.3214
   98OSM    H2S 9746   4.958   4.142  10.432 -0.5968  1.6268 -0.3411
   98OSM    C3S 9747   4.883   3.922  10.435  0.0783  0.5263 -0.2904
   98OSM    H3S 9748   4.784   3.873  10.443  0.3200  0.3264  1.9474
   98OSM     O3 9749   4.974   3.875  10.538  0.0184  0.0889  0.1900
   98OSM    HO3 9750   4.995   3.957  10.583 -1.1982  0.8671 -0.6002
   98OSM    C4S 9751   4.941   3.878  10.299  0.5880 -0.0186  0.0302
   98OSM    H4S 9752   5.032   3.927  10.261  0.7237  2.2602  2.9376
   98OSM    C5S 9753   4.890   3.776  10.229 -0.0471  0.0244  1.1151
   98OSM    H5S 9754   4.799   3.730  10.271  1.3768 -2.3169  1.7989
   98OSM    C6S 9755   4.930   3.719  10.094  0.2409  0.3733 -0.1593
   98OSM    H6S 9756   4.841   3.679  10.041  0.6064  1.1526 -1.4115
   98OSM    H6T 9757   4.986   3.625  10.114 -1.9799 -1.3797 -1.5908
   98OSM    C7S 9758   4.996   3.799   9.981  0.3374  0.0222  0.6944
   98OSM    H7S 9759   5.070   3.877  10.010  1.7070 -1.3566  1.0329
   98OSM    H7T 9760   4.907   3.847   9.934  0.4812 -1.4483 -1.1753
   98OSM    C8S 9761   5.057   3.716   9.868 -0.1613 -0.3290  0.6234
   98OSM    H8S 9762   5.114   3.625   9.898  1.2081 -0.0776 -1.1163
   98OSM    H8T 9763   5.127   3.779   9.810 -1.8481  0.5470 -0.5222
   98OSM    C9S 9764   4.953   3.640   9.781  0.3652  0.0378  0.2670
   98OSM    H9S 9765   4.874   3.709   9.746 -0.4763 -1.3883 -0.7566
   98OSM    H9T 9766   4.908   3.564   9.848  0.9211 -1.6069 -1.1326
   98OSM   C10S 9767   5.027   3.574   9.659 -0.0282 -0.7989  0.2425
   98OSM   H10S 9768   5.099   3.505   9.708  1.2518  1.4024  1.6301
   98OSM   H10T 9769   5.088   3.644   9.599 -1.3598 -0.2452 -0.4999
   98OSM   C11S 9770   4.937   3.496   9.558 -0.0395  0.5732 -1.1039
   98OSM   H11S 9771   4.857   3.564   9.522 -1.4106  0.5368  1.6180
   98OSM   H11T 9772   4.886   3.414   9.613  1.6085 -0.0641 -0.4308
   98OSM   C12S 9773   5.008   3.419   9.449 -0.5313 -0.2390 -0.0911
   98OSM   H12S 9774   5.080   3.348   9.495 -0.1286 -0.3814 -0.9133
   98OSM   H12T 9775   5.067   3.491   9.388 -1.4835  2.0118  1.5224
   98OSM   C13S 9776   4.919   3.333   9.360 -0.0947  0.4658 -0.1420
   98OSM   H13S 9777   4.817   3.371   9.338 -0.1998  0.9732  1.1675
   98OSM   H13T 9778   4.915   3.232   9.405  1.0504 -0.6674 -2.4000
   98OSM   C14S 9779   4.986   3.294   9.225  0.2167 -0.5959 -0.2704
   98OSM   H14S 9780   5.073   3.230   9.253  1.9495  1.8753  0.3739
   98OSM   H14T 9781   5.030   3.389   9.186 -0.9586 -0.3341 -1.0103
   98OSM   C15S 9782   4.900   3.216   9.126  0.1147 -0.5550  0.3070
   98OSM   H15S 9783   4.837   3.283   9.065  1.2823  0.5552  0.2681
   98OSM   H15T 9784   4.832   3.144   9.176 -0.6211 -0.5385 -0.6436
   98OSM   C16S 9785   4.983   3.124   9.032  0.1813 -0.4161 -0.3438
   98OSM   H16S 9786   5.051   3.065   9.096  1.5862  2.0780  0.6022
   98OSM   H16T 9787   5.048   3.177   8.959  0.8152 -0.8361 -0.0930
   98OSM   C17S 9788   4.890   3.041   8.945 -0.6639 -0.4468  0.2857
   98OSM   H17S 9789   4.831   3.107   8.877 -0.3267 -0.0773  0.3481
   98OSM   H17T 9790   4.824   2.991   9.019  0.1971 -0.2585  1.2063
   98OSM   C18S 9791   4.972   2.947   8.856 -0.0809  0.1599 -0.5828
   98OSM   H18S 9792   5.038   3.019   8.804  1.6573 -0.4565  0.6707
   98OSM   H18T 9793   4.915   2.894   8.777 -1.3144  2.5302 -1.3694
   98OSM   H18U 9794   5.037   2.869   8.902 -0.5031 -0.1051 -0.4251
   98OSM    C1F 9795   4.750   4.242  10.288 -0.0033 -0.3187  0.0091
   98OSM     OF 9796   4.776   4.343  10.353  0.1022 -0.0600 -0.7018
   98OSM    C2F 9797   4.677   4.254  10.155 -0.5583  0.5603 -0.3567
   98OSM    H2F 9798   4.573   4.225  10.177 -0.7261  1.1058 -0.4060
   98OSM    H2G 9799   4.714   4.183  10.079 -1.4421 -0.5962  0.2723
   98OSM    C3F 9800   4.661   4.399  10.106  0.1143  0.0223 -0.1164
   98OSM    H3F 9801   4.758   4.435  10.065 -0.9911  0.3318 -2.6394
   98OSM    H3G 9802   4.631   4.461  10.193 -0.4492 -0.3518 -0.0373
   98OSM    C4F 9803   4.565   4.412   9.986  0.3984  0.5686 -0.2888
   98OSM    H4F 9804   4.547   4.520   9.964  0.2874  0.5639 -0.2177
   98OSM    H4G 9805   4.467   4.367  10.010  0.1048  1.9194  1.1813
   98OSM    C5F 9806   4.603   4.357   9.852  0.3880  0.3380  0.3419
   98OSM    H5F 9807   4.547   4.262   9.837 -0.3773  0.8613 -0.2185
   98OSM    H5G 9808   4.711   4.331   9.850  0.6332  1.3737 -1.0873
   98OSM    C6F 9809   4.581   4.458   9.739 -0.3437  0.4696 -0.3882
   98OSM    H6F 9810   4.659   4.537   9.740 -1.3562  1.4961  1.2427
   98OSM    H6G 9811   4.484   4.511   9.748  0.3243  1.5694  0.6542
   98OSM    C7F 9812   4.574   4.386   9.606 -0.6120  0.8359  0.4988
   98OSM    H7F 9813   4.548   4.461   9.528 -1.2490 -0.9471 -1.0990
   98OSM    H7G 9814   4.478   4.330   9.612 -0.2568  0.0749 -0.5519
   98OSM    C8F 9815   4.702   4.316   9.561 -0.5978 -0.1028  0.6054
   98OSM    H8F 9816   4.733   4.240   9.635 -0.1675 -1.0683 -0.5303
   98OSM    H8G 9817   4.777   4.398   9.551  1.7124 -2.1172  0.5932
   98OSM    C9F 9818   4.668   4.257   9.428  0.4424  0.0417 -0.3284
   98OSM    H9F 9819   4.587   4.183   9.429  1.0204 -0.7218 -2.8538
   98OSM   C10F 9820   4.703   4.290   9.303 -0.0465  0.2616  0.2959
   98OSM   H10F 9821   4.669   4.227   9.220  1.7449  0.1902 -0.4474
   98OSM   C11F 9822   4.791   4.405   9.257 -0.2618 -0.2128 -0.3367
   98OSM   H11F 9823   4.868   4.421   9.336 -3.3083  2.0868  2.4973
   98OSM   H11G 9824   4.725   4.494   9.261  1.2978  0.9525  0.9388
   98OSM   C12F 9825   4.829   4.387   9.112 -0.3140 -0.7644  0.2822
   98OSM   H12F 9826   4.894   4.475   9.091  0.9612 -1.6996  0.1939
   98OSM   H12G 9827   4.744   4.394   9.042  0.4254 -0.2929 -0.5847
   98OSM   C13F 9828   4.912   4.258   9.087  0.3702  0.5533  0.0502
   98OSM   H13F 9829   4.840   4.176   9.065  1.2795 -0.1194 -0.4491
   98OSM   H13G 9830   4.969   4.243   9.182  2.5201  0.5850 -1.1699
   98OSM   C14F 9831   5.009   4.277   8.968 -0.4715  0.1821  0.1141
   98OSM   H14F 9832   5.056   4.377   8.971 -0.2337  0.0931  4.3747
   98OSM   H14G 9833   4.936   4.262   8.885 -0.2056 -1.7519  0.1708
   98OSM   C15F 9834   5.113   4.163   8.975 -0.0661 -0.4307  0.0107
   98OSM   H15F 9835   5.157   4.155   8.874 -0.2585 -0.0343 -0.1070
   98OSM   H15G 9836   5.060   4.075   9.015 -1.6946  0.7262  0.5020
   98OSM   C16F 9837   5.221   4.199   9.081  0.7193  0.0947  0.0729
   98OSM   H16F 9838   5.227   4.118   9.157 -0.6470  1.0220  1.2241
   98OSM   H16G 9839   5.190   4.298   9.122 -0.0250 -0.5479  1.0867
   98OSM   C17F 9840   5.368   4.217   9.017 -0.6769  0.0762  0.6635
   98OSM   H17F 9841   5.386   4.131   8.949  2.2592  0.4455  0.8470
   98OSM   H17G 9842   5.449   4.197   9.090 -1.1313  0.2468  1.2194
   98OSM   C18F 9843   5.396   4.354   8.954 -0.1655 -0.4663 -0.3287
   98OSM   H18F 9844   5.428   4.431   9.028  0.1713 -1.5763  0.7166
   98OSM   H18G 9845   5.297   4.386   8.915  0.8235  1.9749 -1.0501
   98OSM   H18H 9846   5.466   4.340   8.870  0.7237  0.7025  0.1898
   99OSM      N 9847   6.094   5.532  10.981 -0.4477 -0.0589  0.4550
   99OSM    C15 9848   6.081   5.657  10.896  0.0248 -0.2125 -0.1677
   99OSM   H15A 9849   6.128   5.650  10.799  0.5953  3.3156 -0.2785
   99OSM   H15B 9850   6.123   5.743  10.946 -1.3338  0.5936 -0.3470
   99OSM   H15C 9851   5.975   5.678  10.892 -0.1986 -1.2406  0.0527
   99OSM    C14 9852   6.239   5.524  11.028  0.3312 -0.2812 -0.1131
   99OSM   H14A 9853   6.286   5.613  11.065  0.6040 -0.8249  0.8849
   99OSM   H14B 9854   6.303   5.474  10.957 -1.3502 -0.3799 -1.6179
   99OSM   H14C 9855   6.244   5.456  11.112 -2.0101 -1.1948 -0.6225
   99OSM    C13 9856   5.996   5.552  11.090  0.2329  0.2549 -0.5834
   99OSM   H13A 9857   6.000   5.649  11.137 -0.1966  0.1077 -0.2330
   99OSM   H13B 9858   6.015   5.479  11.167 -2.2205  1.3235  1.1536
   99OSM   H13C 9859   5.893   5.543  11.059  0.4340  0.0928 -1.2261
   99OSM    C12 9860   6.062   5.413  10.908 -0.4237  0.1110  0.9511
   99OSM   H12A 9861   6.093   5.419  10.805 -2.3858 -1.4685  0.2147
   99OSM   H12B 9862   5.954   5.411  10.902 -0.4229  2.1188 -3.4617
   99OSM    C11 9863   6.109   5.279  10.981 -0.3014  0.4547 -0.0941
   99OSM   H11A 9864   6.047   5.201  10.932 -1.2877  0.8883  0.4449
   99OSM   H11B 9865   6.090   5.269  11.089  1.4870 -0.7947  0.1617
   99OSM      P 9866   6.285   5.204  10.805 -0.3009 -0.6171 -0.0579
   99OSM    O13 9867   6.432   5.208  10.780 -0.2528  0.1689  0.5034
   99OSM    O14 9868   6.221   5.079  10.772 -0.1630 -0.1751  0.1342
   99OSM    O11 9869   6.224   5.309  10.703 -0.9331 -0.2479  0.2629
   99OSM    O12 9870   6.251   5.252  10.949 -0.7430  0.3870 -0.1534
   99OSM    C1S 9871   6.261   5.302  10.563  0.1270 -0.3129 -0.9532
   99OSM    H1S 9872   6.220   5.204  10.529  0.0926 -0.4473 -0.5324
   99OSM    H1T 9873   6.371   5.306  10.546  0.3257  1.4208  0.4222
   99OSM     NF 9874   6.213   5.384  10.347  0.3112 -0.8744 -0.1348
   99OSM    HNF 9875   6.298   5.403  10.299  0.3020 -1.8458 -0.5568
   99OSM    C2S 9876   6.203   5.422  10.485 -0.2276  0.2500  0.2029
   99OSM    H2S 9877   6.094   5.434  10.507 -0.8426 -0.8072 -1.9424
   99OSM    C3S 9878   6.274   5.553  10.523 -0.5482  0.0115 -0.0567
   99OSM    H3S 9879   6.376   5.527  10.487 -0.7887 -1.6901  0.4118
   99OSM     O3 9880   6.269   5.583  10.663  0.3124 -0.3516 -0.0473
   99OSM    HO3 9881   6.249   5.508  10.720  2.3989  0.5475  2.0187
   99OSM    C4S 9882   6.239   5.669  10.440  1.0981 -0.6434 -0.8878
   99OSM    H4S 9883   6.134   5.702  10.444  0.7344 -1.8846  1.2234
   99OSM    C5S 9884   6.311   5.726  10.351 -0.5504 -0.2514  0.9610
   99OSM    H5S 9885   6.414   5.695  10.326 -0.7136 -1.1862  1.3930
   99OSM    C6S 9886   6.254   5.834  10.257  0.7125 -0.0743  1.1022
   99OSM    H6S 9887   6.303   5.933  10.265 -0.9226  0.8285  0.4709
   99OSM    H6T 9888   6.145   5.855  10.272  0.6069 -0.4528  0.8774
   99OSM    C7S 9889   6.270   5.774  10.111 -0.4243  0.2567 -0.0616
   99OSM    H7S 9890   6.204   5.832  10.043  1.0805  0.6165 -1.2785
   99OSM    H7T 9891   6.223   5.675  10.124  2.3765 -1.5638 -2.4527
   99OSM    C8S 9892   6.418   5.765  10.064 -0.3002  0.8223 -0.0172
   99OSM    H8S 9893   6.455   5.664  10.089 -0.5637  1.5161  3.7024
   99OSM    H8T 9894   6.474   5.831  10.133 -0.3903 -1.3447  2.2576
   99OSM    C9S 9895   6.422   5.820   9.921  0.0250 -0.3086  0.0400
   99OSM    H9S 9896   6.385   5.924   9.910 -0.6714 -0.6958 -1.6023
   99OSM    H9T 9897   6.355   5.756   9.859 -1.2585  1.8764 -0.9367
   99OSM   C10S 9898   6.562   5.795   9.858 -0.3882 -0.5513 -0.1802
   99OSM   H10S 9899   6.612   5.700   9.885  0.8836 -0.5625 -2.3213
   99OSM   H10T 9900   6.644   5.869   9.868  0.4231 -1.4417 -0.1004
   99OSM   C11S 9901   6.547   5.787   9.699  0.5848  0.2397 -0.7570
   99OSM   H11S 9902   6.498   5.695   9.660  3.2715 -1.4100 -0.4972
   99OSM   H11T 9903   6.649   5.780   9.657  1.6045 -0.1611  1.6611
   99OSM   C12S 9904   6.459   5.898   9.639 -0.1767 -0.2741  0.5058
   99OSM   H12S 9905   6.351   5.871   9.640 -1.3423  3.5187 -2.0489
   99OSM   H12T 9906   6.485   5.986   9.701  0.7586 -0.1990  0.0169
   99OSM   C13S 9907   6.500   5.945   9.495 -0.1024  0.3553 -0.9784
   99OSM   H13S 9908   6.606   5.976   9.481 -0.9950  2.2737 -5.0005
   99OSM   H13T 9909   6.446   6.041   9.482 -4.2316 -1.6853 -0.3184
   99OSM   C14S 9910   6.444   5.857   9.384  0.7232 -0.4326 -0.2557
   99OSM   H14S 9911   6.339   5.824   9.401  0.8048  0.3808  2.2262
   99OSM   H14T 9912   6.493   5.758   9.390  3.4945  0.8897  0.4571
   99OSM   C15S 9913   6.463   5.907   9.232  0.7795 -0.2773  0.2882
   99OSM   H15S 9914   6.571   5.916   9.211  0.5348  0.6424 -0.6735
   99OSM   H15T 9915   6.410   6.005   9.228 -2.5709 -1.8281  2.3017
   99OSM   C16S 9916   6.401   5.812   9.130  0.6179  0.3445  0.0616
   99OSM   H16S 9917   6.290   5.810   9.135  0.6094  1.0980  0.4350
   99OSM   H16T 9918   6.436   5.709   9.152  1.9412  1.2412  2.5443
   99OSM   C17S 9919   6.436   5.860   8.987 -0.7661  0.1807 -0.0763
   99OSM   H17S 9920   6.546   5.868   8.978 -0.8347 -0.5238 -2.0516
   99OSM   H17T 9921   6.393   5.961   8.970  1.5513  1.7332  2.4625
   99OSM   C18S 9922   6.376   5.766   8.882  0.2759 -0.1888 -0.3217
   99OSM   H18S 9923   6.388   5.814   8.782 -0.9239  0.4153 -0.1942
   99OSM   H18T 9924   6.267   5.750   8.898  0.3588  1.5215  2.5886
   99OSM   H18U 9925   6.416   5.662   8.888  0.8435 -0.0377 -1.1804
   99OSM    C1F 9926   6.122   5.294  10.295 -0.0543 -0.3843 -0.6995
   99OSM     OF 9927   6.024   5.257  10.357 -0.5916  0.0624  0.1776
   99OSM    C2F 9928   6.149   5.260  10.152  0.4031 -0.0667  0.2614
   99OSM    H2F 9929   6.258   5.245  10.136  0.8887  0.2211  2.7856
   99OSM    H2G 9930   6.114   5.337  10.080 -0.8883 -1.9022 -1.1715
   99OSM    C3F 9931   6.084   5.125  10.107 -0.1726 -0.6553 -0.3798
   99OSM    H3F 9932   6.113   5.055  10.188  0.5387  0.5044  0.4075
   99OSM    H3G 9933   5.973   5.135  10.112  0.0446  2.4113  1.0377
   99OSM    C4F 9934   6.110   5.076   9.962 -0.6114 -0.2677  0.0783
   99OSM    H4F 9935   6.097   5.161   9.891 -0.6377  0.2217  0.6652
   99OSM    H4G 9936   6.035   4.996   9.943  1.5287 -3.5113  3.7175
   99OSM    C5F 9937   6.240   4.996   9.946 -1.1683  0.5193 -0.4452
   99OSM    H5F 9938   6.246   4.918  10.025 -0.5974  2.2981  1.3702
   99OSM    H5G 9939   6.324   5.066   9.967 -1.1672  0.7234 -1.0990
   99OSM    C6F 9940   6.262   4.927   9.804 -0.2476  0.0328  0.0161
   99OSM    H6F 9941   6.171   4.868   9.782 -0.3138  0.5091 -1.0527
   99OSM    H6G 9942   6.351   4.860   9.804  1.3666  2.0877 -0.1154
   99OSM    C7F 9943   6.267   5.023   9.683 -0.1524 -0.4469  0.2425
   99OSM    H7F 9944   6.368   5.070   9.686  1.7811 -3.7282 -3.8699
   99OSM    H7G 9945   6.192   5.105   9.692  1.4432  1.3526 -1.8844
   99OSM    C8F 9946   6.257   4.964   9.544 -0.4914 -1.0166  0.1453
   99OSM    H8F 9947   6.165   4.903   9.546  0.2205 -2.1538 -0.4654
   99OSM    H8G 9948   6.340   4.893   9.522 -0.1492 -1.0534  1.4719
   99OSM    C9F 9949   6.253   5.074   9.437  0.5536 -0.2254 -0.9830
   99OSM    H9F 9950   6.312   5.163   9.463  1.6614 -1.3073  0.3529
   99OSM   C10F 9951   6.169   5.082   9.333 -0.2646  0.2283  0.4466
   99OSM   H10F 9952   6.187   5.164   9.261 -1.1282 -0.4528 -0.5602
   99OSM   C11F 9953   6.073   4.974   9.287  0.8574  0.6576 -0.0893
   99OSM   H11F 9954   5.968   5.003   9.310  0.4980 -1.3807  1.0741
   99OSM   H11G 9955   6.077   4.878   9.343  0.5655  2.1551  2.6320
   99OSM   C12F 9956   6.085   4.956   9.131  0.0934 -0.2284 -0.7258
   99OSM   H12F 9957   6.177   4.898   9.110  0.3922  0.3209 -0.9681
   99OSM   H12G 9958   6.089   5.055   9.080  3.1697  0.1757  0.1096
   99OSM   C13F 9959   5.956   4.882   9.088  0.0765 -0.1995 -0.4490
   99OSM   H13F 9960   5.868   4.942   9.118  1.1141  0.5662  1.2621
   99OSM   H13G 9961   5.954   4.782   9.137 -0.0266  0.3068  0.6034
   99OSM   C14F 9962   5.954   4.870   8.937 -0.5587 -0.8283  0.3243
   99OSM   H14F 9963   6.051   4.838   8.894 -0.1951  1.7627 -0.9913
   99OSM   H14G 9964   5.949   4.971   8.891  3.2918 -0.6324  0.0349
   99OSM   C15F 9965   5.840   4.775   8.895  0.5174  0.5620  0.2626
   99OSM   H15F 9966   5.845   4.690   8.967  4.5513 -0.0122 -0.4427
   99OSM   H15G 9967   5.842   4.737   8.790  1.1841  0.0016  0.4614
   99OSM   C16F 9968   5.703   4.846   8.926 -0.4981  0.8837  0.4136
   99OSM   H16F 9969   5.705   4.953   8.895 -2.3894  1.2271  1.3057
   99OSM   H16G 9970   5.704   4.861   9.036 -0.3302 -1.9427  0.8662
   99OSM   C17F 9971   5.579   4.775   8.862  0.2830  0.1722 -0.3106
   99OSM   H17F 9972   5.574   4.676   8.913  1.6854  0.8118  1.1821
   99OSM   H17G 9973   5.606   4.765   8.755  2.9132 -0.3056  0.3317
   99OSM   C18F 9974   5.452   4.849   8.881  0.3362 -0.0668 -0.0635
   99OSM   H18F 9975   5.364   4.782   8.878  0.4113 -0.1642 -0.0946
   99OSM   H18G 9976   5.420   4.918   8.800  1.3879 -1.4703 -1.7400
   99OSM   H18H 9977   5.448   4.901   8.979  1.1603  1.6230 -0.8663
  100OSM      N 9978   2.861   6.100  10.728  0.5232 -0.2629  0.2953
  100OSM    C15 9979   2.833   6.117  10.580 -0.2792  0.2240 -0.1799
  100OSM   H15A 9980   2.731   6.125  10.546  1.1744  0.6626 -5.3246
  100OSM   H15B 9981   2.889   6.034  10.539 -0.7849 -0.0340 -0.3468
  100OSM   H15C 9982   2.879   6.209  10.548 -3.0133  1.1791 -1.6336
  100OSM    C14 9983   3.008   6.097  10.750  0.7182  0.2913 -0.3770
  100OSM   H14A 9984   3.034   6.078  10.853  0.4316  1.4841 -0.0626
  100OSM   H14B 9985   3.041   6.199  10.732  1.1031  0.1902 -0.2485
  100OSM   H14C 9986   3.060   6.022  10.693  1.2029  1.5401 -1.6461
  100OSM    C13 9987   2.795   6.202  10.813  0.2325 -0.3427 -0.2414
  100OSM   H13A 9988   2.828   6.301  10.788 -0.2417  0.2029  1.1948
  100OSM   H13B 9989   2.807   6.180  10.918 -1.7623 -0.6237 -0.0243
  100OSM   H13C 9990   2.688   6.194  10.801 -0.0649  0.7671  1.2975
  100OSM    C12 9991   2.808   5.963  10.770 -0.0955 -0.6243 -0.8114
  100OSM   H12A 9992   2.819   5.947  10.876  2.0833  1.3428 -0.6476
  100OSM   H12B 9993   2.861   5.881  10.724  2.9074 -0.3882  1.8898
  100OSM    C11 9994   2.660   5.927  10.734  0.4465  0.2963 -0.5021
  100OSM   H11A 9995   2.637   5.823  10.766 -0.0650  0.4049 -0.5055
  100OSM   H11B 9996   2.659   5.929  10.623  0.3136 -1.5516 -0.5570
  100OSM      P 9997   2.422   6.063  10.736 -0.4057  0.3507  0.0216
  100OSM    O13 9998   2.314   6.004  10.821 -0.2615  0.2453  0.4471
  100OSM    O14 9999   2.429   6.210  10.743 -0.0673  0.1171 -0.0108
  100OSM    O1110000   2.413   5.999  10.588 -0.0989 -0.5659 -0.2904
  100OSM    O1210001   2.560   6.006  10.800 -0.7310 -0.4626  0.4610
  100OSM    C1S10002   2.385   5.857  10.568  0.0101  0.4321  0.8725
  100OSM    H1S10003   2.298   5.827  10.630 -1.4484 -1.3445 -1.8242
  100OSM    H1T10004   2.463   5.789  10.610  0.9379 -0.5239 -2.1688
  100OSM     NF10005   2.305   5.682  10.413  0.1084  0.3450  0.0935
  100OSM    HNF10006   2.361   5.608  10.376 -0.3286 -0.6113  1.2788
  100OSM    C2S10007   2.358   5.814  10.416 -0.0307 -0.2933 -0.2057
  100OSM    H2S10008   2.292   5.896  10.380  0.6143 -0.2394 -1.3236
  100OSM    C3S10009   2.485   5.830  10.336  0.4744  0.6583  0.1320
  100OSM    H3S10010   2.559   5.752  10.364  1.5119  1.2985 -0.7458
  100OSM     O310011   2.550   5.958  10.352  0.3549  0.2744  0.2453
  100OSM    HO310012   2.505   5.995  10.428 -0.3790  0.3263 -0.2063
  100OSM    C4S10013   2.449   5.800  10.186 -0.1090 -0.8109  0.3014
  100OSM    H4S10014   2.479   5.705  10.140  1.6558  0.4823 -1.3505
  100OSM    C5S10015   2.391   5.887  10.102  0.5929 -0.4037 -0.3828
  100OSM    H5S10016   2.357   5.983  10.142 -0.8112 -1.3614  0.8095
  100OSM    C6S10017   2.365   5.863   9.958  0.3163  0.5423  0.4034
  100OSM    H6S10018   2.256   5.864   9.934 -0.1972 -4.1366  1.5306
  100OSM    H6T10019   2.395   5.760   9.928 -0.5518 -0.4075  2.5820
  100OSM    C7S10020   2.449   5.963   9.874 -0.3563  0.0978 -0.8064
  100OSM    H7S10021   2.556   5.956   9.903 -0.7837  0.9190  1.1268
  100OSM    H7T10022   2.417   6.068   9.889  0.3205  0.0317  1.3550
  100OSM    C8S10023   2.428   5.937   9.717  0.1410  0.7511  0.6343
  100OSM    H8S10024   2.322   5.955   9.685 -0.5671 -1.1350  1.7720
  100OSM    H8T10025   2.443   5.829   9.693 -0.1856  0.8501 -0.0427
  100OSM    C9S10026   2.534   6.016   9.630  0.4764 -0.3267 -0.0957
  100OSM    H9S10027   2.626   5.987   9.684 -2.7143 -2.6983  4.8604
  100OSM    H9T10028   2.520   6.126   9.634 -0.1039 -0.3093 -1.7718
  100OSM   C10S10029   2.507   5.976   9.488  0.1996 -0.7139  0.3281
  100OSM   H10S10030   2.406   6.008   9.452  0.3682 -1.7353 -1.1067
  100OSM   H10T10031   2.531   5.870   9.469  3.5405 -0.2408  1.2898
  100OSM   C11S10032   2.602   6.058   9.392 -0.2873 -0.3520 -0.0961
  100OSM   H11S10033   2.708   6.058   9.425 -1.3578  2.3500  4.2700
  100OSM   H11T10034   2.574   6.165   9.408 -0.5000 -0.2629 -1.0169
  100OSM   C12S10035   2.588   6.012   9.245  0.6831 -0.5047  0.1660
  100OSM   H12S10036   2.484   6.015   9.208  0.0751 -0.9376  1.7365
  100OSM   H12T10037   2.635   5.912   9.240 -1.4900 -1.4897 -2.4376
  100OSM   C13S10038   2.673   6.107   9.151 -0.4073  0.1654  1.4038
  100OSM   H13S10039   2.772   6.126   9.199 -0.1316  1.4416  0.3778
  100OSM   H13T10040   2.614   6.201   9.153  1.6508  1.5237  1.3152
  100OSM   C14S10041   2.674   6.055   9.007 -0.6561 -0.1711  0.3548
  100OSM   H14S10042   2.582   5.994   8.996 -1.0789  0.3692  0.8032
  100OSM   H14T10043   2.757   5.984   8.987  0.3088  1.1880 -0.6461
  100OSM   C15S10044   2.672   6.161   8.896  0.6847  0.2981 -0.6766
  100OSM   H15S10045   2.762   6.221   8.922  0.0829 -0.3193  3.5237
  100OSM   H15T10046   2.581   6.223   8.908  0.5324 -0.2278  1.4515
  100OSM   C16S10047   2.697   6.116   8.755 -0.7637 -0.2375  0.4756
  100OSM   H16S10048   2.605   6.064   8.722 -1.7651  2.4376 -1.3261
  100OSM   H16T10049   2.784   6.047   8.761  0.6194  1.0214 -2.6247
  100OSM   C17S10050   2.732   6.224   8.646 -0.5589  0.7029  0.2930
  100OSM   H17S10051   2.778   6.177   8.556  0.2718  0.2548  0.9384
  100OSM   H17T10052   2.796   6.299   8.698 -1.2151  3.8255 -2.9983
  100OSM   C18S10053   2.606   6.303   8.603 -0.2427  0.6712 -0.9317
  100OSM   H18S10054   2.565   6.348   8.696  1.3210  2.2998 -0.9666
  100OSM   H18T10055   2.529   6.244   8.550  0.2115  0.1016 -0.9598
  100OSM   H18U10056   2.633   6.378   8.526 -1.7905  0.3093 -1.8590
  100OSM    C1F10057   2.186   5.637  10.457 -0.5775  0.4610  0.1783
  100OSM     OF10058   2.106   5.706  10.510  0.0303  0.1013 -0.3290
  100OSM    C2F10059   2.166   5.491  10.441  0.1987 -0.1331  0.1462
  100OSM    H2F10060   2.061   5.461  10.464  0.4909 -0.4759  1.0907
  100OSM    H2G10061   2.239   5.442  10.509  0.9163  0.9290  0.1702
  100OSM    C3F10062   2.195   5.436  10.296 -0.4121 -0.8381 -0.7827
  100OSM    H3F10063   2.164   5.329  10.297 -0.8926 -0.7033  0.7409
  100OSM    H3G10064   2.305   5.435  10.286  0.0625 -1.1881  3.1488
  100OSM    C4F10065   2.120   5.514  10.191 -0.0676 -0.5748  0.4932
  100OSM    H4F10066   2.169   5.614  10.193  1.9620 -1.4868 -0.1898
  100OSM    H4G10067   2.013   5.524  10.216 -0.4749  1.9598 -1.7788
  100OSM    C5F10068   2.131   5.461  10.053 -0.7399 -0.2749 -0.7158
  100OSM    H5F10069   2.063   5.373  10.054  0.0760 -0.9174 -0.7205
  100OSM    H5G10070   2.233   5.419  10.044 -0.8129 -0.8701  0.8335
  100OSM    C6F10071   2.086   5.557   9.942  0.2038 -0.8276  0.1659
  100OSM    H6F10072   2.140   5.653   9.948  1.8590 -1.5924 -1.6944
  100OSM    H6G10073   1.980   5.583   9.965  0.3236  1.6394 -1.7276
  100OSM    C7F10074   2.093   5.496   9.799 -0.6163  0.6487  0.1940
  100OSM    H7F10075   2.023   5.555   9.735 -2.0822 -0.4818  0.6880
  100OSM    H7G10076   2.056   5.392   9.796  0.5106  0.2540 -2.0107
  100OSM    C8F10077   2.232   5.508   9.727 -0.9671 -0.4552 -0.5430
  100OSM    H8F10078   2.312   5.448   9.777  0.1212  0.6201 -0.9626
  100OSM    H8G10079   2.270   5.612   9.732  1.3698 -1.2608 -0.1809
  100OSM    C9F10080   2.222   5.468   9.588  0.4113  0.4203 -0.3185
  100OSM    H9F10081   2.152   5.384   9.589  1.0525 -0.1358  0.7416
  100OSM   C10F10082   2.268   5.518   9.478 -0.2396 -0.1719  0.5860
  100OSM   H10F10083   2.262   5.462   9.383 -0.4098 -0.2195  0.6255
  100OSM   C11F10084   2.359   5.636   9.454  0.1013 -0.2633  0.1123
  100OSM   H11F10085   2.462   5.596   9.470 -0.0340 -0.5541  0.2749
  100OSM   H11G10086   2.353   5.711   9.536 -0.8441 -0.5219  0.2890
  100OSM   C12F10087   2.348   5.694   9.314 -0.6491  0.0269 -0.0385
  100OSM   H12F10088   2.366   5.803   9.322 -0.1502  0.0758 -1.4980
  100OSM   H12G10089   2.251   5.669   9.267 -0.5233  0.4444 -0.5341
  100OSM   C13F10090   2.462   5.654   9.226  0.2961  0.0248 -0.4860
  100OSM   H13F10091   2.472   5.543   9.228 -1.4527 -0.1658 -1.0478
  100OSM   H13G10092   2.552   5.701   9.271 -0.4406 -0.6622  1.8662
  100OSM   C14F10093   2.427   5.705   9.086  0.4780 -0.1488  0.1403
  100OSM   H14F10094   2.414   5.815   9.098  2.9694  0.3408 -0.9423
  100OSM   H14G10095   2.325   5.666   9.065  0.3323 -0.0357  0.6214
  100OSM   C15F10096   2.533   5.674   8.972  0.7029 -0.1110  0.0107
  100OSM   H15F10097   2.564   5.568   8.978 -0.4186 -0.5056 -0.7841
  100OSM   H15G10098   2.626   5.730   8.994  2.6748 -3.3661  0.6691
  100OSM   C16F10099   2.472   5.705   8.838  0.1575 -0.5396 -0.4415
  100OSM   H16F10100   2.425   5.806   8.834 -0.6045 -0.7159  2.3629
  100OSM   H16G10101   2.389   5.633   8.818 -0.0196 -0.5598  0.3182
  100OSM   C17F10102   2.579   5.686   8.726  0.2181 -0.5445 -0.7534
  100OSM   H17F10103   2.618   5.583   8.739  0.3373 -0.3058  1.1462
  100OSM   H17G10104   2.661   5.759   8.745 -1.6581  1.9632 -1.6138
  100OSM   C18F10105   2.534   5.718   8.586  0.4797  0.4024 -0.0588
  100OSM   H18F10106   2.614   5.690   8.514 -0.2942 -0.7725 -0.4865
  100OSM   H18G10107   2.514   5.826   8.574 -2.2461 -0.2082 -1.8583
  100OSM   H18H10108   2.434   5.672   8.571  0.5461 -0.3768  1.6359
  101OSM      N10109   6.020   6.678  11.204  0.1020  0.4187  0.1532
  101OSM    C1510110   6.056   6.821  11.220  0.4189 -0.0905 -0.5615
  101OSM   H15A10111   6.025   6.882  11.136 -2.4166 -0.2716  0.2343
  101OSM   H15B10112   6.162   6.833  11.238  0.3884 -2.3206  1.5790
  101OSM   H15C10113   6.011   6.853  11.313  0.3562 -1.9030  0.0659
  101OSM    C1410114   6.062   6.596  11.318 -0.0191  0.3988  0.0481
  101OSM   H14A10115   6.022   6.632  11.411  1.5942  0.2284  0.8448
  101OSM   H14B10116   6.169   6.606  11.325 -0.1739  1.1980  1.9470
  101OSM   H14C10117   6.038   6.493  11.300  0.5181  0.4969 -1.3782
  101OSM    C1310118   5.868   6.674  11.209  0.4388 -0.3757 -0.9883
  101OSM   H13A10119   5.823   6.713  11.119 -1.9835  1.8917  1.0116
  101OSM   H13B10120   5.832   6.743  11.285 -1.0782  0.8086 -2.6872
  101OSM   H13C10121   5.838   6.572  11.225 -1.3856  0.5138  2.2050
  101OSM    C1210122   6.067   6.615  11.068 -0.7108 -0.7626 -0.6031
  101OSM   H12A10123   6.020   6.518  11.055 -1.4374 -0.3897 -0.8195
  101OSM   H12B10124   6.173   6.600  11.076 -0.3239  1.2603 -1.6651
  101OSM    C1110125   6.033   6.691  10.938  0.2813 -0.0580 -0.6521
  101OSM   H11A10126   5.924   6.710  10.931  0.2910  0.1587 -0.1858
  101OSM   H11B10127   6.060   6.627  10.851 -0.7068  0.4657 -1.3625
  101OSM      P10128   6.250   6.827  10.902 -0.6076  0.0354 -0.0530
  101OSM    O1310129   6.294   6.956  10.955  0.2597  0.6453 -0.2926
  101OSM    O1410130   6.315   6.703  10.948 -0.0410  0.6533  0.5032
  101OSM    O1110131   6.280   6.845  10.746  0.2676 -0.8953  0.4174
  101OSM    O1210132   6.091   6.821  10.919  0.1094  0.2173 -0.0720
  101OSM    C1S10133   6.178   6.792  10.656 -0.1084 -0.3388 -0.4624
  101OSM    H1S10134   6.081   6.841  10.679  0.6713  0.2824  1.7136
  101OSM    H1T10135   6.173   6.683  10.676  4.1862 -0.7865 -0.9051
  101OSM     NF10136   6.112   6.776  10.427 -0.4643  0.5835  0.2522
  101OSM    HNF10137   6.115   6.685  10.387  2.0613 -0.3070  2.1917
  101OSM    C2S10138   6.228   6.805  10.511  1.2152 -0.2996  0.6052
  101OSM    H2S10139   6.249   6.912  10.489  1.8718 -0.5775 -0.2045
  101OSM    C3S10140   6.352   6.714  10.490 -0.0405  0.4982  0.0649
  101OSM    H3S10141   6.335   6.609  10.521 -0.4416  0.3724 -0.5687
  101OSM     O310142   6.460   6.751  10.579  0.2289 -0.3188 -0.4482
  101OSM    HO310143   6.420   6.787  10.658 -1.1137 -1.4696 -0.5537
  101OSM    C4S10144   6.398   6.720  10.342  0.9124  0.0416  0.6454
  101OSM    H4S10145   6.326   6.671  10.275  0.1958  0.7133  0.9168
  101OSM    C5S10146   6.507   6.774  10.285 -0.0455  0.0123 -0.4244
  101OSM    H5S10147   6.577   6.831  10.348 -0.3281  1.3178 -1.2646
  101OSM    C6S10148   6.547   6.752  10.143  0.5505  0.6290 -0.0615
  101OSM    H6S10149   6.503   6.657  10.105  1.2088 -0.4308  1.6981
  101OSM    H6T10150   6.657   6.742  10.135  0.9289  1.3690  3.0240
  101OSM    C7S10151   6.502   6.875  10.059 -0.3811 -0.5984  0.2592
  101OSM    H7S10152   6.547   6.957  10.118  1.7028 -2.7725  1.9072
  101OSM    H7T10153   6.392   6.885  10.046 -0.2838 -0.4289 -0.4948
  101OSM    C8S10154   6.568   6.877   9.920  0.0932  0.3991  0.1227
  101OSM    H8S10155   6.678   6.866   9.929  0.0712  0.2775  0.2346
  101OSM    H8T10156   6.549   6.977   9.874 -0.9151  0.8099  1.3795
  101OSM    C9S10157   6.504   6.764   9.834 -0.5150 -0.8158  0.3570
  101OSM    H9S10158   6.404   6.800   9.802 -0.0907  2.8232  2.4981
  101OSM    H9T10159   6.500   6.678   9.903 -0.8649 -0.7084  0.4735
  101OSM   C10S10160   6.594   6.725   9.713  0.5249  0.7309  0.7531
  101OSM   H10S10161   6.525   6.667   9.648  1.1516 -0.2773  0.9767
  101OSM   H10T10162   6.666   6.652   9.754  0.2255 -0.8965 -1.4584
  101OSM   C11S10163   6.659   6.846   9.638 -0.4364  0.4882  0.2305
  101OSM   H11S10164   6.709   6.902   9.721 -0.2529 -1.8307  1.7668
  101OSM   H11T10165   6.573   6.903   9.596  1.5788  0.9335 -3.7016
  101OSM   C12S10166   6.749   6.803   9.525  0.1585 -0.3652 -0.4562
  101OSM   H12S10167   6.827   6.725   9.540  1.1608  0.6628 -0.1900
  101OSM   H12T10168   6.800   6.896   9.492  0.0119 -0.2705 -0.4125
  101OSM   C13S10169   6.674   6.747   9.411 -0.0467 -0.0143 -0.2668
  101OSM   H13S10170   6.584   6.809   9.388  0.0654 -0.0759 -0.8862
  101OSM   H13T10171   6.638   6.650   9.452  0.5900 -0.0684  0.1674
  101OSM   C14S10172   6.760   6.718   9.293 -0.4701 -0.3692 -0.0319
  101OSM   H14S10173   6.815   6.625   9.316 -1.3627 -0.6074  1.1977
  101OSM   H14T10174   6.839   6.795   9.279 -1.3564  0.8409  1.2965
  101OSM   C15S10175   6.669   6.711   9.157  0.0290 -0.0907 -0.2594
  101OSM   H15S10176   6.603   6.798   9.141  1.1502  1.1712  1.4878
  101OSM   H15T10177   6.612   6.618   9.175 -0.4789  0.0220 -1.2351
  101OSM   C16S10178   6.760   6.679   9.035  0.3403  0.1724  0.0356
  101OSM   H16S10179   6.818   6.589   9.061  0.7996  0.6769  0.7719
  101OSM   H16T10180   6.844   6.748   9.012  1.0461 -0.3649  0.9702
  101OSM   C17S10181   6.673   6.647   8.904  0.4702  0.9491  0.2614
  101OSM   H17S10182   6.623   6.743   8.879 -0.2488  0.3933 -0.5089
  101OSM   H17T10183   6.604   6.562   8.920 -0.5053  1.0705 -2.7033
  101OSM   C18S10184   6.750   6.607   8.777 -0.2656  0.5540  0.2009
  101OSM   H18S10185   6.761   6.496   8.778 -0.5072  0.5116 -0.8950
  101OSM   H18T10186   6.844   6.664   8.761 -0.8413  0.9506 -2.1394
  101OSM   H18U10187   6.683   6.612   8.689  1.2238 -0.3606 -1.0623
  101OSM    C1F10188   6.009   6.857  10.415 -0.6742  0.6485 -0.0138
  101OSM     OF10189   6.010   6.973  10.458 -0.6363 -0.1927  0.7268
  101OSM    C2F10190   5.887   6.794  10.353  0.3590 -0.6013  0.1997
  101OSM    H2F10191   5.800   6.835  10.408  2.5474  0.7254  2.9626
  101OSM    H2G10192   5.887   6.684  10.364 -0.1747 -0.8296 -1.8112
  101OSM    C3F10193   5.884   6.812  10.201  0.0043 -0.5936  0.3942
  101OSM    H3F10194   5.883   6.917  10.165 -0.3446 -0.7110  0.0547
  101OSM    H3G10195   5.788   6.768  10.166 -0.6814  1.2379 -0.1509
  101OSM    C4F10196   6.003   6.740  10.125 -0.0237 -0.6214 -0.3176
  101OSM    H4F10197   6.001   6.631  10.150 -1.7504 -1.2024 -2.6542
  101OSM    H4G10198   6.097   6.790  10.154 -1.8538  2.2351  1.1793
  101OSM    C5F10199   6.000   6.734   9.971 -0.3218 -0.0839 -0.1532
  101OSM    H5F10200   6.016   6.835   9.929  0.3001 -0.5361 -1.0311
  101OSM    H5G10201   5.900   6.696   9.938 -1.1988  2.1170 -0.1755
  101OSM    C6F10202   6.119   6.657   9.918  0.6291 -0.0960  0.1742
  101OSM    H6F10203   6.214   6.713   9.935  0.7842 -0.6192  1.1339
  101OSM    H6G10204   6.118   6.558   9.969  0.2393 -0.1660  0.0322
  101OSM    C7F10205   6.128   6.622   9.769  0.3829  0.1434 -0.3455
  101OSM    H7F10206   6.057   6.537   9.762  1.9937 -1.4809  1.6621
  101OSM    H7G10207   6.226   6.582   9.736  0.3944 -0.1211  0.0025
  101OSM    C8F10208   6.069   6.721   9.670  0.7464 -0.8773  0.0297
  101OSM    H8F10209   5.961   6.742   9.688  1.1967  2.9802 -0.7756
  101OSM    H8G10210   6.077   6.673   9.570 -0.6170 -1.4140  0.1587
  101OSM    C9F10211   6.140   6.856   9.663 -0.5847  0.5092 -0.2688
  101OSM    H9F10212   6.117   6.928   9.743 -0.1735 -0.6031  0.8779
  101OSM   C10F10213   6.239   6.890   9.578  0.2463  0.3706 -0.6436
  101OSM   H10F10214   6.267   6.995   9.560 -1.2110  1.2241  1.5949
  101OSM   C11F10215   6.294   6.800   9.466  0.0279 -0.6828  0.7354
  101OSM   H11F10216   6.251   6.698   9.471  1.6623 -1.4698 -0.2800
  101OSM   H11G10217   6.403   6.786   9.480  0.2568 -0.3499 -0.5472
  101OSM   C12F10218   6.278   6.852   9.320  0.1360 -0.1294 -0.2369
  101OSM   H12F10219   6.333   6.788   9.248 -1.0544  0.1951 -1.4772
  101OSM   H12G10220   6.316   6.957   9.319 -2.2942  0.8120  0.1125
  101OSM   C13F10221   6.130   6.871   9.282  0.1384 -0.3381 -0.1479
  101OSM   H13F10222   6.123   6.973   9.238 -1.2159 -0.2149  0.3252
  101OSM   H13G10223   6.064   6.872   9.371 -0.3963  0.1133 -0.5354
  101OSM   C14F10224   6.081   6.782   9.175  0.0408  0.2153  0.2011
  101OSM   H14F10225   6.077   6.672   9.189 -2.1785  0.4300  1.8078
  101OSM   H14G10226   6.152   6.798   9.090  3.4003 -2.2914  2.2505
  101OSM   C15F10227   5.942   6.824   9.122 -0.3562 -0.0372  0.2211
  101OSM   H15F10228   5.926   6.934   9.130 -0.3017 -0.0320  0.2667
  101OSM   H15G10229   5.881   6.777   9.202  0.8389 -1.3949  0.3710
  101OSM   C16F10230   5.917   6.773   8.980 -0.0312  1.1673  0.1991
  101OSM   H16F10231   5.951   6.667   8.978 -1.2068  0.7759 -1.0398
  101OSM   H16G10232   5.979   6.831   8.909  1.4496  0.2279  0.6837
  101OSM   C17F10233   5.765   6.790   8.938 -0.1603 -0.4131  0.3364
  101OSM   H17F10234   5.732   6.885   8.984  1.6895  0.1673  0.5678
  101OSM   H17G10235   5.703   6.702   8.967 -2.2717  0.5122 -1.1381
  101OSM   C18F10236   5.758   6.819   8.789  0.4126  0.4356 -0.2364
  101OSM   H18F10237   5.652   6.831   8.758 -1.0741  0.7532  4.2479
  101OSM   H18G10238   5.819   6.758   8.719 -1.8688  0.1446 -2.0941
  101OSM   H18H10239   5.796   6.921   8.764  2.6499 -0.9450 -3.1190
  102OSM      N10240   2.944   1.169  10.864 -0.2602  0.0514 -0.2695
  102OSM    C1510241   3.040   1.112  10.767  0.6407  0.4206 -0.5245
  102OSM   H15A10242   3.034   1.007  10.743  1.8322  0.1859  0.1421
  102OSM   H15B10243   3.140   1.129  10.805  0.3571  1.8241 -0.3316
  102OSM   H15C10244   3.020   1.153  10.669  0.0322 -1.2731 -1.1425
  102OSM    C1410245   2.952   1.101  10.996  0.4480 -0.0538  0.1317
  102OSM   H14A10246   2.884   1.149  11.065 -1.0415  0.1637 -1.4156
  102OSM   H14B10247   3.050   1.109  11.041 -0.0646  0.0777  1.2483
  102OSM   H14C10248   2.924   0.997  10.988  0.6639 -0.2413  1.6337
  102OSM    C1310249   2.986   1.315  10.880  0.3538 -0.6775 -0.6561
  102OSM   H13A10250   3.085   1.332  10.919  0.5372 -0.9769 -0.9914
  102OSM   H13B10251   2.922   1.373  10.945 -1.9956 -0.9286 -2.5892
  102OSM   H13C10252   2.989   1.365  10.785 -0.7345  1.3436  0.3064
  102OSM    C1210253   2.805   1.154  10.805 -0.5124 -0.3196  0.6103
  102OSM   H12A10254   2.812   1.182  10.701  2.2734  1.8332  1.2521
  102OSM   H12B10255   2.737   1.223  10.853 -1.5108 -1.8087  1.3972
  102OSM    C1110256   2.728   1.019  10.817 -0.2940  0.2234 -0.4045
  102OSM   H11A10257   2.684   1.008  10.919 -0.3961  0.8166 -0.3799
  102OSM   H11B10258   2.803   0.944  10.785  0.0345  1.0378 -1.6347
  102OSM      P10259   2.560   0.911  10.642 -0.3612  0.0528 -0.2560
  102OSM    O1310260   2.659   0.820  10.581 -0.1010  0.3737  0.0128
  102OSM    O1410261   2.475   0.851  10.748  0.1522  0.3837 -0.4107
  102OSM    O1110262   2.478   0.978  10.532  0.4813 -0.3249  0.2600
  102OSM    O1210263   2.633   1.030  10.711  0.0860 -0.1414 -0.0954
  102OSM    C1S10264   2.448   1.119  10.527  0.4154  0.3134  0.3318
  102OSM    H1S10265   2.541   1.177  10.548  0.7763 -0.3617  0.6144
  102OSM    H1T10266   2.375   1.159  10.601  0.3039  1.4235 -0.3579
  102OSM     NF10267   2.462   1.275  10.348  0.3395 -0.1975  0.4115
  102OSM    HNF10268   2.406   1.357  10.355 -0.5260 -0.6555 -0.8109
  102OSM    C2S10269   2.399   1.152  10.388  0.2345  0.3699  0.2539
  102OSM    H2S10270   2.430   1.064  10.328 -3.7965 -1.1367  0.0894
  102OSM    C3S10271   2.237   1.140  10.387 -0.3195 -0.0023 -0.9047
  102OSM    H3S10272   2.195   1.227  10.443 -4.8026 -0.7089 -2.8206
  102OSM     O310273   2.177   1.021  10.442  0.4038 -0.1933  0.4496
  102OSM    HO310274   2.246   0.955  10.451  0.6617  0.1833  1.3391
  102OSM    C4S10275   2.189   1.144  10.249 -0.4636 -0.2026  0.7480
  102OSM    H4S10276   2.218   1.057  10.188 -0.7241 -0.5235  1.0770
  102OSM    C5S10277   2.109   1.234  10.192  0.1500  0.0956 -0.6222
  102OSM    H5S10278   2.056   1.307  10.254 -0.0545  0.3012 -1.0338
  102OSM    C6S10279   2.062   1.250  10.049  0.7924 -0.1962  0.1034
  102OSM    H6S10280   2.039   1.355  10.020  1.1057 -0.2192 -0.2259
  102OSM    H6T10281   1.963   1.199  10.039  0.6058  0.2525 -0.3625
  102OSM    C7S10282   2.160   1.180   9.956  0.0722  0.0009  0.4737
  102OSM    H7S10283   2.155   1.072   9.982 -3.3652 -0.0566  0.0185
  102OSM    H7T10284   2.260   1.228   9.962 -0.1623  0.8644 -1.6715
  102OSM    C8S10285   2.116   1.199   9.804 -0.0295 -0.0851 -0.1572
  102OSM    H8S10286   2.014   1.158   9.787 -0.6159  1.1438  0.3371
  102OSM    H8T10287   2.190   1.133   9.753  0.1942 -2.3403  2.8544
  102OSM    C9S10288   2.131   1.346   9.762 -0.5646  0.5732 -0.7243
  102OSM    H9S10289   2.226   1.382   9.807  0.2687 -0.9643 -1.2073
  102OSM    H9T10290   2.052   1.407   9.812 -0.1654  0.8210 -0.3898
  102OSM   C10S10291   2.148   1.374   9.613 -0.5816  0.1215 -0.3301
  102OSM   H10S10292   2.186   1.287   9.554  1.1372  1.1322 -0.7897
  102OSM   H10T10293   2.224   1.452   9.591  1.7246 -0.8305  3.4466
  102OSM   C11S10294   2.010   1.402   9.553  0.9123  0.1354 -0.1804
  102OSM   H11S10295   1.990   1.511   9.560  0.5676  0.1239 -0.8866
  102OSM   H11T10296   1.942   1.344   9.618 -0.0678  1.8446  0.3786
  102OSM   C12S10297   1.991   1.361   9.407  0.6368 -0.2925 -0.0917
  102OSM   H12S10298   2.025   1.255   9.405  3.1036  0.4330 -0.8077
  102OSM   H12T10299   2.056   1.416   9.336 -0.3464  0.1232 -0.6832
  102OSM   C13S10300   1.857   1.393   9.357  0.2310  0.5652  0.2291
  102OSM   H13S10301   1.841   1.502   9.373  1.6471  0.7301  0.6180
  102OSM   H13T10302   1.782   1.337   9.417 -0.4801 -1.6809 -2.5529
  102OSM   C14S10303   1.835   1.350   9.218  0.0762  1.2119  0.2724
  102OSM   H14S10304   1.726   1.339   9.199 -0.1503  1.2616  1.5153
  102OSM   H14T10305   1.875   1.250   9.191  1.3995  1.1180  2.4443
  102OSM   C15S10306   1.886   1.458   9.114  0.2840 -0.6150 -0.6179
  102OSM   H15S10307   1.996   1.474   9.122  0.3937 -1.5017 -0.2711
  102OSM   H15T10308   1.834   1.551   9.144  1.2457 -0.0259 -0.7330
  102OSM   C16S10309   1.858   1.430   8.965  0.1959 -1.1266  0.0679
  102OSM   H16S10310   1.895   1.521   8.914  1.9688 -1.4040  0.7722
  102OSM   H16T10311   1.751   1.427   8.936 -0.0564 -0.8992  0.9247
  102OSM   C17S10312   1.939   1.311   8.904 -0.4919  0.6078 -1.2405
  102OSM   H17S10313   1.879   1.223   8.938 -1.1655  2.4385  2.8780
  102OSM   H17T10314   2.045   1.308   8.938 -0.9313 -0.5055  0.1312
  102OSM   C18S10315   1.929   1.293   8.750  0.1172 -0.4866 -0.9856
  102OSM   H18S10316   1.997   1.366   8.700  0.7363 -1.3765 -1.4728
  102OSM   H18T10317   1.824   1.307   8.717 -0.5740 -0.9407  0.9138
  102OSM   H18U10318   1.974   1.194   8.730 -1.0477 -1.7583  2.0270
  102OSM    C1F10319   2.589   1.299  10.316 -0.5026  0.2423 -0.0270
  102OSM     OF10320   2.668   1.203  10.301  0.5367  0.1251  0.2037
  102OSM    C2F10321   2.625   1.444  10.300  0.0193 -0.4278  0.3137
  102OSM    H2F10322   2.716   1.450  10.363  2.0529 -1.7544 -2.2991
  102OSM    H2G10323   2.554   1.517  10.345 -0.4165 -2.0681  2.4830
  102OSM    C3F10324   2.666   1.482  10.152 -0.0961 -0.4560 -0.5489
  102OSM    H3F10325   2.742   1.408  10.120  2.5396  2.4555 -1.5653
  102OSM    H3G10326   2.718   1.580  10.152  0.2621 -0.6413 -0.1232
  102OSM    C4F10327   2.559   1.488  10.041  0.7167 -0.1743  0.4261
  102OSM    H4F10328   2.515   1.589  10.048 -1.5539 -1.0132 -0.6907
  102OSM    H4G10329   2.480   1.413  10.062 -0.7463  1.7948  2.3471
  102OSM    C5F10330   2.618   1.500   9.899  0.0965  0.0554 -0.0921
  102OSM    H5F10331   2.694   1.419   9.889 -0.9360 -0.7615 -1.7233
  102OSM    H5G10332   2.678   1.593   9.892  0.9145 -0.4178  0.4508
  102OSM    C6F10333   2.517   1.494   9.783  0.5344  0.0663 -0.1541
  102OSM    H6F10334   2.439   1.573   9.793  0.6446  0.4667 -1.9903
  102OSM    H6G10335   2.470   1.393   9.784 -0.6345  0.5877  0.5377
  102OSM    C7F10336   2.575   1.512   9.642 -0.1465  0.7076  0.3161
  102OSM    H7F10337   2.634   1.422   9.615  0.9419  1.3957  0.3684
  102OSM    H7G10338   2.658   1.583   9.663  1.2551 -0.6836 -0.3665
  102OSM    C8F10339   2.491   1.564   9.524  0.1420 -0.6284 -0.4535
  102OSM    H8F10340   2.452   1.659   9.566  0.8292 -0.6448  0.2344
  102OSM    H8G10341   2.410   1.493   9.500 -0.8271  0.4564 -0.5052
  102OSM    C9F10342   2.574   1.589   9.404  0.1472  0.3623  0.1447
  102OSM    H9F10343   2.661   1.657   9.410  0.7023 -0.4328  2.2508
  102OSM   C10F10344   2.558   1.535   9.282 -1.0204 -0.2389 -0.1037
  102OSM   H10F10345   2.641   1.568   9.218 -1.3341 -1.0742 -0.9512
  102OSM   C11F10346   2.453   1.444   9.219  0.7483  0.4288 -0.4807
  102OSM   H11F10347   2.398   1.392   9.300  0.5919  0.3245 -0.6530
  102OSM   H11G10348   2.512   1.370   9.161  1.4270  0.5718  0.0086
  102OSM   C12F10349   2.342   1.510   9.144  0.7611  0.1649  0.4978
  102OSM   H12F10350   2.279   1.569   9.214 -3.0100 -0.5439 -2.0054
  102OSM   H12G10351   2.281   1.435   9.089  2.1072 -0.2286 -0.5104
  102OSM   C13F10352   2.393   1.611   9.030 -0.5181  0.7145 -0.3357
  102OSM   H13F10353   2.503   1.624   9.042  0.1454 -3.0862 -0.8763
  102OSM   H13G10354   2.354   1.709   9.064 -0.3889  0.9294 -0.8011
  102OSM   C14F10355   2.368   1.562   8.889 -0.3588  0.2639  0.8850
  102OSM   H14F10356   2.268   1.518   8.869 -0.6948  1.5657 -0.4373
  102OSM   H14G10357   2.431   1.471   8.875 -0.3820  0.4874 -0.8841
  102OSM   C15F10358   2.392   1.659   8.778  0.0999 -0.3454  0.6921
  102OSM   H15F10359   2.495   1.698   8.791 -0.0100  1.0960 -1.9732
  102OSM   H15G10360   2.326   1.749   8.773  1.7967  0.8824 -1.0522
  102OSM   C16F10361   2.394   1.599   8.634  0.6449  0.1270  0.3058
  102OSM   H16F10362   2.296   1.554   8.607  0.0579  1.2361  0.4991
  102OSM   H16G10363   2.460   1.510   8.635 -0.2158 -0.5255 -0.0718
  102OSM   C17F10364   2.415   1.706   8.521 -1.0780  0.2317 -0.1445
  102OSM   H17F10365   2.329   1.776   8.533 -0.2766  0.9809  1.4839
  102OSM   H17G10366   2.393   1.650   8.428  1.0729 -1.1048  0.0782
  102OSM   C18F10367   2.552   1.778   8.518  0.0954 -0.1938  0.2946
  102OSM   H18F10368   2.641   1.714   8.496 -0.7923 -1.4890  0.3663
  102OSM   H18G10369   2.576   1.830   8.613  1.5466  1.2601 -0.8049
  102OSM   H18H10370   2.557   1.850   8.433  1.5103 -0.0397  0.4836
  103OSM      N10371   5.311   5.601  11.053  0.2015  0.0013  0.6516
  103OSM    C1510372   5.294   5.700  11.168  1.1217 -0.6976 -0.4817
  103OSM   H15A10373   5.381   5.761  11.189  0.7215  0.1333 -1.1577
  103OSM   H15B10374   5.262   5.653  11.259 -0.8593 -0.2292 -0.8729
  103OSM   H15C10375   5.225   5.777  11.134  0.0913 -2.0368 -1.5769
  103OSM    C1410376   5.385   5.482  11.110  0.8338  0.4859  0.4077
  103OSM   H14A10377   5.402   5.401  11.040 -2.4155 -0.8528  0.9888
  103OSM   H14B10378   5.310   5.443  11.177 -1.3789  1.6678 -1.2412
  103OSM   H14C10379   5.471   5.514  11.167  1.3580 -0.3263  0.0951
  103OSM    C1310380   5.173   5.548  11.013 -0.3889 -0.2260  0.4267
  103OSM   H13A10381   5.182   5.485  10.925 -1.7785 -0.1475  0.2157
  103OSM   H13B10382   5.095   5.621  11.009  0.6178  0.8653  0.0785
  103OSM   H13C10383   5.153   5.485  11.099  1.2756 -0.3958  0.7274
  103OSM    C1210384   5.382   5.667  10.939  0.1717  0.5905  0.6590
  103OSM   H12A10385   5.470   5.716  10.978 -1.1958  3.3024  0.5786
  103OSM   H12B10386   5.324   5.749  10.901 -0.0020  0.1069 -0.1255
  103OSM    C1110387   5.427   5.581  10.823  0.0201 -0.3562 -0.0101
  103OSM   H11A10388   5.460   5.650  10.743  2.0958 -3.2065 -1.7652
  103OSM   H11B10389   5.336   5.537  10.777  0.1292 -0.0945 -0.4749
  103OSM      P10390   5.673   5.525  10.854 -0.1954 -0.1614 -0.0493
  103OSM    O1310391   5.681   5.652  10.935  0.8321 -0.4058 -0.0196
  103OSM    O1410392   5.761   5.407  10.889 -0.2270  0.4579 -0.7109
  103OSM    O1110393   5.700   5.556  10.699 -0.4369 -0.1873 -0.7359
  103OSM    O1210394   5.523   5.488  10.864  0.0180  0.2621 -0.1029
  103OSM    C1S10395   5.729   5.443  10.615  0.1047  0.5160  0.3941
  103OSM    H1S10396   5.658   5.359  10.628  0.8558 -0.1917  0.0574
  103OSM    H1T10397   5.828   5.398  10.636  0.5228  0.7802 -0.9299
  103OSM     NF10398   5.738   5.352  10.371  0.1353 -0.2836  0.2279
  103OSM    HNF10399   5.828   5.315  10.350 -1.1125 -2.6322 -1.5654
  103OSM    C2S10400   5.722   5.470  10.459  0.1994  1.0035  0.0365
  103OSM    H2S10401   5.627   5.522  10.436 -0.6636  0.2257  1.7044
  103OSM    C3S10402   5.827   5.579  10.419  0.1191 -0.3278  1.1454
  103OSM    H3S10403   5.928   5.537  10.436  1.8810  2.3514 -1.6310
  103OSM     O310404   5.818   5.704  10.485 -0.1092  0.3176 -0.8641
  103OSM    HO310405   5.765   5.677  10.561  1.3301 -1.1683 -0.3292
  103OSM    C4S10406   5.824   5.598  10.270  0.3737 -0.6293 -0.0264
  103OSM    H4S10407   5.909   5.557  10.214  0.5129  0.2715 -0.4993
  103OSM    C5S10408   5.732   5.672  10.196 -0.7947  0.2052 -0.6624
  103OSM    H5S10409   5.657   5.732  10.248  0.0769  1.8875 -1.2793
  103OSM    C6S10410   5.738   5.687  10.043 -0.2645  0.1878 -0.1263
  103OSM    H6S10411   5.722   5.793  10.011 -0.5858 -0.4800 -2.4189
  103OSM    H6T10412   5.643   5.649   9.999  0.3256  0.0572 -1.3284
  103OSM    C7S10413   5.844   5.614   9.974  0.2428  0.0380  0.8054
  103OSM    H7S10414   5.822   5.507   9.993 -1.7110  0.7980  3.4143
  103OSM    H7T10415   5.943   5.635  10.020 -0.9507 -0.5645  3.9448
  103OSM    C8S10416   5.838   5.650   9.824  0.2565  0.7434 -0.4377
  103OSM    H8S10417   5.836   5.760   9.811 -1.0537  0.8398  0.3967
  103OSM    H8T10418   5.741   5.620   9.781 -0.4260  2.5023 -0.1852
  103OSM    C9S10419   5.946   5.578   9.739 -0.0864  0.2498 -0.8476
  103OSM    H9S10420   5.939   5.469   9.758  0.7734  0.2901 -0.2440
  103OSM    H9T10421   6.050   5.607   9.767 -0.7703  1.0576  1.0511
  103OSM   C10S10422   5.934   5.599   9.581  0.7261  0.9583 -1.4063
  103OSM   H10S10423   5.841   5.568   9.528  1.7551 -2.3919 -1.4870
  103OSM   H10T10424   5.999   5.517   9.542 -1.3193 -0.7435 -1.4367
  103OSM   C11S10425   5.968   5.740   9.533  0.1538 -0.7805  0.3405
  103OSM   H11S10426   6.054   5.781   9.591 -0.6783 -0.3926  1.3306
  103OSM   H11T10427   5.877   5.800   9.553  1.3518  2.0226 -1.9974
  103OSM   C12S10428   5.986   5.754   9.384 -0.4911  0.1981  0.4727
  103OSM   H12S10429   5.886   5.739   9.337 -0.4387  1.4727 -0.0965
  103OSM   H12T10430   6.060   5.683   9.342 -0.3826  0.7543 -0.2992
  103OSM   C13S10431   6.023   5.902   9.345 -0.4548  0.0768 -0.1395
  103OSM   H13S10432   6.128   5.916   9.378 -0.1578  0.7191 -1.3020
  103OSM   H13T10433   5.950   5.974   9.387 -0.2891  0.5010 -0.5730
  103OSM   C14S10434   6.022   5.925   9.190 -0.4318  0.3244  0.0260
  103OSM   H14S10435   6.085   5.847   9.143 -0.1766  1.4730 -1.6233
  103OSM   H14T10436   6.076   6.022   9.185  1.5198 -0.7346 -0.5195
  103OSM   C15S10437   5.883   5.952   9.126  0.2433 -0.4242 -0.4686
  103OSM   H15S10438   5.821   6.024   9.184  1.8824 -1.1817  2.4737
  103OSM   H15T10439   5.832   5.853   9.135  0.1469 -0.2200  1.8271
  103OSM   C16S10440   5.896   5.965   8.973 -0.5667 -0.4227 -0.0947
  103OSM   H16S10441   5.953   6.055   8.941 -1.1323  0.3699  1.0523
  103OSM   H16T10442   5.795   5.968   8.928 -0.8523 -0.2278  0.5466
  103OSM   C17S10443   5.970   5.844   8.909  0.4546  0.2849  0.1036
  103OSM   H17S10444   5.967   5.752   8.972  0.0309 -0.4751 -1.0126
  103OSM   H17T10445   6.079   5.865   8.923  0.5153  0.2194 -0.2762
  103OSM   C18S10446   5.945   5.813   8.763 -0.4305  0.4433  0.7859
  103OSM   H18S10447   5.949   5.908   8.707 -0.7519 -0.2598 -0.4526
  103OSM   H18T10448   5.848   5.761   8.745 -0.0164 -1.5270  3.6331
  103OSM   H18U10449   6.017   5.734   8.732 -0.6436  0.6696 -0.3243
  103OSM    C1F10450   5.640   5.274  10.371  0.6412 -0.0132 -0.2665
  103OSM     OF10451   5.528   5.320  10.371 -0.3974  0.1440  0.2400
  103OSM    C2F10452   5.657   5.125  10.375 -0.4221  0.3563 -0.5405
  103OSM    H2F10453   5.652   5.092  10.481  0.7206 -2.3691 -1.2589
  103OSM    H2G10454   5.763   5.103  10.351 -0.2166  0.7054  0.0073
  103OSM    C3F10455   5.550   5.049  10.301  0.1220 -0.2036  0.2315
  103OSM    H3F10456   5.448   5.065  10.342 -0.7279 -0.0389 -1.8589
  103OSM    H3G10457   5.574   4.941  10.315  1.1097 -0.5277 -3.1526
  103OSM    C4F10458   5.528   5.072  10.152 -0.5169 -0.6976 -0.2984
  103OSM    H4F10459   5.519   5.181  10.132  0.3978 -0.6017 -0.2375
  103OSM    H4G10460   5.429   5.029  10.127 -0.4619 -1.2914  0.4767
  103OSM    C5F10461   5.637   5.010  10.072  0.6448 -0.3854  0.1972
  103OSM    H5F10462   5.641   4.902  10.097 -2.8461 -0.6989 -0.1036
  103OSM    H5G10463   5.728   5.069  10.098 -1.4051  3.4030 -0.5810
  103OSM    C6F10464   5.628   5.037   9.916 -0.0194 -0.2507 -0.1707
  103OSM    H6F10465   5.546   5.110   9.905 -0.8240 -0.9142  1.2161
  103OSM    H6G10466   5.609   4.937   9.873 -3.0658 -0.1271  0.7046
  103OSM    C7F10467   5.763   5.073   9.859  0.4187 -0.0377 -0.1500
  103OSM    H7F10468   5.838   4.995   9.883  0.2389 -0.0440  0.3970
  103OSM    H7G10469   5.797   5.172   9.897  0.1676 -0.3347  0.8615
  103OSM    C8F10470   5.767   5.087   9.702  0.6442  0.0583 -0.1232
  103OSM    H8F10471   5.733   4.989   9.663 -1.2465  0.8723 -0.6384
  103OSM    H8G10472   5.872   5.105   9.671  1.0445  1.4868  1.8751
  103OSM    C9F10473   5.673   5.195   9.660 -0.5697  0.6537 -0.4104
  103OSM    H9F10474   5.586   5.205   9.725 -0.9193  4.1316 -1.2217
  103OSM   C10F10475   5.691   5.271   9.556 -0.2865  0.5778  0.2414
  103OSM   H10F10476   5.606   5.332   9.524  0.6034  1.7418  0.0423
  103OSM   C11F10477   5.810   5.258   9.464  0.3656 -0.4545 -0.6945
  103OSM   H11F10478   5.856   5.157   9.463  0.9685 -0.3493  3.0304
  103OSM   H11G10479   5.882   5.333   9.504 -0.1708 -0.8363  1.0679
  103OSM   C12F10480   5.768   5.298   9.324  0.2155 -0.1010  0.3095
  103OSM   H12F10481   5.706   5.388   9.346  3.1943  1.5588  2.7325
  103OSM   H12G10482   5.712   5.221   9.268 -1.2223  0.7522  0.5405
  103OSM   C13F10483   5.879   5.358   9.225 -0.3700  0.0389  0.5402
  103OSM   H13F10484   5.952   5.282   9.191  2.5955  1.6029  2.9920
  103OSM   H13G10485   5.943   5.435   9.273  0.3637  0.2439 -0.7220
  103OSM   C14F10486   5.820   5.424   9.096 -0.1946 -0.3140 -0.1212
  103OSM   H14F10487   5.886   5.501   9.052  0.2084 -0.6186 -0.0578
  103OSM   H14G10488   5.720   5.469   9.110 -0.1486 -0.3970  0.5001
  103OSM   C15F10489   5.820   5.323   8.984 -0.2758  1.2005  0.9438
  103OSM   H15F10490   5.772   5.227   9.012 -0.8398  1.0783 -0.3977
  103OSM   H15G10491   5.924   5.301   8.951 -0.1789  3.6687 -0.6266
  103OSM   C16F10492   5.748   5.379   8.860 -0.1441  1.1306  0.1976
  103OSM   H16F10493   5.803   5.469   8.824 -2.1682  1.9392 -1.0752
  103OSM   H16G10494   5.650   5.413   8.902  0.4626  0.6368  2.1279
  103OSM   C17F10495   5.726   5.267   8.750 -0.1919  0.5425 -0.3289
  103OSM   H17F10496   5.660   5.202   8.812  2.0358  0.0215  1.6398
  103OSM   H17G10497   5.822   5.218   8.722 -0.0435  0.4664  0.3044
  103OSM   C18F10498   5.663   5.325   8.632 -0.1451 -0.2607 -0.7397
  103OSM   H18F10499   5.724   5.391   8.567  0.2215 -0.5943 -0.7338
  103OSM   H18G10500   5.576   5.390   8.659  0.7498  0.3403  0.8444
  103OSM   H18H10501   5.623   5.247   8.564 -2.1452 -0.6267  0.7459
  104OSM      N10502   0.849   4.068  11.023  0.0815  0.5334  0.2019
  104OSM    C1510503   0.954   4.022  11.117  0.5465  0.1511  0.5928
  104OSM   H15A10504   0.957   3.914  11.125  3.3511 -0.1233 -2.1165
  104OSM   H15B10505   0.955   4.067  11.215 -0.8804  3.1807 -0.6474
  104OSM   H15C10506   1.051   4.040  11.073  0.8919 -1.2694  0.7215
  104OSM    C1410507   0.859   3.993  10.895  0.3069  0.2065 -0.1971
  104OSM   H14A10508   0.852   3.885  10.902  4.3027 -0.1855  0.0789
  104OSM   H14B10509   0.951   4.014  10.843  0.4817 -1.5534 -0.6498
  104OSM   H14C10510   0.770   4.014  10.838 -1.2338 -2.6684  0.9178
  104OSM    C1310511   0.727   4.042  11.091 -0.7614  0.1896 -0.2850
  104OSM   H13A10512   0.651   4.077  11.023  0.2555 -0.0993 -1.6220
  104OSM   H13B10513   0.701   4.090  11.184 -0.3697 -0.9251  0.4132
  104OSM   H13C10514   0.709   3.936  11.103 -1.0435  0.2955  0.2416
  104OSM    C1210515   0.870   4.219  10.991 -0.5516  0.5684 -0.6175
  104OSM   H12A10516   0.840   4.272  11.080  3.1560 -1.2474  1.9540
  104OSM   H12B10517   0.796   4.240  10.914 -2.4326 -0.7654  0.7334
  104OSM    C1110518   1.015   4.261  10.946  0.0370 -0.3025 -0.2662
  104OSM   H11A10519   1.095   4.238  11.020 -1.2113  0.7121  1.4913
  104OSM   H11B10520   1.017   4.372  10.941 -0.0742 -0.3007 -0.2670
  104OSM      P10521   1.044   4.270  10.695 -0.7674 -0.3566 -0.3092
  104OSM    O1310522   0.952   4.387  10.703 -0.0481  0.4701  0.0754
  104OSM    O1410523   1.177   4.314  10.655 -0.2002 -0.2164  0.1480
  104OSM    O1110524   0.998   4.172  10.583 -0.3279 -0.2949  0.2114
  104OSM    O1210525   1.054   4.188  10.831  0.9022  0.3590 -0.3569
  104OSM    C1S10526   0.858   4.150  10.557 -0.3939  0.4891  0.0245
  104OSM    H1S10527   0.798   4.236  10.594  1.6359  2.3051 -0.7457
  104OSM    H1T10528   0.828   4.058  10.612  1.7826  0.2729  0.9230
  104OSM     NF10529   0.705   4.125  10.367  0.1302 -0.1271  0.0917
  104OSM    HNF10530   0.669   4.036  10.340 -2.3318  0.3256  1.5413
  104OSM    C2S10531   0.842   4.124  10.403  0.2291 -1.0169  0.2936
  104OSM    H2S10532   0.880   4.216  10.352 -0.8333 -0.2012  0.9289
  104OSM    C3S10533   0.927   4.002  10.355 -0.0891  0.1695  0.4261
  104OSM    H3S10534   0.869   3.913  10.386 -0.9615  0.5542 -0.0506
  104OSM     O310535   1.055   3.990  10.414  0.0830 -0.0068 -0.0348
  104OSM    HO310536   1.060   4.049  10.490 -2.0138 -0.1731  0.2941
  104OSM    C4S10537   0.924   3.995  10.209 -0.9659  0.5622  0.5080
  104OSM    H4S10538   0.829   3.953  10.175 -0.5199 -0.3546  0.3721
  104OSM    C5S10539   1.016   4.048  10.124 -0.1956  0.5687 -0.2130
  104OSM    H5S10540   1.103   4.104  10.161 -0.8888  0.2446  2.0661
  104OSM    C6S10541   1.003   4.044   9.973 -0.1296 -0.9051 -0.2955
  104OSM    H6S10542   0.931   3.969   9.932  0.9421 -1.1509 -1.8108
  104OSM    H6T10543   1.095   4.014   9.920 -0.1631  1.0684 -1.6062
  104OSM    C7S10544   0.968   4.194   9.922  0.4952  0.2977 -0.0396
  104OSM    H7S10545   1.044   4.259   9.971  1.1881  0.3458 -1.1280
  104OSM    H7T10546   0.864   4.222   9.948 -0.1874 -1.3638 -0.8673
  104OSM    C8S10547   0.987   4.194   9.765  0.7961 -0.4101 -0.1487
  104OSM    H8S10548   0.929   4.108   9.726  0.4997  0.1097 -0.8754
  104OSM    H8T10549   1.094   4.169   9.752  0.5417 -1.8820  0.4198
  104OSM    C9S10550   0.960   4.327   9.691  0.1234 -0.7824 -0.5347
  104OSM    H9S10551   1.027   4.409   9.723  2.0258 -1.0371 -3.4574
  104OSM    H9T10552   0.856   4.357   9.716  0.9996 -0.8140  3.8505
  104OSM   C10S10553   0.985   4.328   9.537 -0.5394 -0.7250 -0.0461
  104OSM   H10S10554   0.931   4.418   9.502 -2.2191 -1.7893 -0.3200
  104OSM   H10T10555   0.943   4.239   9.485 -1.5200  0.4122 -1.2907
  104OSM   C11S10556   1.131   4.334   9.494  0.5224  0.1715 -0.0082
  104OSM   H11S10557   1.189   4.254   9.545  1.7331  1.0052 -0.0028
  104OSM   H11T10558   1.176   4.432   9.523 -0.4565  1.1236 -1.5561
  104OSM   C12S10559   1.149   4.302   9.341 -0.1882  0.2320 -0.1818
  104OSM   H12S10560   1.247   4.345   9.311 -0.1948 -0.2393 -0.9152
  104OSM   H12T10561   1.072   4.354   9.281 -1.1420 -0.5406  0.3336
  104OSM   C13S10562   1.143   4.155   9.313 -0.1136 -0.0462 -0.3560
  104OSM   H13S10563   1.068   4.106   9.378 -1.0025  1.9711  0.2108
  104OSM   H13T10564   1.237   4.101   9.339 -0.1791 -0.8811 -1.7225
  104OSM   C14S10565   1.100   4.131   9.165 -0.8218 -1.0789 -0.0676
  104OSM   H14S10566   1.030   4.208   9.126  1.5945  0.5476 -1.4329
  104OSM   H14T10567   1.060   4.030   9.143  0.8541 -1.1253 -3.5663
  104OSM   C15S10568   1.217   4.154   9.064  0.2682  0.3534  0.2476
  104OSM   H15S10569   1.312   4.103   9.091  0.2451  0.3741  0.3680
  104OSM   H15T10570   1.226   4.264   9.048  0.9234  0.2004 -0.4916
  104OSM   C16S10571   1.178   4.092   8.922 -0.5634 -0.0552  0.5157
  104OSM   H16S10572   1.272   4.097   8.863 -1.0436 -1.9555 -0.5147
  104OSM   H16T10573   1.097   4.152   8.875  1.4577  2.0512 -0.4617
  104OSM   C17S10574   1.138   3.940   8.918  0.2241 -0.6677  0.2622
  104OSM   H17S10575   1.095   3.907   8.821 -4.1036 -0.8302  2.0390
  104OSM   H17T10576   1.049   3.930   8.983 -0.6361  1.6843 -0.4423
  104OSM   C18S10577   1.246   3.847   8.958  0.3382  0.5471 -0.7505
  104OSM   H18S10578   1.211   3.741   8.961 -0.5787  0.8286 -1.1225
  104OSM   H18T10579   1.272   3.875   9.062 -0.9240  1.2450 -0.6073
  104OSM   H18U10580   1.336   3.847   8.893  0.7744 -1.7733 -0.2403
  104OSM    C1F10581   0.619   4.222  10.384  0.4169 -0.3150 -0.1572
  104OSM     OF10582   0.651   4.334  10.424  0.0220  0.2805  0.3243
  104OSM    C2F10583   0.480   4.200  10.334  0.1175  0.2268 -0.0147
  104OSM    H2F10584   0.422   4.292  10.357 -1.2878 -0.7372  0.4208
  104OSM    H2G10585   0.438   4.104  10.370  0.2422 -0.1770 -0.9324
  104OSM    C3F10586   0.462   4.211  10.177  0.1485 -0.0676 -0.5236
  104OSM    H3F10587   0.488   4.317  10.157 -1.3999  0.5402  0.4448
  104OSM    H3G10588   0.354   4.212  10.150 -0.7194  1.2431  2.5755
  104OSM    C4F10589   0.544   4.123  10.085  0.6619 -0.9381  1.0380
  104OSM    H4F10590   0.520   4.018  10.112 -0.0463 -0.8499  0.7844
  104OSM    H4G10591   0.651   4.141  10.108  0.7621  0.5530 -0.3731
  104OSM    C5F10592   0.516   4.154   9.941 -0.2359  0.3196  0.1292
  104OSM    H5F10593   0.545   4.260   9.928 -0.1197  0.4566  1.3478
  104OSM    H5G10594   0.406   4.141   9.930 -0.2047  0.4102 -0.2987
  104OSM    C6F10595   0.600   4.065   9.836  0.1777  0.3006  0.6158
  104OSM    H6F10596   0.575   3.958   9.849  0.3536  0.1457 -0.2412
  104OSM    H6G10597   0.708   4.073   9.863  0.7236  0.6491 -1.5334
  104OSM    C7F10598   0.571   4.098   9.683  0.0095 -1.0317 -0.6844
  104OSM    H7F10599   0.647   4.176   9.662 -2.3065  1.5249 -0.1847
  104OSM    H7G10600   0.474   4.150   9.665  1.8684  2.3633 -1.6481
  104OSM    C8F10601   0.567   3.983   9.586 -1.4166  0.8702  0.2433
  104OSM    H8F10602   0.492   3.905   9.610  0.2799 -0.5723  1.1042
  104OSM    H8G10603   0.663   3.930   9.600 -2.6616 -1.0902  1.8842
  104OSM    C9F10604   0.545   4.028   9.439 -0.7951 -0.6277  0.0399
  104OSM    H9F10605   0.449   4.078   9.418  0.2271  1.0069 -1.0327
  104OSM   C10F10606   0.625   4.012   9.336 -0.0510  0.6584  0.6345
  104OSM   H10F10607   0.596   4.054   9.239  1.0792 -0.6303 -0.2892
  104OSM   C11F10608   0.768   3.957   9.327  0.2773  0.2840  0.3072
  104OSM   H11F10609   0.820   3.961   9.426 -0.8374 -0.6855  0.9447
  104OSM   H11G10610   0.826   4.018   9.253 -0.6817  2.1147  1.0016
  104OSM   C12F10611   0.767   3.814   9.273 -0.4114 -0.1617 -0.6652
  104OSM   H12F10612   0.671   3.768   9.303  0.8072 -1.6084  1.2755
  104OSM   H12G10613   0.839   3.751   9.329  1.3702  1.8305 -0.5850
  104OSM   C13F10614   0.785   3.798   9.120  0.8870 -0.0100 -0.3450
  104OSM   H13F10615   0.785   3.693   9.082  2.6970  0.2804 -1.2866
  104OSM   H13G10616   0.885   3.838   9.092  0.2387  2.4802  0.6497
  104OSM   C14F10617   0.678   3.876   9.038  0.2492  0.0525 -0.4946
  104OSM   H14F10618   0.713   3.978   9.013  1.5490 -0.2156  0.2017
  104OSM   H14G10619   0.577   3.889   9.084  0.2928  2.3217 -0.9442
  104OSM   C15F10620   0.663   3.809   8.904  0.1098 -0.3015 -0.3704
  104OSM   H15F10621   0.565   3.758   8.899 -1.1580  1.9963 -0.1936
  104OSM   H15G10622   0.744   3.733   8.894  0.0269 -0.3082 -1.0450
  104OSM   C16F10623   0.676   3.912   8.784 -0.4486 -0.3544  0.1397
  104OSM   H16F10624   0.776   3.958   8.767 -0.9508 -0.2038 -3.2491
  104OSM   H16G10625   0.608   3.999   8.798 -0.0021 -0.0122  0.2336
  104OSM   C17F10626   0.630   3.848   8.653 -0.6696 -0.3073  0.2744
  104OSM   H17F10627   0.529   3.809   8.677 -0.8575  1.2236  2.2213
  104OSM   H17G10628   0.709   3.775   8.624  2.0276  2.3400  0.4364
  104OSM   C18F10629   0.612   3.949   8.547  0.9363  0.5602 -0.3325
  104OSM   H18F10630   0.533   4.022   8.577 -0.3729 -0.6633 -0.6995
  104OSM   H18G10631   0.574   3.904   8.453 -1.5712 -0.4322  1.0303
  104OSM   H18H10632   0.703   4.008   8.527  1.3894  0.2330  0.6919
  105OSM      N10633   5.041   0.118  10.898  0.0891 -0.0041 -0.8031
  105OSM    C1510634   5.018   0.242  10.985  0.0369 -0.5675  0.2336
  105OSM   H15A10635   5.108   0.300  10.998  0.2684 -0.9337  0.2781
  105OSM   H15B10636   4.982   0.212  11.082  0.3214 -1.3374  0.1097
  105OSM   H15C10637   4.941   0.306  10.945 -1.4857 -0.0936  3.5996
  105OSM    C1410638   5.139   0.024  10.970 -0.1350  0.9392  0.0249
  105OSM   H14A10639   5.117   0.015  11.076  0.8850  0.5157  0.2103
  105OSM   H14B10640   5.238   0.064  10.957 -0.1818  0.7337 -1.0208
  105OSM   H14C10641   5.129  -0.074  10.926  1.4450 -0.3183  2.2455
  105OSM    C1310642   4.919   0.039  10.876  0.6435  0.1597 -0.0014
  105OSM   H13A10643   4.872   0.024  10.972 -0.2840  1.3703 -0.2429
  105OSM   H13B10644   4.937  -0.053  10.822  1.7597 -1.1681  2.4647
  105OSM   H13C10645   4.854   0.105  10.821  2.1628  0.5012 -1.4739
  105OSM    C1210646   5.099   0.152  10.768 -0.2016 -0.0644 -0.2498
  105OSM   H12A10647   5.121   0.058  10.719 -3.0567 -0.8968 -0.1140
  105OSM   H12B10648   5.199   0.191  10.780 -0.2138  0.3936 -1.4948
  105OSM    C1110649   5.017   0.233  10.666 -0.7442  1.1506  0.5382
  105OSM   H11A10650   4.919   0.181  10.652  0.9502 -2.5717  1.3259
  105OSM   H11B10651   5.065   0.220  10.567 -0.0722  0.1141  0.9882
  105OSM      P10652   4.864   0.441  10.701 -0.4218  0.1849 -0.0881
  105OSM    O1310653   4.766   0.372  10.792  0.4627  0.4066  0.2607
  105OSM    O1410654   4.890   0.588  10.719  0.1072  0.5269 -0.7265
  105OSM    O1110655   4.823   0.419  10.555  0.3709 -0.4610  0.2111
  105OSM    O1210656   5.001   0.367  10.706  0.1357 -0.3525  0.0291
  105OSM    C1S10657   4.894   0.488  10.451 -0.1690  0.1554  0.4087
  105OSM    H1S10658   5.003   0.493  10.474  0.3778 -2.1455 -1.2918
  105OSM    H1T10659   4.855   0.591  10.438 -0.8365 -0.0824  0.4855
  105OSM     NF10660   4.983   0.457  10.220 -0.0156  0.5591 -0.0930
  105OSM    HNF10661   4.946   0.508  10.142  0.8775  0.6318 -0.4917
  105OSM    C2S10662   4.881   0.406  10.316 -1.0597 -0.2830 -0.2946
  105OSM    H2S10663   4.917   0.301  10.327  0.3200 -0.2259 -3.1308
  105OSM    C3S10664   4.735   0.422  10.267 -0.0849  0.1265  0.0044
  105OSM    H3S10665   4.709   0.530  10.262  3.0698  1.0654  1.3410
  105OSM     O310666   4.639   0.363  10.357 -0.3095 -0.1564  0.6726
  105OSM    HO310667   4.694   0.337  10.431 -1.2681 -0.8750  1.1520
  105OSM    C4S10668   4.720   0.371  10.123  0.0653  0.2381 -0.2142
  105OSM    H4S10669   4.674   0.273  10.111 -2.8973  1.3216  1.3345
  105OSM    C5S10670   4.722   0.442  10.006  0.3691 -0.6034 -0.0520
  105OSM    H5S10671   4.750   0.548   9.998  1.4869 -1.0275 -3.2789
  105OSM    C6S10672   4.700   0.380   9.872  0.4168 -0.1764 -1.0573
  105OSM    H6S10673   4.648   0.443   9.797  0.8673  0.1537 -1.0999
  105OSM    H6T10674   4.630   0.294   9.867 -1.0975  0.9705 -0.3641
  105OSM    C7S10675   4.831   0.340   9.804 -0.7891 -0.4561  0.4381
  105OSM    H7S10676   4.859   0.237   9.837  0.0942  0.0835  1.4556
  105OSM    H7T10677   4.916   0.404   9.836  0.3179 -1.3050 -0.7083
  105OSM    C8S10678   4.818   0.349   9.651  0.1962 -0.9450  0.0863
  105OSM    H8S10679   4.761   0.440   9.623  0.5066 -1.0731 -1.0401
  105OSM    H8T10680   4.752   0.263   9.626  0.3383 -1.2554  0.7625
  105OSM    C9S10681   4.954   0.355   9.582  0.4808 -0.3229 -0.3442
  105OSM    H9S10682   5.021   0.276   9.624 -0.0717 -0.6569 -0.0716
  105OSM    H9T10683   5.010   0.442   9.622 -2.3751  1.4358  0.0433
  105OSM   C10S10684   4.959   0.336   9.428 -0.1058  0.1780 -0.1431
  105OSM   H10S10685   4.896   0.408   9.372  1.5608  1.5135 -0.3683
  105OSM   H10T10686   4.912   0.242   9.391 -0.9556  0.9874 -1.1798
  105OSM   C11S10687   5.102   0.353   9.365 -0.0766  0.2510 -0.6071
  105OSM   H11S10688   5.177   0.309   9.433  0.6533 -0.3932 -1.7976
  105OSM   H11T10689   5.122   0.462   9.357 -0.2273  0.1935 -2.0596
  105OSM   C12S10690   5.125   0.298   9.223  0.3869 -0.6603  0.4406
  105OSM   H12S10691   5.095   0.193   9.202  2.4245 -1.1472 -0.1842
  105OSM   H12T10692   5.234   0.304   9.203 -0.1830 -0.3869 -3.4850
  105OSM   C13S10693   5.058   0.388   9.118  0.1553 -0.7943 -0.0780
  105OSM   H13S10694   5.100   0.488   9.140 -1.3018  0.0744 -1.0849
  105OSM   H13T10695   4.948   0.398   9.129  0.1139 -1.5227  0.2199
  105OSM   C14S10696   5.098   0.351   8.975  0.3774 -0.0376 -0.4024
  105OSM   H14S10697   5.057   0.251   8.950  0.0234  0.2179 -0.8341
  105OSM   H14T10698   5.208   0.338   8.987  0.2140  0.4342  2.2100
  105OSM   C15S10699   5.054   0.452   8.868 -1.0094  0.0911 -0.4674
  105OSM   H15S10700   4.947   0.476   8.846 -0.7241  0.0485 -2.0213
  105OSM   H15T10701   5.085   0.409   8.771 -0.1310  0.5660 -0.4086
  105OSM   C16S10702   5.140   0.584   8.891 -0.0678 -0.2351 -0.7049
  105OSM   H16S10703   5.243   0.550   8.917 -0.3739 -1.4025 -0.9582
  105OSM   H16T10704   5.085   0.629   8.977  1.6043  1.7050 -0.5755
  105OSM   C17S10705   5.142   0.674   8.770 -0.0359 -0.1283 -0.4109
  105OSM   H17S10706   5.195   0.626   8.685  2.3198  1.9442 -0.2297
  105OSM   H17T10707   5.198   0.767   8.795  2.4490 -1.3994 -0.9479
  105OSM   C18S10708   4.999   0.714   8.726  0.1245  0.1543 -0.0298
  105OSM   H18S10709   4.959   0.800   8.785 -0.7632  2.6247 -3.8512
  105OSM   H18T10710   4.932   0.625   8.721 -0.0374  0.3071 -0.5819
  105OSM   H18U10711   5.001   0.755   8.623 -2.0486  3.0032  0.9177
  105OSM    C1F10712   5.114   0.446  10.240  0.2981 -0.2346  0.1871
  105OSM     OF10713   5.166   0.385  10.334 -0.2031 -0.0102  0.5064
  105OSM    C2F10714   5.197   0.509  10.126  0.0321  0.3664 -0.2562
  105OSM    H2F10715   5.293   0.453  10.124 -0.5988 -0.7362 -0.5141
  105OSM    H2G10716   5.214   0.612  10.163 -1.6249  0.0237  1.6088
  105OSM    C3F10717   5.151   0.511   9.980 -0.0264 -0.6921  1.0266
  105OSM    H3F10718   5.073   0.590   9.975  1.1549  0.4434 -2.1469
  105OSM    H3G10719   5.099   0.416   9.955 -1.2831 -0.4164  2.4921
  105OSM    C4F10720   5.256   0.566   9.874 -0.1774  0.5335 -0.1544
  105OSM    H4F10721   5.348   0.504   9.887 -0.0633 -0.4934 -4.3287
  105OSM    H4G10722   5.291   0.670   9.889 -1.9216  1.0109  0.7854
  105OSM    C5F10723   5.209   0.535   9.728 -0.0026  0.0010  0.0209
  105OSM    H5F10724   5.113   0.592   9.720 -0.0639 -0.2285 -1.0181
  105OSM    H5G10725   5.202   0.426   9.709  0.5379 -0.1341  0.5951
  105OSM    C6F10726   5.314   0.582   9.631  0.2857  0.5997 -0.0515
  105OSM    H6F10727   5.371   0.669   9.670  1.9121 -0.5317  0.1533
  105OSM    H6G10728   5.265   0.616   9.537 -1.9423 -0.1252  0.7860
  105OSM    C7F10729   5.421   0.482   9.591 -0.2576 -0.0663  0.1184
  105OSM    H7F10730   5.395   0.389   9.536  0.7105 -1.4069  1.8053
  105OSM    H7G10731   5.466   0.444   9.685  1.2212 -0.1753 -0.6007
  105OSM    C8F10732   5.539   0.547   9.517  0.9323 -0.2385  0.3610
  105OSM    H8F10733   5.600   0.456   9.499 -0.3739 -1.3054  1.1716
  105OSM    H8G10734   5.573   0.623   9.591 -1.3922 -0.9177  2.2345
  105OSM    C9F10735   5.490   0.582   9.375 -0.0207 -0.0950 -0.0786
  105OSM    H9F10736   5.453   0.505   9.306 -2.5784 -1.0862  2.2312
  105OSM   C10F10737   5.494   0.705   9.313  0.0688 -0.1746  0.2547
  105OSM   H10F10738   5.449   0.705   9.212  0.8179 -0.5691 -0.0880
  105OSM   C11F10739   5.529   0.842   9.366 -0.0666  0.5254 -0.0821
  105OSM   H11F10740   5.533   0.849   9.477  0.0323 -0.3570 -0.0259
  105OSM   H11G10741   5.467   0.924   9.325  1.0764  1.1292 -0.6525
  105OSM   C12F10742   5.681   0.887   9.342 -0.0143 -0.1922  0.8646
  105OSM   H12F10743   5.750   0.805   9.371  2.3105  1.9767  1.8735
  105OSM   H12G10744   5.696   0.978   9.404 -0.4899  0.9137 -0.6005
  105OSM   C13F10745   5.711   0.924   9.197  0.3157 -0.4305  0.3353
  105OSM   H13F10746   5.642   1.008   9.173  0.7860 -0.5548 -1.6140
  105OSM   H13G10747   5.699   0.835   9.132 -0.9397  0.1073 -0.1946
  105OSM   C14F10748   5.855   0.975   9.185 -0.7164  0.4656  0.0117
  105OSM   H14F10749   5.936   0.900   9.203  0.3094  2.0060  2.3614
  105OSM   H14G10750   5.879   1.046   9.267  2.6543 -2.0429  1.4692
  105OSM   C15F10751   5.890   1.030   9.042 -0.0688 -0.1307  0.6295
  105OSM   H15F10752   5.843   1.131   9.033 -0.6395 -0.4269  0.2259
  105OSM   H15G10753   5.856   0.964   8.959 -0.4126  1.1674 -0.3038
  105OSM   C16F10754   6.041   1.062   9.012  0.1003  0.1274  0.0062
  105OSM   H16F10755   6.094   0.972   9.049  0.1360  1.1385  2.6550
  105OSM   H16G10756   6.065   1.149   9.076 -2.8362  1.0400  0.0208
  105OSM   C17F10757   6.080   1.086   8.866 -0.6144  0.1964  1.0225
  105OSM   H17F10758   6.092   0.984   8.824 -0.8742  0.1920  0.9518
  105OSM   H17G10759   6.177   1.140   8.857  0.3740 -1.7277 -0.7328
  105OSM   C18F10760   5.971   1.165   8.784 -0.0938  0.9812 -0.0360
  105OSM   H18F10761   6.017   1.173   8.684 -1.2505 -0.3345 -0.7190
  105OSM   H18G10762   5.955   1.263   8.833 -1.1293  0.3513  0.9674
  105OSM   H18H10763   5.881   1.100   8.772  0.1796  0.8600 -1.7009
  106OSM      N10764   3.905   6.657  10.412  0.3846  0.0320 -0.0427
  106OSM    C1510765   3.995   6.562  10.491 -0.1671  0.2614  0.6798
  106OSM   H15A10766   4.079   6.620  10.525  0.9310 -2.9370  4.1769
  106OSM   H15B10767   4.044   6.482  10.438 -0.3677 -0.1441  1.0975
  106OSM   H15C10768   3.933   6.532  10.574 -1.7062 -1.6762 -1.0769
  106OSM    C1410769   3.980   6.721  10.303  0.1002  0.3444  0.8672
  106OSM   H14A10770   3.915   6.788  10.249 -0.3751 -0.2675  0.6595
  106OSM   H14B10771   4.013   6.645  10.233  0.3945  0.5623  0.7687
  106OSM   H14C10772   4.063   6.784  10.332  0.0490  0.4655  0.7534
  106OSM    C1310773   3.788   6.588  10.351  0.1661 -0.5973  0.5545
  106OSM   H13A10774   3.813   6.506  10.287  0.2133  0.0807 -0.3093
  106OSM   H13B10775   3.731   6.656  10.289  1.0279 -1.2559 -1.0023
  106OSM   H13C10776   3.729   6.537  10.426  2.2064 -0.0553  2.6480
  106OSM    C1210777   3.858   6.770  10.507  0.2190  0.9911  0.3300
  106OSM   H12A10778   3.798   6.723  10.583  3.0505 -0.3907  1.8486
  106OSM   H12B10779   3.784   6.829  10.454 -0.0095 -0.6647 -1.3012
  106OSM    C1110780   3.954   6.869  10.579 -0.0769 -0.0343 -0.0698
  106OSM   H11A10781   3.889   6.924  10.651  0.2819  0.0392  0.2031
  106OSM   H11B10782   4.001   6.936  10.504  0.6712 -0.1162  0.3136
  106OSM      P10783   4.142   6.855  10.763  0.2108 -0.0905  0.1468
  106OSM    O1310784   4.054   6.885  10.879 -0.0155  0.1240  0.3378
  106OSM    O1410785   4.257   6.770  10.793  0.0763 -0.2700  0.0400
  106OSM    O1110786   4.200   6.999  10.713 -0.2077  0.1677 -0.1292
  106OSM    O1210787   4.056   6.799  10.649  0.0233  0.0038 -0.6700
  106OSM    C1S10788   4.277   6.994  10.588 -0.0908 -0.3364 -0.2641
  106OSM    H1S10789   4.234   6.926  10.511  1.2814 -0.3019 -1.1152
  106OSM    H1T10790   4.374   6.946  10.613 -0.1317 -0.2916 -0.0156
  106OSM     NF10791   4.356   7.141  10.389 -0.0407  0.1644  0.2665
  106OSM    HNF10792   4.447   7.180  10.379  0.2782 -0.4315  0.7448
  106OSM    C2S10793   4.304   7.135  10.526  0.1070 -0.4986 -0.0936
  106OSM    H2S10794   4.204   7.180  10.511 -0.5732 -2.4652 -2.1067
  106OSM    C3S10795   4.384   7.220  10.621  0.6310 -0.0411 -0.2782
  106OSM    H3S10796   4.489   7.183  10.625  0.2503 -1.2424 -0.8228
  106OSM     O310797   4.336   7.220  10.756  0.1701  0.0698 -0.4112
  106OSM    HO310798   4.299   7.132  10.755  1.1436 -0.3412 -0.8234
  106OSM    C4S10799   4.368   7.361  10.573  0.6549 -0.3494  0.0959
  106OSM    H4S10800   4.272   7.410  10.596  0.8899  1.3393 -2.1061
  106OSM    C5S10801   4.462   7.436  10.512 -0.7360  0.2521  0.4104
  106OSM    H5S10802   4.555   7.394  10.471 -0.8947 -0.7233  1.0226
  106OSM    C6S10803   4.443   7.585  10.486 -0.0767  0.2751  0.2206
  106OSM    H6S10804   4.487   7.650  10.565 -1.6276  1.8385 -0.1542
  106OSM    H6T10805   4.334   7.596  10.469 -0.0898  1.1862  0.8281
  106OSM    C7S10806   4.517   7.631  10.363 -0.2131 -1.0809 -0.4131
  106OSM    H7S10807   4.623   7.598  10.360  0.9568  2.2247 -0.0734
  106OSM    H7T10808   4.516   7.742  10.374  1.9047 -0.9072 -1.5924
  106OSM    C8S10809   4.448   7.597  10.230  0.2394  0.2343  0.3004
  106OSM    H8S10810   4.360   7.663  10.214 -0.8495 -0.8931  1.3611
  106OSM    H8T10811   4.406   7.495  10.247 -1.0865  0.8659  1.0110
  106OSM    C9S10812   4.550   7.601  10.106  0.2592 -0.4163  0.2244
  106OSM    H9S10813   4.634   7.529  10.117 -0.5803 -1.2446  1.4363
  106OSM    H9T10814   4.601   7.699  10.119  1.4728 -1.0417  0.3056
  106OSM   C10S10815   4.482   7.580   9.969  0.3585 -0.2936  0.5355
  106OSM   H10S10816   4.399   7.655   9.961  0.4802 -0.1157  0.9123
  106OSM   H10T10817   4.444   7.476   9.966 -0.6766  0.0988 -1.0937
  106OSM   C11S10818   4.574   7.615   9.856 -1.3544 -0.5872  0.3374
  106OSM   H11S10819   4.626   7.521   9.827 -1.7260 -1.2816  1.8253
  106OSM   H11T10820   4.650   7.685   9.896 -0.5595 -1.5376  0.5222
  106OSM   C12S10821   4.518   7.686   9.734  0.6664  0.0543  0.3612
  106OSM   H12S10822   4.599   7.714   9.664 -0.8334 -1.9415 -2.3844
  106OSM   H12T10823   4.455   7.772   9.764  0.7055  0.3801 -0.4538
  106OSM   C13S10824   4.434   7.599   9.635  0.1117 -0.1968  0.2951
  106OSM   H13S10825   4.357   7.546   9.695  0.6407 -0.4566  0.7675
  106OSM   H13T10826   4.494   7.508   9.610 -2.0094 -1.9417  1.2284
  106OSM   C14S10827   4.379   7.655   9.504 -0.0582  0.5219  0.2156
  106OSM   H14S10828   4.469   7.674   9.441 -0.8174 -2.5826 -2.0644
  106OSM   H14T10829   4.324   7.752   9.507  1.5161  1.4978 -0.7564
  106OSM   C15S10830   4.314   7.548   9.429  0.6856 -0.1540 -0.1268
  106OSM   H15S10831   4.226   7.511   9.485  0.4687  1.6316  0.7659
  106OSM   H15T10832   4.384   7.462   9.422  0.5763 -0.4665  1.9843
  106OSM   C16S10833   4.275   7.587   9.286 -0.1569 -0.4648  0.5876
  106OSM   H16S10834   4.358   7.621   9.222  0.4498  0.6773  1.9353
  106OSM   H16T10835   4.210   7.677   9.298  1.9732  1.1864  0.2722
  106OSM   C17S10836   4.195   7.466   9.219 -0.0002 -0.6865  0.9485
  106OSM   H17S10837   4.126   7.421   9.294 -2.0584 -0.5953 -0.7839
  106OSM   H17T10838   4.262   7.379   9.203  0.3320 -0.2312 -0.2596
  106OSM   C18S10839   4.126   7.507   9.090 -0.2048 -0.5086 -0.0040
  106OSM   H18S10840   4.035   7.568   9.106  1.0229  1.2400  0.5906
  106OSM   H18T10841   4.078   7.420   9.040  0.9049  0.0943 -2.2694
  106OSM   H18U10842   4.195   7.550   9.014 -1.7680  0.9338 -0.6873
  106OSM    C1F10843   4.287   7.095  10.281 -0.3596 -0.4851 -0.0135
  106OSM     OF10844   4.187   7.025  10.292 -0.1220  0.0520  0.0515
  106OSM    C2F10845   4.345   7.129  10.146 -0.4169  0.4365  0.0378
  106OSM    H2F10846   4.346   7.036  10.085  0.4607  1.2399 -1.2219
  106OSM    H2G10847   4.453   7.154  10.151 -0.1775 -0.4256 -0.5597
  106OSM    C3F10848   4.272   7.240  10.073 -0.0266 -0.1990  0.8484
  106OSM    H3F10849   4.299   7.336  10.122  0.0163 -0.2920  1.0077
  106OSM    H3G10850   4.162   7.230  10.083 -0.1475  1.6622  1.8330
  106OSM    C4F10851   4.292   7.246   9.917 -0.2519  0.3399 -0.7332
  106OSM    H4F10852   4.399   7.255   9.890 -0.5784 -3.4655 -4.2610
  106OSM    H4G10853   4.241   7.338   9.880 -2.0203  0.1053  0.9557
  106OSM    C5F10854   4.230   7.132   9.839 -0.3973  0.1379  0.2034
  106OSM    H5F10855   4.123   7.121   9.870 -0.2666  2.3398  1.6592
  106OSM    H5G10856   4.280   7.035   9.860  0.6473  0.8761  1.2969
  106OSM    C6F10857   4.248   7.177   9.698 -0.0101 -0.3084 -0.3557
  106OSM    H6F10858   4.213   7.282   9.681  0.4594 -0.0477  0.2742
  106OSM    H6G10859   4.175   7.128   9.630 -0.3932  0.2716 -0.3714
  106OSM    C7F10860   4.390   7.157   9.656  0.0186 -0.5379 -0.1917
  106OSM    H7F10861   4.438   7.076   9.715  1.6852  1.2941  1.1506
  106OSM    H7G10862   4.457   7.244   9.679  0.2756 -0.5015 -1.0277
  106OSM    C8F10863   4.404   7.143   9.498  0.3955 -0.2849  0.3341
  106OSM    H8F10864   4.379   7.241   9.452 -3.2928 -0.4881  1.5947
  106OSM    H8G10865   4.317   7.084   9.464  0.4733 -0.6893  0.8261
  106OSM    C9F10866   4.520   7.070   9.437  0.6640 -0.4593  0.7882
  106OSM    H9F10867   4.563   6.988   9.498 -2.4264 -1.1055  2.3076
  106OSM   C10F10868   4.585   7.097   9.322 -0.1804 -0.6274  1.1766
  106OSM   H10F10869   4.671   7.036   9.292 -0.3381  0.2884 -1.3642
  106OSM   C11F10870   4.536   7.211   9.227 -0.2968 -0.5215 -0.1369
  106OSM   H11F10871   4.634   7.251   9.192  0.2216 -1.9285 -0.3662
  106OSM   H11G10872   4.486   7.287   9.291 -0.0439 -1.6183  1.4525
  106OSM   C12F10873   4.449   7.163   9.111 -0.3623 -0.0241 -0.1321
  106OSM   H12F10874   4.442   7.247   9.038  1.4012 -0.4666 -0.8555
  106OSM   H12G10875   4.352   7.122   9.148 -1.1646  0.3727 -1.7268
  106OSM   C13F10876   4.506   7.044   9.030  0.6007  0.6254 -0.0902
  106OSM   H13F10877   4.440   7.034   8.941 -1.0687  1.4745  1.0069
  106OSM   H13G10878   4.509   6.954   9.095  2.7963  0.7419  0.0229
  106OSM   C14F10879   4.644   7.065   8.968  0.2113  0.5734  0.7818
  106OSM   H14F10880   4.714   7.044   9.052  1.8165 -1.0128 -0.8776
  106OSM   H14G10881   4.647   7.170   8.933 -1.2973  0.5014  0.3270
  106OSM   C15F10882   4.658   6.962   8.862 -0.3258  0.7182  0.0696
  106OSM   H15F10883   4.595   6.988   8.775 -0.3722  3.0136  0.7398
  106OSM   H15G10884   4.634   6.859   8.899  3.4797 -0.9442 -1.5583
  106OSM   C16F10885   4.804   6.942   8.815  0.5042 -0.3149  0.4265
  106OSM   H16F10886   4.848   6.893   8.904 -0.1903 -1.5369  0.1142
  106OSM   H16G10887   4.856   7.040   8.806  0.4237 -0.1388  1.7068
  106OSM   C17F10888   4.801   6.847   8.696  0.4630 -0.2252  0.1502
  106OSM   H17F10889   4.745   6.897   8.615  0.0751 -1.0882 -0.1265
  106OSM   H17G10890   4.747   6.754   8.725  0.2807  0.7266  3.2841
  106OSM   C18F10891   4.940   6.819   8.638 -1.1222  0.9597  0.8071
  106OSM   H18F10892   4.932   6.776   8.536  3.5761 -0.1105  0.6606
  106OSM   H18G10893   4.994   6.743   8.699 -0.0757 -0.4200 -1.6545
  106OSM   H18H10894   4.998   6.914   8.632 -1.0350  0.9238  1.1020
  107OSM      N10895   0.054   4.513  11.071  0.1675  0.1741 -0.5296
  107OSM    C1510896   0.016   4.376  11.123 -0.3616 -0.1635 -0.4523
  107OSM   H15A10897   0.029   4.294  11.053 -1.3314 -0.7410  0.0217
  107OSM   H15B10898  -0.091   4.364  11.135 -0.1281 -0.2601  1.8934
  107OSM   H15C10899   0.070   4.345  11.211 -0.8029 -3.4151 -1.1693
  107OSM    C1410900   0.028   4.612  11.175  0.1853  0.7356  0.0932
  107OSM   H14A10901   0.056   4.714  11.154  1.0634  0.4828 -0.0125
  107OSM   H14B10902   0.085   4.602  11.265  1.8775  0.0488 -1.0038
  107OSM   H14C10903  -0.076   4.622  11.203 -0.5537  0.0116 -2.1284
  107OSM    C1310904   0.196   4.510  11.049 -0.7745  0.3666 -0.8545
  107OSM   H13A10905   0.227   4.443  10.971  0.3638  0.7933 -0.7930
  107OSM   H13B10906   0.248   4.475  11.136  1.1745  0.9002 -1.7525
  107OSM   H13C10907   0.228   4.610  11.023 -0.8324  0.2467 -1.4061
  107OSM    C1210908  -0.021   4.547  10.941  0.5512 -1.0631 -0.5306
  107OSM   H12A10909   0.000   4.650  10.915  0.1664 -1.2323 -1.5543
  107OSM   H12B10910  -0.128   4.537  10.956  0.1688  1.6607 -0.8504
  107OSM    C1110911   0.009   4.464  10.817  0.1100 -0.2744  0.1253
  107OSM   H11A10912   0.110   4.495  10.783  0.3759  0.5562  1.6245
  107OSM   H11B10913  -0.046   4.510  10.732  0.8068  0.9339  0.3122
  107OSM      P10914  -0.158   4.270  10.808  0.2065  0.1510  0.0726
  107OSM    O1310915  -0.146   4.126  10.799  0.3871  0.0516 -0.7102
  107OSM    O1410916  -0.240   4.330  10.917  0.0676  0.0301 -0.3055
  107OSM    O1110917  -0.213   4.328  10.674  0.7948  1.0092  0.9059
  107OSM    O1210918  -0.013   4.325  10.829  0.5507 -0.2955 -0.6891
  107OSM    C1S10919  -0.140   4.288  10.557 -0.4463 -0.2208 -0.8412
  107OSM    H1S10920  -0.105   4.183  10.570  0.3585  0.2783  1.5590
  107OSM    H1T10921  -0.052   4.352  10.537 -1.6260  1.7571 -0.0476
  107OSM     NF10922  -0.149   4.234  10.330 -0.0911  0.3270 -0.2042
  107OSM    HNF10923  -0.110   4.297  10.263 -1.0629  0.1556 -0.9513
  107OSM    C2S10924  -0.232   4.296  10.434 -0.3144 -0.2652 -0.1215
  107OSM    H2S10925  -0.326   4.240  10.455 -1.4072  1.8437  0.9280
  107OSM    C3S10926  -0.265   4.441  10.414  0.4154 -0.1337  0.2435
  107OSM    H3S10927  -0.174   4.500  10.391 -0.3376  0.0938 -2.4141
  107OSM     O310928  -0.327   4.505  10.526  0.5788  0.1203 -0.3185
  107OSM    HO310929  -0.324   4.448  10.602 -0.5433  1.8290  1.0815
  107OSM    C4S10930  -0.340   4.453  10.280 -0.8182  0.7296 -0.7019
  107OSM    H4S10931  -0.277   4.455  10.190  1.7343 -1.3167  0.8791
  107OSM    C5S10932  -0.476   4.454  10.276 -0.2070  0.7446  0.0827
  107OSM    H5S10933  -0.525   4.462  10.374 -0.3633  4.1920 -0.1363
  107OSM    C6S10934  -0.547   4.467  10.147 -0.2829 -0.9951  0.6141
  107OSM    H6S10935  -0.614   4.556  10.149 -0.5717 -1.1531  3.9001
  107OSM    H6T10936  -0.610   4.376  10.133  0.7235 -1.5571 -0.3927
  107OSM    C7S10937  -0.476   4.485  10.014  0.0197 -0.1302  0.4971
  107OSM    H7S10938  -0.423   4.390   9.994  0.6259  0.3380 -0.1549
  107OSM    H7T10939  -0.402   4.565  10.033 -0.0325  0.7926 -2.5497
  107OSM    C8S10940  -0.567   4.510   9.897  0.7241  0.3581 -0.2055
  107OSM    H8S10941  -0.632   4.595   9.925 -1.0173 -1.1954  0.7287
  107OSM    H8T10942  -0.636   4.423   9.888  1.7809 -0.9311  2.8001
  107OSM    C9S10943  -0.479   4.542   9.770 -0.7753  0.2031 -0.6456
  107OSM    H9S10944  -0.396   4.468   9.775  0.0353  1.1854  1.2042
  107OSM    H9T10945  -0.429   4.639   9.789 -2.6750  0.9092  1.0802
  107OSM   C10S10946  -0.552   4.542   9.629  0.5155  0.3776 -0.3990
  107OSM   H10S10947  -0.637   4.614   9.635 -0.2493 -0.5936  1.0980
  107OSM   H10T10948  -0.601   4.443   9.617 -0.4304  0.3390  2.8507
  107OSM   C11S10949  -0.461   4.578   9.513 -0.2515 -0.2557  0.2972
  107OSM   H11S10950  -0.410   4.481   9.496 -1.6914 -1.4233  2.2295
  107OSM   H11T10951  -0.384   4.654   9.537 -1.6228  0.9868  0.9679
  107OSM   C12S10952  -0.541   4.614   9.381 -0.1831 -0.1972 -0.2476
  107OSM   H12S10953  -0.460   4.622   9.306 -0.4802  4.5352 -0.3136
  107OSM   H12T10954  -0.602   4.706   9.392 -0.7640 -0.6151  0.1483
  107OSM   C13S10955  -0.636   4.501   9.336  0.4014  0.1646  0.5110
  107OSM   H13S10956  -0.713   4.469   9.409  2.7954 -1.4685  2.5165
  107OSM   H13T10957  -0.575   4.408   9.338  0.1766  0.0123  0.2161
  107OSM   C14S10958  -0.688   4.522   9.195 -0.0180  0.3956 -0.0998
  107OSM   H14S10959  -0.737   4.621   9.185 -0.6635  0.2077  1.0331
  107OSM   H14T10960  -0.762   4.444   9.168 -0.1098  0.6691 -0.6548
  107OSM   C15S10961  -0.585   4.514   9.083  0.7360 -0.1436 -0.0555
  107OSM   H15S10962  -0.535   4.415   9.087  1.0510 -0.0092 -0.6547
  107OSM   H15T10963  -0.497   4.577   9.110  1.3262  0.0484 -2.2463
  107OSM   C16S10964  -0.650   4.556   8.955  0.1160  0.4654 -0.7315
  107OSM   H16S10965  -0.734   4.628   8.964 -1.5241 -1.6258  3.3739
  107OSM   H16T10966  -0.706   4.463   8.929 -1.4193  1.4168 -0.9490
  107OSM   C17S10967  -0.553   4.606   8.850 -0.2415  0.2257  1.3706
  107OSM   H17S10968  -0.475   4.528   8.836  0.1878  0.8531  0.0580
  107OSM   H17T10969  -0.486   4.687   8.885  2.0296  0.1297 -2.2647
  107OSM   C18S10970  -0.621   4.646   8.722 -0.3224  0.0346  0.6161
  107OSM   H18S10971  -0.546   4.696   8.657 -2.1477  0.6184 -1.1396
  107OSM   H18T10972  -0.702   4.719   8.743 -0.2012 -0.5305  3.4770
  107OSM   H18U10973  -0.671   4.566   8.663  0.5305  1.0007 -1.5127
  107OSM    C1F10974  -0.118   4.104  10.323 -0.2468 -0.4893  0.3080
  107OSM     OF10975  -0.196   4.032  10.383  0.7691  0.0460  0.5247
  107OSM    C2F10976   0.005   4.057  10.236  0.1736  0.1759 -0.0646
  107OSM    H2F10977   0.096   4.119  10.255 -0.7481  1.5388 -0.0001
  107OSM    H2G10978  -0.021   4.075  10.129 -1.3327  2.2877  0.6002
  107OSM    C3F10979   0.041   3.917  10.271  0.1371  0.6004 -0.4170
  107OSM    H3F10980  -0.049   3.855  10.252  0.3990  0.3064 -0.7156
  107OSM    H3G10981   0.063   3.912  10.379  0.6677  1.9675 -0.4432
  107OSM    C4F10982   0.159   3.872  10.188 -0.5696  0.3245  0.5930
  107OSM    H4F10983   0.156   3.762  10.206 -1.2180  0.5656  2.0992
  107OSM    H4G10984   0.261   3.902  10.219  0.6863 -1.3777 -1.5696
  107OSM    C5F10985   0.138   3.890  10.037  0.0438  0.1441  0.1268
  107OSM    H5F10986   0.155   3.998  10.016 -1.5312  1.2810  3.9167
  107OSM    H5G10987   0.032   3.864  10.013  0.3398 -0.6461 -0.3823
  107OSM    C6F10988   0.242   3.811   9.958 -0.0181  0.5104 -0.0230
  107OSM    H6F10989   0.230   3.701   9.967 -0.1051  0.4015 -1.2520
  107OSM    H6G10990   0.344   3.841   9.991  0.1005 -0.3937  0.4480
  107OSM    C7F10991   0.237   3.847   9.808  0.4083 -0.5497  0.2201
  107OSM    H7F10992   0.330   3.802   9.766  0.0398 -1.7151  0.6128
  107OSM    H7G10993   0.243   3.958   9.800  1.0145 -0.5003  1.1866
  107OSM    C8F10994   0.120   3.779   9.733  0.2716  0.1826  0.3531
  107OSM    H8F10995   0.028   3.774   9.795  0.8069 -3.2034  1.1196
  107OSM    H8G10996   0.145   3.672   9.716 -0.0058  0.3986 -1.6164
  107OSM    C9F10997   0.100   3.855   9.600  0.1607 -1.2159  0.1447
  107OSM    H9F10998   0.044   3.949   9.609 -1.6016 -2.0547 -1.4337
  107OSM   C10F10999   0.124   3.834   9.471  0.8410  0.1249  0.1127
  107OSM   H10F11000   0.091   3.903   9.393 -2.4192 -1.5228 -0.1354
  107OSM   C11F11001   0.185   3.717   9.407 -0.6241 -0.1084  0.5974
  107OSM   H11F11002   0.156   3.615   9.441  0.3018 -1.2213 -1.7095
  107OSM   H11G11003   0.296   3.724   9.414 -0.6936  0.3861  1.3385
  107OSM   C12F11004   0.158   3.700   9.250  0.5524  0.5975  0.1598
  107OSM   H12F11005   0.051   3.730   9.241  0.3724  0.1367  0.7184
  107OSM   H12G11006   0.155   3.595   9.213 -3.7043  0.9808 -1.0986
  107OSM   C13F11007   0.242   3.790   9.154  0.0766 -0.4516 -0.1416
  107OSM   H13F11008   0.348   3.757   9.153  0.5770  0.9049 -3.1938
  107OSM   H13G11009   0.224   3.890   9.199 -1.8589 -0.4393 -0.8594
  107OSM   C14F11010   0.179   3.796   9.018 -0.3825  0.6785 -0.1899
  107OSM   H14F11011   0.073   3.829   9.016 -0.7961 -0.6040 -0.6786
  107OSM   H14G11012   0.189   3.694   8.975 -3.2184 -0.1520  0.9034
  107OSM   C15F11013   0.254   3.903   8.931 -0.3248  0.0802 -0.4140
  107OSM   H15F11014   0.230   3.890   8.823  0.0208 -0.2186 -0.4559
  107OSM   H15G11015   0.359   3.870   8.942  0.1690  2.0481  1.7914
  107OSM   C16F11016   0.260   4.049   8.981 -0.1469 -1.0191 -0.3785
  107OSM   H16F11017   0.276   4.044   9.091  1.3047 -3.1732 -0.6208
  107OSM   H16G11018   0.162   4.100   8.970  1.3345  2.5371  1.1979
  107OSM   C17F11019   0.384   4.131   8.937  1.0098  0.1626 -0.2194
  107OSM   H17F11020   0.471   4.062   8.949 -0.7167 -2.4340 -1.5476
  107OSM   H17G11021   0.398   4.226   8.992  0.0995  0.5545 -0.6506
  107OSM   C18F11022   0.381   4.189   8.786 -0.1799  0.2945  0.2927
  107OSM   H18F11023   0.367   4.100   8.721 -1.0167 -0.9029  2.0290
  107OSM   H18G11024   0.470   4.243   8.748 -0.5326 -0.3047 -1.4888
  107OSM   H18H11025   0.301   4.264   8.766  0.0647  0.1597 -1.3835
  108OSM      N11026   3.057   0.176  10.494  0.3681  0.6303 -0.7215
  108OSM    C1511027   3.026   0.035  10.549 -0.1268 -0.1540  0.1909
  108OSM   H15A11028   3.038  -0.036  10.469  1.1744  2.1072 -1.7324
  108OSM   H15B11029   2.922   0.024  10.576  0.0883  0.8287  1.5568
  108OSM   H15C11030   3.095  -0.005  10.623  0.0658  0.2274  0.2213
  108OSM    C1411031   2.953   0.193  10.392  0.0883 -0.3133 -0.3926
  108OSM   H14A11032   2.854   0.198  10.436  0.7910 -2.4701  1.6552
  108OSM   H14B11033   2.946   0.104  10.332 -0.9875 -0.0949 -0.6202
  108OSM   H14C11034   2.978   0.277  10.329  0.9364 -1.1502 -1.1795
  108OSM    C1311035   3.028   0.288  10.595 -0.3250 -0.1571 -0.0656
  108OSM   H13A11036   3.104   0.281  10.670  0.1091 -0.5408 -0.5302
  108OSM   H13B11037   2.937   0.263  10.649 -0.2878 -0.5173 -0.1650
  108OSM   H13C11038   3.021   0.386  10.551  3.4266  0.0618 -0.4246
  108OSM    C1211039   3.199   0.179  10.441 -0.6853 -0.1447  0.1921
  108OSM   H12A11040   3.214   0.267  10.380  1.5037 -0.6459 -0.0730
  108OSM   H12B11041   3.216   0.100  10.370  0.7192  1.6378 -1.5470
  108OSM    C1111042   3.308   0.167  10.551  0.1836 -0.1763  0.9733
  108OSM   H11A11043   3.296   0.251  10.623 -0.3260 -0.2527  0.9767
  108OSM   H11B11044   3.401   0.194  10.495 -0.0901 -1.7885 -0.3158
  108OSM      P11045   3.454  -0.050  10.609  0.0806  0.0947 -0.2309
  108OSM    O1311046   3.560   0.011  10.528  0.0834 -0.1958 -0.4287
  108OSM    O1411047   3.487  -0.085  10.749 -0.2292 -0.2456 -0.1395
  108OSM    O1111048   3.412  -0.189  10.540 -0.2055 -0.0833  0.1053
  108OSM    O1211049   3.315   0.042  10.617  0.4743  0.0778  0.0051
  108OSM    C1S11050   3.290  -0.204  10.467 -0.1535 -0.2036  0.4365
  108OSM    H1S11051   3.270  -0.130  10.387  0.6897 -0.7484 -0.3018
  108OSM    H1T11052   3.208  -0.219  10.540  0.3402  0.9547  1.2629
  108OSM     NF11053   3.186  -0.358  10.295  0.1537 -0.1986  0.2626
  108OSM    HNF11054   3.097  -0.395  10.318 -1.6249  2.5112 -1.6166
  108OSM    C2S11055   3.292  -0.342  10.392 -0.7348 -0.2602 -0.2511
  108OSM    H2S11056   3.384  -0.360  10.332 -1.0768  0.3719 -0.9850
  108OSM    C3S11057   3.286  -0.458  10.501 -0.6878 -0.7044 -0.0241
  108OSM    H3S11058   3.177  -0.454  10.523 -0.6701  0.2594 -0.0663
  108OSM     O311059   3.355  -0.438  10.622 -0.3056 -0.3248 -0.0387
  108OSM    HO311060   3.393  -0.352  10.605 -2.6111  1.0039  1.1268
  108OSM    C4S11061   3.318  -0.593  10.439 -0.0501 -0.1047 -0.0505
  108OSM    H4S11062   3.226  -0.651  10.420 -0.0442 -0.3586  0.6588
  108OSM    C5S11063   3.430  -0.660  10.414 -0.2726 -0.4722  0.0172
  108OSM    H5S11064   3.528  -0.614  10.433 -0.4729 -0.3770  0.8379
  108OSM    C6S11065   3.442  -0.789  10.346  0.5714  0.1346  0.2327
  108OSM    H6S11066   3.352  -0.854  10.344  0.2133  0.5967  0.8810
  108OSM    H6T11067   3.530  -0.841  10.391 -0.0178  0.8249  2.2986
  108OSM    C7S11068   3.483  -0.777  10.198  0.1741  0.0444 -0.4113
  108OSM    H7S11069   3.529  -0.875  10.172  0.5715  0.0205  0.3544
  108OSM    H7T11070   3.553  -0.692  10.183  0.4990 -0.4057 -1.5925
  108OSM    C8S11071   3.365  -0.761  10.112 -0.4600  0.5368 -0.3791
  108OSM    H8S11072   3.319  -0.662  10.135 -1.0838 -0.3995  2.7866
  108OSM    H8T11073   3.295  -0.839  10.148 -1.0801  1.0879 -0.3553
  108OSM    C9S11074   3.384  -0.789   9.968 -1.1392  0.1468 -0.0744
  108OSM    H9S11075   3.291  -0.743   9.928 -1.0392  4.3194  3.6668
  108OSM    H9T11076   3.385  -0.899   9.950  0.2410  0.1908 -0.4232
  108OSM   C10S11077   3.504  -0.725   9.903 -0.5248  0.1573  0.0157
  108OSM   H10S11078   3.589  -0.786   9.938 -0.3085 -0.4432 -1.4892
  108OSM   H10T11079   3.510  -0.618   9.933 -0.1902  0.1159  0.1001
  108OSM   C11S11080   3.506  -0.741   9.751  0.6023 -0.1304 -0.4587
  108OSM   H11S11081   3.411  -0.697   9.712 -1.2049 -2.9451  0.5092
  108OSM   H11T11082   3.531  -0.845   9.723  1.2731  0.1382 -0.8694
  108OSM   C12S11083   3.626  -0.665   9.689  0.7187 -0.0674 -0.0126
  108OSM   H12S11084   3.723  -0.698   9.732  1.5873  1.0615 -1.0172
  108OSM   H12T11085   3.616  -0.559   9.721  0.3800  0.1586 -0.8315
  108OSM   C13S11086   3.642  -0.677   9.540  0.4310  0.1432  0.8457
  108OSM   H13S11087   3.547  -0.631   9.506  0.4982  0.5763  1.2387
  108OSM   H13T11088   3.662  -0.778   9.498  0.6823  0.0794  1.1158
  108OSM   C14S11089   3.764  -0.584   9.490  0.0757  0.3061 -0.0816
  108OSM   H14S11090   3.861  -0.597   9.541  1.0387  0.2640 -1.8399
  108OSM   H14T11091   3.721  -0.482   9.505 -2.1542 -0.9159  2.6626
  108OSM   C15S11092   3.778  -0.599   9.339  0.1521 -0.0094 -0.2933
  108OSM   H15S11093   3.679  -0.559   9.306 -0.3226  0.7267  1.8611
  108OSM   H15T11094   3.786  -0.707   9.316 -1.5506 -0.3915  0.7057
  108OSM   C16S11095   3.892  -0.519   9.278  0.1833  0.4759  0.5933
  108OSM   H16S11096   3.976  -0.554   9.343  0.7940 -2.0734 -1.3778
  108OSM   H16T11097   3.892  -0.408   9.283  0.1894  0.6044 -1.5152
  108OSM   C17S11098   3.934  -0.549   9.128 -0.5226 -0.4794 -0.4790
  108OSM   H17S11099   3.858  -0.510   9.056  0.1895 -0.0962 -1.0377
  108OSM   H17T11100   3.942  -0.659   9.123 -1.8057 -0.6779  1.0946
  108OSM   C18S11101   4.074  -0.498   9.101 -0.3274 -0.2492 -0.6837
  108OSM   H18S11102   4.104  -0.398   9.140  1.6545 -1.6052  1.5738
  108OSM   H18T11103   4.093  -0.506   8.992  0.7215 -0.5249 -0.4969
  108OSM   H18U11104   4.141  -0.578   9.140  0.5667  0.4388 -0.7700
  108OSM    C1F11105   3.195  -0.288  10.178 -0.5515  0.5634 -0.5833
  108OSM     OF11106   3.291  -0.217  10.149  0.0780 -0.3720  0.8039
  108OSM    C2F11107   3.078  -0.300  10.088 -0.3277  0.2580  0.0500
  108OSM    H2F11108   3.024  -0.204  10.095  0.7371  0.8021  1.2450
  108OSM    H2G11109   3.011  -0.374  10.137  0.6655  0.7422  2.2782
  108OSM    C3F11110   3.103  -0.319   9.937 -0.7473  0.2815 -0.2816
  108OSM    H3F11111   3.170  -0.237   9.902  1.5037  0.6233  4.1110
  108OSM    H3G11112   3.008  -0.324   9.879  0.1119  0.2546 -1.7502
  108OSM    C4F11113   3.185  -0.449   9.915  0.1317  0.6462  0.4624
  108OSM    H4F11114   3.174  -0.525   9.994  0.2006 -0.1431 -0.2689
  108OSM    H4G11115   3.295  -0.433   9.916  0.1376  0.6844  2.7920
  108OSM    C5F11116   3.169  -0.507   9.771  0.0705 -0.2777  0.4608
  108OSM    H5F11117   3.063  -0.533   9.748  0.1415  0.6737 -1.0714
  108OSM    H5G11118   3.228  -0.601   9.774  0.6222  0.0768  0.9043
  108OSM    C6F11119   3.224  -0.416   9.660 -0.1768  0.8460  0.1242
  108OSM    H6F11120   3.319  -0.372   9.697  0.1325  0.4576 -0.1929
  108OSM    H6G11121   3.154  -0.334   9.637 -2.0168  0.4323  3.5755
  108OSM    C7F11122   3.260  -0.481   9.526 -0.5291  0.5854 -0.6496
  108OSM    H7F11123   3.159  -0.521   9.500  0.2118  0.0381 -2.9500
  108OSM    H7G11124   3.331  -0.565   9.538 -1.2556 -0.2150 -1.7242
  108OSM    C8F11125   3.324  -0.375   9.430  0.7912 -0.3808  0.6500
  108OSM    H8F11126   3.252  -0.291   9.422  0.6086 -0.7017 -1.8196
  108OSM    H8G11127   3.317  -0.425   9.331 -0.4735  1.6183 -0.3152
  108OSM    C9F11128   3.462  -0.328   9.457 -0.3857  0.1174  0.1396
  108OSM    H9F11129   3.493  -0.336   9.562 -2.6897 -0.1248  0.8474
  108OSM   C10F11130   3.541  -0.262   9.370  0.4452 -0.1889  0.1875
  108OSM   H10F11131   3.644  -0.242   9.404  0.4406 -0.7601  0.5489
  108OSM   C11F11132   3.505  -0.228   9.228  0.4790  0.5122 -0.3755
  108OSM   H11F11133   3.506  -0.117   9.221  0.3291  0.5278 -0.1611
  108OSM   H11G11134   3.397  -0.250   9.208  1.1810 -1.0962 -2.8950
  108OSM   C12F11135   3.598  -0.279   9.123  0.5566 -0.1703  0.0712
  108OSM   H12F11136   3.610  -0.390   9.115 -3.8868 -0.7920 -0.2938
  108OSM   H12G11137   3.699  -0.232   9.132  0.5386 -0.4848  2.6478
  108OSM   C13F11138   3.548  -0.229   8.985 -0.0588  0.1380  0.3129
  108OSM   H13F11139   3.531  -0.120   8.997  3.1344  0.8219 -0.3082
  108OSM   H13G11140   3.451  -0.277   8.964  0.6123 -1.2063  0.2184
  108OSM   C14F11141   3.634  -0.243   8.861  0.7973  1.4270  0.2554
  108OSM   H14F11142   3.729  -0.192   8.888 -0.2757  0.7392  7.0317
  108OSM   H14G11143   3.591  -0.196   8.770  2.2464  0.0163 -1.2225
  108OSM   C15F11144   3.665  -0.395   8.817  0.7360 -0.0645 -0.2838
  108OSM   H15F11145   3.562  -0.429   8.794 -0.9577  3.8585  0.6491
  108OSM   H15G11146   3.702  -0.453   8.903 -0.6877 -0.3854  0.1385
  108OSM   C16F11147   3.753  -0.400   8.691  0.1169 -0.9557  0.5792
  108OSM   H16F11148   3.854  -0.357   8.712 -0.4136  0.6193  0.0891
  108OSM   H16G11149   3.716  -0.329   8.614  0.0257  0.5823  1.9693
  108OSM   C17F11150   3.756  -0.541   8.644  0.2827 -0.1450  0.4843
  108OSM   H17F11151   3.652  -0.552   8.604  0.5776 -1.4038  0.0195
  108OSM   H17G11152   3.772  -0.619   8.722  2.0557 -0.2965  0.0039
  108OSM   C18F11153   3.858  -0.572   8.535 -0.5446 -0.3335  0.5884
  108OSM   H18F11154   3.950  -0.523   8.574 -1.0482  0.4066  0.8681
  108OSM   H18G11155   3.837  -0.531   8.434 -1.3055  1.2094  1.3452
  108OSM   H18H11156   3.866  -0.683   8.528  0.2257 -0.2377 -0.2489
  109OSM      N11157   1.244   4.691  10.758 -0.2345  0.2238 -0.0455
  109OSM    C1511158   1.327   4.585  10.821 -0.3227 -0.0759 -0.2840
  109OSM   H15A11159   1.268   4.500  10.853 -2.3790 -0.0079 -3.4444
  109OSM   H15B11160   1.378   4.630  10.905  0.7991  1.0154 -1.5126
  109OSM   H15C11161   1.400   4.543  10.754  1.8131  0.3647  1.6478
  109OSM    C1411162   1.167   4.633  10.648  0.5261 -0.0015  0.0649
  109OSM   H14A11163   1.121   4.541  10.682 -0.7993  1.2682  1.9116
  109OSM   H14B11164   1.224   4.631  10.557 -1.1467  0.2342 -1.0358
  109OSM   H14C11165   1.083   4.694  10.619  0.1691 -0.4952  0.0312
  109OSM    C1311166   1.150   4.738  10.863 -0.0872  0.5799 -0.6662
  109OSM   H13A11167   1.099   4.655  10.910 -0.8884  1.3968 -0.0382
  109OSM   H13B11168   1.071   4.796  10.816  0.5581 -0.3533 -3.0454
  109OSM   H13C11169   1.201   4.787  10.944 -0.2580  0.6885 -0.6228
  109OSM    C1211170   1.333   4.802  10.717 -0.3779 -0.4940 -0.2822
  109OSM   H12A11171   1.264   4.881  10.694 -0.2793 -0.0926  0.7453
  109OSM   H12B11172   1.392   4.791  10.627 -2.1625  1.1313 -1.7244
  109OSM    C1111173   1.440   4.841  10.825 -0.2021 -0.7199  0.0150
  109OSM   H11A11174   1.529   4.777  10.806 -0.0938 -0.7666  0.6886
  109OSM   H11B11175   1.413   4.834  10.932 -0.2641 -0.1588  0.0389
  109OSM      P11176   1.622   5.026  10.781 -0.0080  0.1814  0.4088
  109OSM    O1311177   1.610   5.166  10.729 -0.8100  0.2771 -0.0647
  109OSM    O1411178   1.714   4.994  10.893 -0.7031  0.8414  0.0089
  109OSM    O1111179   1.670   4.944  10.651 -0.3091  0.7273 -0.2644
  109OSM    O1211180   1.472   4.979  10.801 -0.2971  0.1198 -0.8584
  109OSM    C1S11181   1.593   4.953  10.528 -0.2488 -0.5433 -0.7835
  109OSM    H1S11182   1.612   5.051  10.479 -1.4622  0.2130  0.1993
  109OSM    H1T11183   1.486   4.947  10.557  0.6107 -0.1769  2.9145
  109OSM     NF11184   1.566   4.824  10.315  0.2971 -0.4752  0.1461
  109OSM    HNF11185   1.484   4.769  10.322  1.3895 -2.1189  0.6377
  109OSM    C2S11186   1.639   4.841  10.435 -0.0070  0.6098  0.3603
  109OSM    H2S11187   1.745   4.859  10.408 -0.2537  0.7825 -0.5538
  109OSM    C3S11188   1.640   4.704  10.509  0.6159 -0.3569  0.1162
  109OSM    H3S11189   1.549   4.669  10.562  0.2144 -1.0374 -0.9726
  109OSM     O311190   1.726   4.695  10.622  0.1050 -0.2297 -0.4644
  109OSM    HO311191   1.729   4.789  10.637  0.6531  0.3576 -3.4796
  109OSM    C4S11192   1.678   4.591  10.415 -0.1778  0.6542  1.0126
  109OSM    H4S11193   1.595   4.539  10.364 -0.2353  0.6131  1.1468
  109OSM    C5S11194   1.804   4.561  10.378 -0.3630  0.6535  0.4880
  109OSM    H5S11195   1.878   4.636  10.407  2.0696 -1.6602  0.6911
  109OSM    C6S11196   1.844   4.448  10.286  0.5024 -0.4187  0.1055
  109OSM    H6S11197   1.758   4.404  10.232  0.8849 -1.2722  0.1671
  109OSM    H6T11198   1.879   4.361  10.346  0.4052 -1.9134 -1.8904
  109OSM    C7S11199   1.948   4.490  10.181  0.0131 -0.1716  0.3524
  109OSM    H7S11200   1.977   4.398  10.126 -1.3817  0.3077 -1.2929
  109OSM    H7T11201   2.043   4.521  10.228  1.0882 -0.8751 -1.2548
  109OSM    C8S11202   1.908   4.583  10.077 -0.1784  0.1731 -0.4881
  109OSM    H8S11203   1.879   4.679  10.124  2.1181  0.3537  0.6863
  109OSM    H8T11204   1.811   4.540  10.043 -0.9766  1.0462  0.5950
  109OSM    C9S11205   1.999   4.589   9.955 -0.3987 -0.1702 -0.4153
  109OSM    H9S11206   2.043   4.489   9.936 -0.6974 -0.4590  0.3598
  109OSM    H9T11207   2.083   4.659   9.974  0.4116 -1.0749 -0.5823
  109OSM   C10S11208   1.917   4.654   9.852 -1.0912  0.1806  0.9367
  109OSM   H10S11209   1.898   4.761   9.873 -1.6063  0.0041  1.4126
  109OSM   H10T11210   1.818   4.607   9.830 -0.4307 -0.2884 -1.3062
  109OSM   C11S11211   1.985   4.652   9.713 -0.2386 -0.3478  0.2433
  109OSM   H11S11212   1.996   4.543   9.693  1.3699 -0.8314  3.1654
  109OSM   H11T11213   2.086   4.688   9.741 -0.3323 -1.5747  2.4180
  109OSM   C12S11214   1.910   4.731   9.604 -0.8363  0.2967 -0.6503
  109OSM   H12S11215   1.904   4.829   9.656  1.4078  0.2511 -0.2362
  109OSM   H12T11216   1.804   4.702   9.584 -1.9849  0.9518  3.4318
  109OSM   C13S11217   1.979   4.739   9.470 -0.0027 -0.1012  0.2811
  109OSM   H13S11218   1.957   4.642   9.421 -0.1148 -1.2782  2.5478
  109OSM   H13T11219   2.089   4.743   9.483  0.0721 -1.6342  0.3182
  109OSM   C14S11220   1.924   4.866   9.397 -0.3676  1.1006  0.5125
  109OSM   H14S11221   1.979   4.953   9.439  1.8681  1.3559 -2.5733
  109OSM   H14T11222   1.819   4.872   9.432 -1.0756 -0.1278 -1.2657
  109OSM   C15S11223   1.929   4.851   9.244  0.6468 -0.9360  0.3918
  109OSM   H15S11224   1.881   4.755   9.215 -1.5517 -0.3601  1.8765
  109OSM   H15T11225   2.029   4.864   9.197 -1.1751  1.8517 -3.1857
  109OSM   C16S11226   1.850   4.964   9.185 -0.0300  0.0681 -0.3592
  109OSM   H16S11227   1.904   5.054   9.221 -0.2051 -0.1268  0.4143
  109OSM   H16T11228   1.755   4.957   9.242  0.9733 -2.1837  1.1998
  109OSM   C17S11229   1.822   4.943   9.031 -0.2759 -0.0994  0.6088
  109OSM   H17S11230   1.756   5.024   8.995 -0.9033 -0.5370  0.7538
  109OSM   H17T11231   1.775   4.846   9.004  0.2963 -0.3869  0.6322
  109OSM   C18S11232   1.950   4.959   8.954 -0.4477 -0.2189  0.5941
  109OSM   H18S11233   1.987   5.059   8.986  1.2049 -0.8872  0.8515
  109OSM   H18T11234   1.921   4.973   8.848 -0.9067 -1.3593  0.5550
  109OSM   H18U11235   2.015   4.871   8.968 -0.1657 -0.0206  0.5393
  109OSM    C1F11236   1.565   4.912  10.217  0.7395 -0.0020 -0.0807
  109OSM     OF11237   1.630   5.016  10.232 -0.2569  0.5021  0.3906
  109OSM    C2F11238   1.478   4.896  10.099 -0.7493 -0.3203  0.3671
  109OSM    H2F11239   1.377   4.919  10.139 -0.9345 -1.2114  0.4345
  109OSM    H2G11240   1.497   4.797  10.054  0.9229 -0.0114  0.3261
  109OSM    C3F11241   1.518   5.013   9.994  0.1778  0.4523 -0.0315
  109OSM    H3F11242   1.628   4.998   9.982  0.3159  2.1105 -1.2147
  109OSM    H3G11243   1.503   5.113  10.041 -3.2165  0.5976 -1.1744
  109OSM    C4F11244   1.437   5.016   9.861  0.2448  0.3935  0.7906
  109OSM    H4F11245   1.456   5.102   9.793 -2.1063  1.3738  1.2845
  109OSM    H4G11246   1.332   5.040   9.885 -0.2714  0.4902 -1.3872
  109OSM    C5F11247   1.433   4.891   9.768 -0.0828 -0.0754 -0.0504
  109OSM    H5F11248   1.378   4.810   9.820 -1.3060  1.3528  0.9559
  109OSM    H5G11249   1.537   4.855   9.752  0.8102  2.3404 -0.0214
  109OSM    C6F11250   1.370   4.919   9.639  0.0358 -0.1217 -0.2279
  109OSM    H6F11251   1.281   4.984   9.652  1.3354  1.5369  0.7993
  109OSM    H6G11252   1.356   4.820   9.591  1.7252 -0.1809 -0.6624
  109OSM    C7F11253   1.454   4.996   9.534 -0.3391  0.0404 -0.2271
  109OSM    H7F11254   1.546   4.937   9.514  1.5084  2.6278  0.1379
  109OSM    H7G11255   1.487   5.095   9.573  4.2730 -0.5521 -1.9872
  109OSM    C8F11256   1.375   5.019   9.406  0.2164 -0.5703 -0.0699
  109OSM    H8F11257   1.293   5.092   9.423 -0.0467 -0.8081 -0.3027
  109OSM    H8G11258   1.322   4.925   9.377 -0.7424  0.1306 -0.6862
  109OSM    C9F11259   1.477   5.061   9.299 -0.8976 -0.0730 -0.3378
  109OSM    H9F11260   1.546   5.142   9.326  0.2486 -1.0123 -0.3698
  109OSM   C10F11261   1.488   5.004   9.175 -0.3506 -0.1244 -0.2498
  109OSM   H10F11262   1.571   5.039   9.111  0.6377 -1.7817  0.0579
  109OSM   C11F11263   1.399   4.887   9.127  0.0458 -1.0801  0.3853
  109OSM   H11F11264   1.299   4.921   9.090  0.2696 -1.0529 -0.2069
  109OSM   H11G11265   1.379   4.809   9.204  2.6809 -1.4287  0.7895
  109OSM   C12F11266   1.473   4.807   9.012 -0.3251 -0.7540 -0.3068
  109OSM   H12F11267   1.578   4.785   9.039 -0.1035 -0.2407 -0.7342
  109OSM   H12G11268   1.474   4.874   8.924  1.6685  2.6385  2.0690
  109OSM   C13F11269   1.402   4.677   8.986 -0.0300  0.1198  0.7313
  109OSM   H13F11270   1.291   4.690   8.982 -0.0179 -0.1364 -0.9021
  109OSM   H13G11271   1.437   4.599   9.057  1.5740  0.8058  0.7369
  109OSM   C14F11272   1.433   4.635   8.837  0.3924  0.2168 -1.0334
  109OSM   H14F11273   1.542   4.622   8.818  1.1436 -0.5643  2.9271
  109OSM   H14G11274   1.400   4.715   8.767  1.5552  0.8784 -0.8574
  109OSM   C15F11275   1.363   4.499   8.811 -0.1315 -0.6543 -0.1429
  109OSM   H15F11276   1.254   4.521   8.818 -0.2734 -0.4928 -2.1844
  109OSM   H15G11277   1.386   4.433   8.897  3.1178  0.5494  0.0526
  109OSM   C16F11278   1.410   4.436   8.683 -0.4144  0.6755 -0.2685
  109OSM   H16F11279   1.509   4.479   8.655 -1.1666  1.4383 -1.9325
  109OSM   H16G11280   1.340   4.469   8.603  0.9598  0.6834 -1.5177
  109OSM   C17F11281   1.417   4.286   8.688  0.4324 -0.2395 -0.0236
  109OSM   H17F11282   1.434   4.254   8.582  2.4948  0.5221  0.0401
  109OSM   H17G11283   1.322   4.246   8.730 -0.0063  2.5439  1.8753
  109OSM   C18F11284   1.521   4.232   8.794 -0.1457  0.5003  0.2819
  109OSM   H18F11285   1.626   4.263   8.771 -0.0558 -0.8113 -1.2383
  109OSM   H18G11286   1.517   4.121   8.791 -0.1852  0.5212 -2.0933
  109OSM   H18H11287   1.494   4.243   8.901  0.4510  1.0343  0.3878
  110OSM      N11288   4.273   1.803  10.671 -0.2351  0.0038 -0.3428
  110OSM    C1511289   4.204   1.740  10.784 -0.8621 -0.1867  0.6957
  110OSM   H15A11290   4.126   1.671  10.756  0.0271 -1.2539  0.7917
  110OSM   H15B11291   4.155   1.815  10.845 -0.4987  0.1139  0.6216
  110OSM   H15C11292   4.277   1.696  10.849  0.6974 -0.8573 -1.3845
  110OSM    C1411293   4.403   1.864  10.726  0.1419 -0.2065 -0.2728
  110OSM   H14A11294   4.458   1.911  10.646 -1.6810 -0.4032 -1.7113
  110OSM   H14B11295   4.470   1.790  10.767  1.6424 -0.0530 -2.3246
  110OSM   H14C11296   4.375   1.944  10.793  0.1599 -0.1003 -0.3930
  110OSM    C1311297   4.320   1.694  10.582  0.0488 -0.1337  0.0366
  110OSM   H13A11298   4.393   1.725  10.508  0.7594 -0.2111  0.6952
  110OSM   H13B11299   4.237   1.640  10.538  0.1285  0.4386 -0.8470
  110OSM   H13C11300   4.375   1.618  10.635  0.3048 -0.4813 -0.7103
  110OSM    C1211301   4.196   1.910  10.600  0.5359  0.0972 -0.4887
  110OSM   H12A11302   4.117   1.867  10.540  0.8108 -1.3172  0.1389
  110OSM   H12B11303   4.252   1.970  10.529 -1.9596  0.8765 -1.9196
  110OSM    C1111304   4.132   2.024  10.678 -0.3149 -0.4478  0.4829
  110OSM   H11A11305   4.080   2.099  10.614  0.4901  0.0098  0.3413
  110OSM   H11B11306   4.220   2.080  10.718 -0.7098 -1.1026  2.3405
  110OSM      P11307   3.903   1.968  10.786  0.7862 -0.2578  0.2275
  110OSM    O1311308   3.881   1.822  10.795  0.0471  0.0246 -0.1383
  110OSM    O1411309   3.837   2.051  10.890 -0.3753 -0.0964 -0.1290
  110OSM    O1111310   3.866   2.011  10.646 -0.1047 -0.0661  0.1632
  110OSM    O1211311   4.058   1.984  10.791 -0.8117 -0.0784 -0.0785
  110OSM    C1S11312   3.730   2.043  10.614  0.4224 -0.4268  0.2514
  110OSM    H1S11313   3.687   2.123  10.678  0.4434 -2.2784  2.7393
  110OSM    H1T11314   3.665   1.955  10.632  1.1247 -0.8576  0.7033
  110OSM     NF11315   3.575   2.115  10.436 -0.0826  0.4297  0.1145
  110OSM    HNF11316   3.525   2.056  10.373  2.4166  0.2132 -1.8503
  110OSM    C2S11317   3.714   2.072  10.460 -0.4033 -0.3280 -0.1507
  110OSM    H2S11318   3.789   2.150  10.434 -1.6885  1.4019  1.1159
  110OSM    C3S11319   3.761   1.952  10.371  0.3045  0.4352 -0.1029
  110OSM    H3S11320   3.706   1.860  10.403  3.9436 -1.5213  1.1463
  110OSM     O311321   3.896   1.913  10.399 -0.1827 -0.1104 -0.2712
  110OSM    HO311322   3.913   1.971  10.473 -1.9320  1.9516 -1.3750
  110OSM    C4S11323   3.730   1.978  10.226  0.0403 -0.3622 -1.2422
  110OSM    H4S11324   3.634   1.931  10.198 -1.4756  1.0542  1.2213
  110OSM    C5S11325   3.809   2.059  10.152 -0.0847 -0.3552 -0.1543
  110OSM    H5S11326   3.892   2.109  10.203  0.8228 -0.9772 -0.9796
  110OSM    C6S11327   3.792   2.100  10.010 -0.6910  0.1146  0.1701
  110OSM    H6S11328   3.692   2.068   9.975 -1.2460 -1.7250  3.0691
  110OSM    H6T11329   3.873   2.053   9.950 -0.7107 -1.2352  1.1636
  110OSM    C7S11330   3.809   2.254   9.985  0.1484 -0.5092  0.1910
  110OSM    H7S11331   3.912   2.289  10.006  0.1521 -1.0966  1.2148
  110OSM    H7T11332   3.757   2.313  10.064 -0.0089 -0.6232  0.1718
  110OSM    C8S11333   3.752   2.288   9.848  0.4106  0.0645  0.5129
  110OSM    H8S11334   3.648   2.253   9.829  0.8709 -0.7044 -0.7285
  110OSM    H8T11335   3.814   2.238   9.770  2.4765  0.8774  1.5531
  110OSM    C9S11336   3.764   2.441   9.832  0.6447  0.1414  0.5577
  110OSM    H9S11337   3.868   2.475   9.852  0.4230  1.9562 -1.0265
  110OSM    H9T11338   3.691   2.487   9.903 -2.8272 -1.5093 -1.6787
  110OSM   C10S11339   3.740   2.489   9.692  0.0183  0.0377  0.0759
  110OSM   H10S11340   3.675   2.578   9.702 -2.8691 -1.6218 -2.2581
  110OSM   H10T11341   3.671   2.416   9.644  1.4152 -0.7718 -0.7948
  110OSM   C11S11342   3.863   2.511   9.612 -0.7890  0.5834  0.4027
  110OSM   H11S11343   3.912   2.412   9.603 -0.5643  0.7311 -0.0135
  110OSM   H11T11344   3.928   2.579   9.672 -1.6673  1.5284  0.3016
  110OSM   C12S11345   3.841   2.571   9.474  0.7874  0.2584  0.3906
  110OSM   H12S11346   3.783   2.666   9.479 -0.7305 -0.6676  1.3375
  110OSM   H12T11347   3.775   2.504   9.414  0.7410  0.2196  0.4845
  110OSM   C13S11348   3.980   2.579   9.391  0.3025 -0.9129 -0.4058
  110OSM   H13S11349   4.041   2.487   9.403 -0.3639 -1.0670  2.3878
  110OSM   H13T11350   4.036   2.661   9.440 -2.5877 -0.2136  1.9877
  110OSM   C14S11351   3.957   2.612   9.242 -0.4301 -0.0141 -0.2059
  110OSM   H14S11352   3.911   2.520   9.201 -1.0779 -0.0267  0.5324
  110OSM   H14T11353   4.054   2.625   9.190  0.6011  2.6287  2.1375
  110OSM   C15S11354   3.878   2.739   9.213  0.6017 -0.0122 -0.6192
  110OSM   H15S11355   3.908   2.816   9.287 -0.3996  0.8654 -1.0945
  110OSM   H15T11356   3.768   2.726   9.217  0.6689 -0.2717  1.5581
  110OSM   C16S11357   3.910   2.791   9.068  0.3804 -0.0610  0.0281
  110OSM   H16S11358   4.019   2.789   9.049  0.0724 -1.0710 -1.8533
  110OSM   H16T11359   3.879   2.898   9.065  0.6782  0.0735  1.1257
  110OSM   C17S11360   3.821   2.724   8.961 -0.0155  0.7305 -0.1517
  110OSM   H17S11361   3.716   2.751   8.983 -0.3798 -0.8414  0.1232
  110OSM   H17T11362   3.836   2.614   8.970  0.9245  0.8999  0.5110
  110OSM   C18S11363   3.848   2.768   8.821  0.2302  0.1719  0.6867
  110OSM   H18S11364   3.760   2.748   8.756 -0.0568  0.6952  0.9035
  110OSM   H18T11365   3.934   2.724   8.766 -0.0670  1.8689 -1.2153
  110OSM   H18U11366   3.863   2.878   8.816  0.7332  0.0919  0.3855
  110OSM    C1F11367   3.516   2.229  10.482 -0.8472  0.2629 -0.0802
  110OSM     OF11368   3.583   2.310  10.544  0.1963 -0.2004  0.8944
  110OSM    C2F11369   3.368   2.243  10.476  0.5030  0.1821 -0.2346
  110OSM    H2F11370   3.324   2.200  10.568  0.9917  1.2365  0.5045
  110OSM    H2G11371   3.339   2.173  10.395  0.3327  1.0270 -0.9251
  110OSM    C3F11372   3.311   2.381  10.446 -0.4104 -0.1098 -0.5609
  110OSM    H3F11373   3.332   2.452  10.528 -0.1500  1.3389 -1.8486
  110OSM    H3G11374   3.201   2.365  10.432 -0.8012  2.1831 -0.4101
  110OSM    C4F11375   3.364   2.449  10.318  0.3172 -0.0440 -0.0075
  110OSM    H4F11376   3.475   2.458  10.324  0.3079  2.3911 -1.9313
  110OSM    H4G11377   3.326   2.553  10.312 -1.6464 -0.6890  0.3705
  110OSM    C5F11378   3.328   2.371  10.188  0.4511  0.7097 -0.0079
  110OSM    H5F11379   3.220   2.381  10.164  0.5034  1.1602 -0.0570
  110OSM    H5G11380   3.366   2.269  10.212 -1.2183  0.1897  0.5711
  110OSM    C6F11381   3.415   2.423  10.069  0.0683 -0.0338  0.4819
  110OSM    H6F11382   3.434   2.336  10.002 -0.5406  2.1488 -2.7467
  110OSM    H6G11383   3.512   2.463  10.106 -0.7981  0.5389  2.2590
  110OSM    C7F11384   3.344   2.531   9.996 -0.2496 -0.6107  1.8606
  110OSM    H7F11385   3.284   2.590  10.069  1.9095  0.8601  2.5523
  110OSM    H7G11386   3.275   2.481   9.925 -1.6911  2.7197  0.7103
  110OSM    C8F11387   3.436   2.603   9.894  0.2716  0.5614 -0.3392
  110OSM    H8F11388   3.457   2.544   9.801 -3.5116  0.6481 -1.4178
  110OSM    H8G11389   3.529   2.612   9.954 -0.3355 -1.2655  0.9488
  110OSM    C9F11390   3.381   2.737   9.857  0.0062 -0.1250 -0.4600
  110OSM    H9F11391   3.362   2.804   9.942 -0.2939  0.0140 -0.6379
  110OSM   C10F11392   3.348   2.780   9.731  0.0606 -0.2036  0.2537
  110OSM   H10F11393   3.304   2.881   9.717 -2.4800 -1.3184 -0.4538
  110OSM   C11F11394   3.362   2.711   9.595 -0.1233 -0.0748  0.0656
  110OSM   H11F11395   3.391   2.605   9.605 -1.3971 -0.3934  0.5498
  110OSM   H11G11396   3.446   2.763   9.543 -0.3353  0.9309  0.6963
  110OSM   C12F11397   3.243   2.694   9.499 -0.5977 -0.6245  0.4060
  110OSM   H12F11398   3.157   2.652   9.555 -1.7428 -0.4239 -1.1396
  110OSM   H12G11399   3.272   2.621   9.421 -0.3061 -1.4501  1.2591
  110OSM   C13F11400   3.199   2.832   9.440 -0.1299 -0.8561  0.4335
  110OSM   H13F11401   3.271   2.855   9.358 -1.9095  2.7090 -0.3585
  110OSM   H13G11402   3.200   2.916   9.513  1.3101  0.0672 -0.5907
  110OSM   C14F11403   3.060   2.837   9.380  0.7517 -0.2458  0.0609
  110OSM   H14F11404   2.998   2.835   9.472 -0.0493  0.5014 -0.4497
  110OSM   H14G11405   3.031   2.744   9.327 -0.9041 -0.4236  1.2266
  110OSM   C15F11406   3.027   2.971   9.310  0.3549  0.1812 -0.7580
  110OSM   H15F11407   3.061   3.059   9.367  0.8489  0.1005 -0.9188
  110OSM   H15G11408   2.916   2.976   9.311  0.3563  0.9094  1.8801
  110OSM   C16F11409   3.089   2.982   9.166 -0.8596  0.1385  0.7651
  110OSM   H16F11410   3.118   2.876   9.147 -0.7847  0.7086 -3.0139
  110OSM   H16G11411   3.174   3.052   9.172 -0.7114 -0.0052  0.3573
  110OSM   C17F11412   2.981   3.020   9.063  0.0573 -0.4736  0.5221
  110OSM   H17F11413   2.927   3.113   9.093 -0.7742  0.4445 -3.2816
  110OSM   H17G11414   2.910   2.937   9.081  1.5480 -1.5161  1.8197
  110OSM   C18F11415   3.012   3.003   8.917  0.5674  0.1178  0.1614
  110OSM   H18F11416   2.918   2.982   8.861  0.7083  0.5040 -0.2268
  110OSM   H18G11417   3.086   2.924   8.892  0.1343 -0.8362  1.7767
  110OSM   H18H11418   3.042   3.101   8.873  0.7920 -0.2809 -0.5986
  111OSM      N11419   4.961   1.454  11.045  0.1435  0.1773 -0.2788
  111OSM    C1511420   5.081   1.396  10.984 -0.0714 -0.1893  0.3872
  111OSM   H15A11421   5.172   1.442  11.019 -1.2358  2.1547  0.5276
  111OSM   H15B11422   5.075   1.412  10.877 -2.4020 -1.4963  0.2577
  111OSM   H15C11423   5.077   1.288  10.991 -0.6145 -0.2132 -0.2103
  111OSM    C1411424   4.962   1.432  11.194  0.1681 -0.5021 -0.2674
  111OSM   H14A11425   4.889   1.499  11.237  0.0726  0.3194 -1.6418
  111OSM   H14B11426   5.059   1.453  11.235 -0.0046 -0.4254  0.1024
  111OSM   H14C11427   4.935   1.331  11.221  1.1037 -0.3816  1.2290
  111OSM    C1311428   4.962   1.600  11.024  0.4553  0.4119 -0.2004
  111OSM   H13A11429   5.052   1.640  11.069  1.5581  0.4521 -2.3503
  111OSM   H13B11430   4.883   1.659  11.068 -0.2424  1.7623 -3.0701
  111OSM   H13C11431   4.951   1.629  10.921 -2.2165  1.0399  0.1847
  111OSM    C1211432   4.829   1.410  10.989 -0.3198  0.6829  0.1387
  111OSM   H12A11433   4.755   1.469  11.041  0.4550  0.1372  1.9662
  111OSM   H12B11434   4.807   1.310  11.023 -1.3873  0.7584 -0.2861
  111OSM    C1111435   4.806   1.424  10.837 -0.2851  0.5066  0.4771
  111OSM   H11A11436   4.708   1.376  10.818 -1.0347  1.3740  1.9789
  111OSM   H11B11437   4.872   1.362  10.773 -1.1410  0.4305 -0.3592
  111OSM      P11438   4.720   1.647  10.754 -0.1398  0.1773  0.0713
  111OSM    O1311439   4.612   1.620  10.846  0.5178  0.5312 -0.0890
  111OSM    O1411440   4.784   1.782  10.751 -0.0177 -0.3094  0.2713
  111OSM    O1111441   4.671   1.604  10.607  0.2912 -0.3958  0.1039
  111OSM    O1211442   4.837   1.551  10.784 -0.3706 -0.5576 -0.0775
  111OSM    C1S11443   4.754   1.524  10.528 -0.6212 -0.3552 -0.5553
  111OSM    H1S11444   4.752   1.422  10.570 -0.4341  0.1641  0.7452
  111OSM    H1T11445   4.856   1.567  10.519 -1.0856  0.3787 -3.4269
  111OSM     NF11446   4.808   1.428  10.299 -0.4025  0.0337 -0.2889
  111OSM    HNF11447   4.861   1.479  10.232 -1.2276 -0.2193 -1.1587
  111OSM    C2S11448   4.710   1.505  10.375 -0.5307 -0.0619  0.7309
  111OSM    H2S11449   4.619   1.441  10.377 -0.4728 -0.1389  0.9622
  111OSM    C3S11450   4.674   1.639  10.309 -0.0092  0.1314  0.5073
  111OSM    H3S11451   4.764   1.693  10.272  0.3027 -0.9897 -0.4151
  111OSM     O311452   4.602   1.730  10.397 -0.3289 -0.4387 -0.1326
  111OSM    HO311453   4.611   1.684  10.480  0.2887 -1.6573 -0.8475
  111OSM    C4S11454   4.585   1.616  10.191  0.4984 -0.0430 -0.0623
  111OSM    H4S11455   4.481   1.591  10.218  1.8461 -3.0520  3.2011
  111OSM    C5S11456   4.622   1.634  10.060 -0.0699  0.2421 -0.4801
  111OSM    H5S11457   4.722   1.672  10.036  0.7419 -1.1254  0.5646
  111OSM    C6S11458   4.533   1.625   9.945  0.1576  0.0570  0.0745
  111OSM    H6S11459   4.461   1.541   9.951  0.4027 -0.0932  1.1792
  111OSM    H6T11460   4.589   1.609   9.851  0.8120  1.2154  0.2411
  111OSM    C7S11461   4.460   1.766   9.936  0.3616  0.2247 -0.3182
  111OSM    H7S11462   4.539   1.843   9.925  0.9497 -0.1502  1.0124
  111OSM    H7T11463   4.401   1.781  10.030  0.0916 -0.0150 -0.4467
  111OSM    C8S11464   4.384   1.795   9.805 -0.3117 -0.2959  0.0963
  111OSM    H8S11465   4.343   1.898   9.813 -0.9445 -0.5018 -0.4358
  111OSM    H8T11466   4.299   1.725   9.800  0.5498 -1.5236  1.5947
  111OSM    C9S11467   4.467   1.773   9.671 -0.8488 -0.6222 -0.4066
  111OSM    H9S11468   4.465   1.668   9.634 -0.5871 -1.9248  2.9128
  111OSM    H9T11469   4.573   1.802   9.686 -0.8099  0.4807 -2.4719
  111OSM   C10S11470   4.416   1.865   9.558  0.2861 -0.3715  0.4223
  111OSM   H10S11471   4.415   1.974   9.579 -1.2290 -0.3716  0.4959
  111OSM   H10T11472   4.312   1.833   9.534  0.4307  0.4617 -1.5005
  111OSM   C11S11473   4.513   1.857   9.433 -0.8250  0.2021 -0.2033
  111OSM   H11S11474   4.620   1.857   9.464 -0.5672 -0.5220 -1.0582
  111OSM   H11T11475   4.499   1.947   9.369 -0.0961  0.9216  0.6146
  111OSM   C12S11476   4.476   1.737   9.345  0.0164  0.8570 -0.9065
  111OSM   H12S11477   4.369   1.753   9.320 -0.5741 -1.6466 -0.2891
  111OSM   H12T11478   4.479   1.647   9.411 -2.7233  1.0863 -0.3345
  111OSM   C13S11479   4.564   1.722   9.218 -0.0219 -0.0759  0.2713
  111OSM   H13S11480   4.667   1.697   9.249 -0.4864 -0.7630  1.3112
  111OSM   H13T11481   4.568   1.822   9.169 -0.0531 -0.8710 -1.4437
  111OSM   C14S11482   4.504   1.615   9.126  0.2337  0.2163  0.6612
  111OSM   H14S11483   4.394   1.613   9.135  0.2214  1.3668  0.8807
  111OSM   H14T11484   4.536   1.516   9.164 -1.0632 -0.1783  0.7741
  111OSM   C15S11485   4.550   1.619   8.980 -0.4047  0.4517  0.3133
  111OSM   H15S11486   4.508   1.535   8.921 -0.9130 -0.5481  2.0168
  111OSM   H15T11487   4.657   1.594   8.994 -0.2488 -0.1209 -1.6622
  111OSM   C16S11488   4.526   1.750   8.894  0.1328  0.0031  0.2812
  111OSM   H16S11489   4.579   1.835   8.943  1.8964 -0.8590 -0.0534
  111OSM   H16T11490   4.417   1.771   8.904 -0.5220 -2.0674 -1.7779
  111OSM   C17S11491   4.553   1.726   8.747  0.0665  0.0610 -0.2862
  111OSM   H17S11492   4.459   1.686   8.704 -1.6706  3.9776 -0.5858
  111OSM   H17T11493   4.634   1.651   8.731  0.8655  1.4084 -3.4429
  111OSM   C18S11494   4.598   1.859   8.685 -0.0684  0.3532  0.4599
  111OSM   H18S11495   4.701   1.882   8.721  1.3379 -0.7148 -2.5741
  111OSM   H18T11496   4.536   1.943   8.723  0.6954  1.4322 -0.6181
  111OSM   H18U11497   4.611   1.861   8.575  1.0778  3.0761  0.5613
  111OSM    C1F11498   4.846   1.305  10.318  0.1899  0.9500  0.5200
  111OSM     OF11499   4.776   1.235  10.390  0.1601  0.7845  0.7220
  111OSM    C2F11500   4.964   1.249  10.238 -0.2027  1.0256  0.2532
  111OSM    H2F11501   5.052   1.238  10.305 -0.2375 -2.3247 -0.0860
  111OSM    H2G11502   4.984   1.326  10.161 -1.5069 -1.6345 -3.0119
  111OSM    C3F11503   4.919   1.106  10.193 -0.4122 -0.3567  0.9944
  111OSM    H3F11504   4.914   1.028  10.271  0.0746 -0.1432  1.2383
  111OSM    H3G11505   4.994   1.068  10.120  1.2172  1.2033  1.7799
  111OSM    C4F11506   4.782   1.111  10.117 -0.4325  0.7350 -0.7893
  111OSM    H4F11507   4.712   1.121  10.203  2.7451 -1.5355  2.3611
  111OSM    H4G11508   4.755   1.009  10.083  1.1530  0.0862 -0.2219
  111OSM    C5F11509   4.780   1.207   9.999 -0.0471  0.0396 -0.4180
  111OSM    H5F11510   4.874   1.201   9.940 -0.2062  1.7230 -0.8852
  111OSM    H5G11511   4.790   1.306  10.048 -0.8324  0.4538 -1.0807
  111OSM    C6F11512   4.650   1.196   9.917  0.3470 -0.0332 -0.4480
  111OSM    H6F11513   4.568   1.223   9.986  0.9524  0.6688  0.0105
  111OSM    H6G11514   4.647   1.087   9.893 -2.4890  0.4431 -2.9318
  111OSM    C7F11515   4.661   1.282   9.788  0.2911  0.4197  0.0176
  111OSM    H7F11516   4.750   1.266   9.724 -0.0994  2.9467 -1.2772
  111OSM    H7G11517   4.682   1.386   9.821 -0.7933 -0.0090  2.2783
  111OSM    C8F11518   4.535   1.273   9.704 -0.0292  0.1178 -0.2426
  111OSM    H8F11519   4.448   1.298   9.768  0.3042  2.1279 -0.5349
  111OSM    H8G11520   4.527   1.166   9.674 -0.4010  0.2105 -0.4926
  111OSM    C9F11521   4.543   1.361   9.580 -0.0715 -0.0070 -0.9681
  111OSM    H9F11522   4.518   1.467   9.598 -2.2066 -0.5319 -0.5738
  111OSM   C10F11523   4.571   1.330   9.452 -1.0066 -0.1443 -0.4384
  111OSM   H10F11524   4.576   1.408   9.374  4.6817  1.3811  1.0358
  111OSM   C11F11525   4.619   1.191   9.411  0.8251  0.0014  0.4930
  111OSM   H11F11526   4.638   1.131   9.503 -2.2210  1.3340  2.1416
  111OSM   H11G11527   4.714   1.193   9.354  0.5960 -2.2946 -0.0348
  111OSM   C12F11528   4.519   1.132   9.315  0.2707  0.5305 -0.1498
  111OSM   H12F11529   4.429   1.122   9.379  1.1918  0.5236  1.1721
  111OSM   H12G11530   4.552   1.029   9.289 -1.6382 -0.7158  2.0535
  111OSM   C13F11531   4.493   1.208   9.185  0.0493 -0.4857  0.1380
  111OSM   H13F11532   4.589   1.218   9.130 -0.8008  2.2413 -1.0562
  111OSM   H13G11533   4.449   1.309   9.200  1.6160  0.3111 -0.3464
  111OSM   C14F11534   4.397   1.126   9.092  0.3977  0.4360 -0.3505
  111OSM   H14F11535   4.305   1.103   9.150  0.0678  0.0769 -1.0033
  111OSM   H14G11536   4.450   1.034   9.061  0.0861  0.6756 -1.6835
  111OSM   C15F11537   4.366   1.200   8.958  0.3517 -0.1720  0.3359
  111OSM   H15F11538   4.460   1.245   8.919  0.7038 -1.6063 -0.5458
  111OSM   H15G11539   4.300   1.287   8.977  2.1687  1.6682 -1.4073
  111OSM   C16F11540   4.317   1.098   8.846 -0.7362  0.4187  0.3956
  111OSM   H16F11541   4.390   1.015   8.849  0.3665  1.3724  0.5039
  111OSM   H16G11542   4.323   1.149   8.747  0.0767 -1.8601 -0.7978
  111OSM   C17F11543   4.185   1.025   8.866 -0.1264 -0.4928  0.0824
  111OSM   H17F11544   4.196   0.950   8.947 -0.7905 -0.0027  0.6386
  111OSM   H17G11545   4.168   0.977   8.768 -1.9677  2.9367 -1.4587
  111OSM   C18F11546   4.062   1.109   8.884 -0.0505 -0.2878  0.1449
  111OSM   H18F11547   4.071   1.157   8.984 -1.0593  0.6479 -0.2010
  111OSM   H18G11548   3.973   1.043   8.880 -0.8110  0.7368 -0.1087
  111OSM   H18H11549   4.049   1.193   8.814  0.1253  2.3741  3.0936
  112OSM      N11550   4.447   5.623  10.987 -0.3741  0.5510  0.3028
  112OSM    C1511551   4.586   5.672  11.014 -0.9210 -0.3563 -0.1530
  112OSM   H15A11552   4.605   5.769  10.971  1.0667 -1.5609 -2.2598
  112OSM   H15B11553   4.669   5.615  10.975 -0.7073 -1.3108  1.6016
  112OSM   H15C11554   4.598   5.667  11.121 -0.5028  0.1573 -0.1764
  112OSM    C1411555   4.430   5.479  11.036  0.1122  0.5038  0.0163
  112OSM   H14A11556   4.455   5.475  11.141  0.0746 -0.9799 -0.0087
  112OSM   H14B11557   4.496   5.416  10.978  0.2443  1.0077 -0.3820
  112OSM   H14C11558   4.330   5.447  11.012 -0.5992  2.4456  0.2183
  112OSM    C1311559   4.345   5.706  11.056  0.7595  0.9056 -0.2176
  112OSM   H13A11560   4.243   5.673  11.044  0.8415  0.8394 -0.7708
  112OSM   H13B11561   4.354   5.807  11.016  0.6511  1.5802  1.3999
  112OSM   H13C11562   4.376   5.701  11.159 -2.3486 -1.8312  0.7288
  112OSM    C1211563   4.418   5.620  10.841  0.1710 -0.0422  0.1871
  112OSM   H12A11564   4.497   5.578  10.781 -0.9447  0.2603 -1.5760
  112OSM   H12B11565   4.418   5.723  10.808 -1.9929 -0.1065 -0.1705
  112OSM    C1111566   4.288   5.556  10.788 -0.5487  0.9434  0.4308
  112OSM   H11A11567   4.301   5.447  10.801  0.9152  1.1647  1.0508
  112OSM   H11B11568   4.280   5.575  10.679 -0.7087  1.5458  0.5423
  112OSM      P11569   4.059   5.518  10.902 -0.1512  0.1826 -0.1825
  112OSM    O1311570   4.108   5.414  10.991 -0.2299  0.3418  0.2975
  112OSM    O1411571   3.951   5.607  10.950  0.3180 -0.9151 -0.3696
  112OSM    O1111572   4.023   5.465  10.761  0.4300  0.1375  0.0398
  112OSM    O1211573   4.178   5.606  10.851 -0.0498 -1.0018 -0.4535
  112OSM    C1S11574   4.045   5.330  10.725 -0.0441  0.0219 -0.4237
  112OSM    H1S11575   3.985   5.256  10.783  0.2324 -2.2474 -2.8496
  112OSM    H1T11576   4.143   5.290  10.759  0.5435  1.0064 -0.9398
  112OSM     NF11577   4.065   5.136  10.567  0.2966  0.0677  0.1232
  112OSM    HNF11578   4.157   5.117  10.534  1.3359 -0.8859  3.2308
  112OSM    C2S11579   4.038   5.278  10.577  0.0333 -0.6221 -0.2595
  112OSM    H2S11580   3.935   5.300  10.541  0.0951 -3.2991 -2.4647
  112OSM    C3S11581   4.135   5.365  10.491 -0.5237 -0.7351  0.7683
  112OSM    H3S11582   4.236   5.343  10.533 -0.4458 -1.5550  0.1874
  112OSM     O311583   4.117   5.503  10.504 -0.3953  0.1994  0.1140
  112OSM    HO311584   4.064   5.507  10.584 -0.9769  0.8725 -0.2934
  112OSM    C4S11585   4.132   5.315  10.350 -0.4337  0.9146  0.4445
  112OSM    H4S11586   4.221   5.255  10.327 -0.8549  1.0482 -1.6736
  112OSM    C5S11587   4.043   5.337  10.250 -0.0249 -0.1958  0.0709
  112OSM    H5S11588   3.970   5.419  10.256 -0.8008 -0.5392 -2.9283
  112OSM    C6S11589   4.049   5.273  10.115  0.2343  0.5622 -0.2823
  112OSM    H6S11590   4.144   5.216  10.106 -0.6325 -0.8418 -0.8452
  112OSM    H6T11591   4.060   5.355  10.040  0.0558  0.4255 -0.4575
  112OSM    C7S11592   3.930   5.181  10.069  0.6760 -0.5785 -0.1366
  112OSM    H7S11593   3.832   5.235  10.066 -0.2968 -2.2951 -2.2563
  112OSM    H7T11594   3.927   5.101  10.146 -0.1789  1.4662  2.0816
  112OSM    C8S11595   3.959   5.131   9.930  1.3311  0.1728  0.3109
  112OSM    H8S11596   3.891   5.043   9.923  1.6131 -0.0250  0.0276
  112OSM    H8T11597   4.066   5.100   9.929  1.0931 -0.7104 -1.0164
  112OSM    C9S11598   3.921   5.222   9.806 -0.9536 -0.0922 -0.1636
  112OSM    H9S11599   3.987   5.311   9.815 -1.2999 -0.0200  2.3876
  112OSM    H9T11600   3.811   5.239   9.812 -0.6591  1.5820  1.3552
  112OSM   C10S11601   3.946   5.152   9.671 -0.1777 -0.1544  0.2913
  112OSM   H10S11602   3.897   5.220   9.598 -0.8504  0.5626  1.3874
  112OSM   H10T11603   3.897   5.053   9.668  1.0564 -0.7704 -0.3891
  112OSM   C11S11604   4.098   5.144   9.642  0.4034  0.0152 -0.2071
  112OSM   H11S11605   4.146   5.060   9.697 -1.0067 -0.3422  0.5187
  112OSM   H11T11606   4.142   5.237   9.685 -0.5917  1.2454 -1.7621
  112OSM   C12S11607   4.132   5.115   9.495  0.0443  0.7404 -0.0298
  112OSM   H12S11608   4.242   5.116   9.480  0.5334 -1.7963  2.5491
  112OSM   H12T11609   4.080   5.195   9.438  0.5884  0.2753 -1.1997
  112OSM   C13S11610   4.063   4.990   9.441 -0.4711 -0.4353 -0.3670
  112OSM   H13S11611   3.954   5.010   9.435 -0.4552 -0.3738 -0.4553
  112OSM   H13T11612   4.084   4.896   9.496  1.4612  0.5647  0.6856
  112OSM   C14S11613   4.119   4.976   9.295  0.4122 -0.3067  0.1024
  112OSM   H14S11614   4.118   4.870   9.263  0.9381 -0.0713 -0.7466
  112OSM   H14T11615   4.228   4.995   9.285  0.2662 -0.4177 -2.2706
  112OSM   C15S11616   4.047   5.062   9.193  0.7134 -0.5997 -0.4510
  112OSM   H15S11617   4.045   5.168   9.229  1.6805 -1.2403  1.6690
  112OSM   H15T11618   3.940   5.033   9.198 -0.0061  1.7084 -1.0894
  112OSM   C16S11619   4.112   5.051   9.057  0.6398 -0.1543 -0.2690
  112OSM   H16S11620   4.135   4.944   9.039 -0.1424 -0.2400 -0.7861
  112OSM   H16T11621   4.211   5.100   9.065  1.2743 -1.4604  0.1646
  112OSM   C17S11622   4.038   5.109   8.934  0.7503 -0.2708 -0.6433
  112OSM   H17S11623   3.957   5.034   8.924 -0.6888  0.7803  2.0025
  112OSM   H17T11624   4.104   5.108   8.845  1.6853  2.5417 -0.1071
  112OSM   C18S11625   3.968   5.244   8.950  0.0981 -0.4426 -0.0450
  112OSM   H18S11626   4.040   5.328   8.961  0.1388 -0.3268 -1.1089
  112OSM   H18T11627   3.902   5.254   9.039 -0.9364 -0.0729 -0.8353
  112OSM   H18U11628   3.908   5.275   8.862  1.6839  0.6781 -0.7772
  112OSM    C1F11629   3.976   5.044  10.595 -0.6190  0.1784 -0.4326
  112OSM     OF11630   3.859   5.074  10.621  0.4194  0.2125 -0.1397
  112OSM    C2F11631   4.020   4.907  10.601 -0.3302  0.3263 -0.6708
  112OSM    H2F11632   4.018   4.869  10.706 -0.0489 -1.4976 -1.2993
  112OSM    H2G11633   4.122   4.898  10.558  0.3171 -1.4638  1.0557
  112OSM    C3F11634   3.929   4.816  10.525  0.5009  0.0821  0.5170
  112OSM    H3F11635   3.831   4.816  10.577  1.1742  1.8306  1.9071
  112OSM    H3G11636   3.967   4.712  10.532 -0.8551 -0.4040  0.8161
  112OSM    C4F11637   3.908   4.856  10.377 -0.1809  0.0967 -0.3675
  112OSM    H4F11638   4.013   4.861  10.340  1.0240  0.4083  2.7325
  112OSM    H4G11639   3.857   4.955  10.377 -1.6327 -0.6181  0.3840
  112OSM    C5F11640   3.833   4.744  10.312 -0.1092 -0.1585 -0.4807
  112OSM    H5F11641   3.741   4.728  10.374  1.0846  2.7171  2.3046
  112OSM    H5G11642   3.894   4.652  10.327 -0.1362 -0.0092  0.6723
  112OSM    C6F11643   3.791   4.766  10.169  0.0691 -0.3781  0.0103
  112OSM    H6F11644   3.750   4.868  10.154 -0.4925 -0.4731  0.8386
  112OSM    H6G11645   3.708   4.693  10.157  0.0809 -0.5354  0.8307
  112OSM    C7F11646   3.907   4.754  10.067 -0.3270  0.9557  0.1475
  112OSM    H7F11647   3.982   4.697  10.125 -1.8502 -0.0149  1.2116
  112OSM    H7G11648   3.960   4.849  10.043  2.2531 -0.4471 -0.0385
  112OSM    C8F11649   3.863   4.672   9.940  0.0980 -0.0874  0.2473
  112OSM    H8F11650   3.810   4.578   9.969 -3.9977  0.7946 -3.3060
  112OSM    H8G11651   3.956   4.655   9.882 -0.3108 -0.4416 -0.3096
  112OSM    C9F11652   3.769   4.746   9.860  0.2195  0.2040  0.6471
  112OSM    H9F11653   3.692   4.806   9.909 -0.7138  0.0850 -0.6337
  112OSM   C10F11654   3.765   4.745   9.726  0.1199 -0.5822  0.1738
  112OSM   H10F11655   3.688   4.805   9.675 -0.4202  0.2557  1.8921
  112OSM   C11F11656   3.861   4.674   9.629  0.0806 -0.0454  0.4881
  112OSM   H11F11657   3.899   4.576   9.665  2.5489  0.4844 -0.4726
  112OSM   H11G11658   3.952   4.738   9.623 -1.5404  2.2895 -2.7337
  112OSM   C12F11659   3.804   4.650   9.484  0.0360  0.2889  0.1512
  112OSM   H12F11660   3.769   4.744   9.436 -0.8731 -0.1315 -0.0307
  112OSM   H12G11661   3.712   4.587   9.486  1.3363 -1.7265  0.4926
  112OSM   C13F11662   3.914   4.598   9.385 -0.1925  0.6520  0.0274
  112OSM   H13F11663   3.931   4.491   9.408  1.6208  0.9244  0.1067
  112OSM   H13G11664   4.007   4.656   9.403  0.7581 -1.4489  2.3667
  112OSM   C14F11665   3.870   4.614   9.238 -0.0069  0.5293  0.0482
  112OSM   H14F11666   3.847   4.722   9.232 -0.3278  0.5109  0.7998
  112OSM   H14G11667   3.774   4.562   9.218  0.2456 -0.2426  0.7641
  112OSM   C15F11668   3.989   4.570   9.142 -0.2201 -0.6518  0.2221
  112OSM   H15F11669   4.015   4.463   9.159  1.4357 -0.1175  1.2493
  112OSM   H15G11670   4.080   4.613   9.190 -0.2994  1.1158 -1.1232
  112OSM   C16F11671   3.974   4.594   8.988 -1.3875 -0.6229 -0.4912
  112OSM   H16F11672   3.956   4.699   8.960  2.1239 -0.6127 -3.4092
  112OSM   H16G11673   3.899   4.523   8.947  0.0318 -2.3660 -0.2108
  112OSM   C17F11674   4.110   4.570   8.920 -0.3345  0.0645  0.5222
  112OSM   H17F11675   4.161   4.488   8.975  0.3917  0.1841  0.0445
  112OSM   H17G11676   4.177   4.658   8.922 -3.4452  2.5854  2.3861
  112OSM   C18F11677   4.101   4.503   8.783  0.8710 -0.1738 -0.2581
  112OSM   H18F11678   4.066   4.585   8.718  0.2410  1.8358  2.4418
  112OSM   H18G11679   4.025   4.422   8.782  0.4039  0.2563  0.1876
  112OSM   H18H11680   4.190   4.447   8.747  1.5088  0.3980  0.3846
  113OSM      N11681   3.737   5.875  10.758 -0.1122  0.0236 -0.2598
  113OSM    C1511682   3.702   5.856  10.903  0.0653 -0.2230  0.2372
  113OSM   H15A11683   3.632   5.932  10.933 -0.9428  0.0643 -2.5794
  113OSM   H15B11684   3.793   5.874  10.959  0.1859 -0.9815  0.2971
  113OSM   H15C11685   3.671   5.756  10.932 -0.8376  0.5258  1.9953
  113OSM    C1411686   3.623   5.915  10.670 -0.3487 -0.4303 -0.1313
  113OSM   H14A11687   3.664   5.938  10.573 -1.6679 -2.4899 -1.2388
  113OSM   H14B11688   3.572   5.987  10.733  1.7590 -0.7152  2.0695
  113OSM   H14C11689   3.551   5.836  10.658 -2.2709  1.1098  0.6875
  113OSM    C1311690   3.845   5.977  10.759  0.0143  0.0173  0.4051
  113OSM   H13A11691   3.928   5.935  10.814  0.1393 -1.4270 -0.8326
  113OSM   H13B11692   3.817   6.072  10.802 -1.3829 -0.3505  0.3922
  113OSM   H13C11693   3.877   5.987  10.657  1.1768 -2.6518  0.4246
  113OSM    C1211694   3.792   5.747  10.701 -0.4590  0.1052  0.5190
  113OSM   H12A11695   3.857   5.705  10.776  0.4450  1.1335  0.3397
  113OSM   H12B11696   3.849   5.779  10.615  1.2175 -1.7965  0.8609
  113OSM    C1111697   3.701   5.628  10.661  0.2296  0.1054 -0.1442
  113OSM   H11A11698   3.766   5.545  10.627 -0.5928  0.0677 -1.7100
  113OSM   H11B11699   3.648   5.647  10.565 -1.7512 -1.4479  0.5640
  113OSM      P11700   3.461   5.569  10.745  0.1702  0.2362  0.3758
  113OSM    O1311701   3.400   5.527  10.871 -0.0339  0.0488 -0.4388
  113OSM    O1411702   3.399   5.687  10.683  0.2394  0.3993 -0.0666
  113OSM    O1111703   3.447   5.450  10.642 -0.1559  0.0764 -0.5957
  113OSM    O1211704   3.619   5.588  10.768 -0.1976 -0.0438 -0.0114
  113OSM    C1S11705   3.499   5.320  10.672 -0.2529 -0.1490  1.2173
  113OSM    H1S11706   3.431   5.268  10.744  0.2168 -2.6164 -0.0313
  113OSM    H1T11707   3.602   5.319  10.713  0.3234  1.2488 -0.1105
  113OSM     NF11708   3.550   5.105  10.572 -0.2554 -0.7725  1.1418
  113OSM    HNF11709   3.645   5.086  10.548 -0.0918 -1.4980  2.2601
  113OSM    C2S11710   3.497   5.236  10.543  0.3064 -0.8602 -0.3275
  113OSM    H2S11711   3.390   5.239  10.512 -0.8954  0.0866  3.3871
  113OSM    C3S11712   3.574   5.304  10.424 -0.1650  0.8292 -0.6886
  113OSM    H3S11713   3.682   5.280  10.439 -0.6857 -2.3256 -1.1674
  113OSM     O311714   3.561   5.440  10.408 -0.4341 -0.4561 -0.2508
  113OSM    HO311715   3.522   5.450  10.495  1.0254 -4.5899  1.1252
  113OSM    C4S11716   3.528   5.245  10.292 -0.0019  0.1094 -0.4603
  113OSM    H4S11717   3.433   5.284  10.253  0.4909  0.5303 -1.2665
  113OSM    C5S11718   3.600   5.164  10.215 -0.6327  0.1696 -0.4038
  113OSM    H5S11719   3.699   5.132  10.250 -1.4237 -2.1767 -0.1809
  113OSM    C6S11720   3.544   5.104  10.086  0.6669  0.4139 -0.0497
  113OSM    H6S11721   3.516   4.997  10.103  0.9994  0.2174 -0.7189
  113OSM    H6T11722   3.621   5.093  10.007  0.2451  0.2145 -0.4397
  113OSM    C7S11723   3.425   5.174  10.012 -0.7026  0.5167  0.1139
  113OSM    H7S11724   3.454   5.280   9.999  0.4558  0.3521  1.2065
  113OSM    H7T11725   3.334   5.163  10.075  0.2112  0.5264  1.4749
  113OSM    C8S11726   3.400   5.114   9.873 -0.3846  0.6444 -1.1437
  113OSM    H8S11727   3.314   5.161   9.821 -2.7722 -0.4013  1.5692
  113OSM    H8T11728   3.383   5.005   9.872  0.9020  0.4274 -1.4406
  113OSM    C9S11729   3.514   5.130   9.772  0.0450 -0.3889  0.2254
  113OSM    H9S11730   3.601   5.067   9.798 -1.1705 -2.0790  0.3568
  113OSM    H9T11731   3.542   5.238   9.769 -0.9480 -0.1229 -1.7096
  113OSM   C10S11732   3.464   5.097   9.633  0.5580  0.2846  0.6076
  113OSM   H10S11733   3.375   5.158   9.606  0.8861  0.1427 -0.9198
  113OSM   H10T11734   3.423   4.995   9.616 -0.7260  1.0373 -1.1435
  113OSM   C11S11735   3.568   5.111   9.519 -1.0732 -0.5725  0.2817
  113OSM   H11S11736   3.657   5.052   9.550 -0.8693  0.5675  1.9920
  113OSM   H11T11737   3.614   5.211   9.501 -0.3936  0.2913  5.4197
  113OSM   C12S11738   3.510   5.069   9.389  0.1779  0.7103 -0.0651
  113OSM   H12S11739   3.434   5.148   9.371  0.5068  1.6125  2.1903
  113OSM   H12T11740   3.467   4.968   9.406  1.2965  0.0472 -1.0576
  113OSM   C13S11741   3.606   5.049   9.267 -0.0513 -1.0292 -0.3548
  113OSM   H13S11742   3.672   4.961   9.281  0.1842 -1.0450 -1.4543
  113OSM   H13T11743   3.666   5.142   9.260 -3.1766  1.2044  0.5889
  113OSM   C14S11744   3.530   5.039   9.132 -0.7317 -0.7287  0.3310
  113OSM   H14S11745   3.446   5.112   9.134 -0.9808 -0.9974 -0.0670
  113OSM   H14T11746   3.481   4.939   9.134 -0.0707 -1.1323 -1.5702
  113OSM   C15S11747   3.620   5.054   9.011  0.4009  0.7919  0.1816
  113OSM   H15S11748   3.682   4.963   9.029  0.0355  0.4972 -0.0444
  113OSM   H15T11749   3.669   5.153   9.016  0.4875  0.6887  2.1108
  113OSM   C16S11750   3.530   5.052   8.890  0.0445  0.4640 -0.3259
  113OSM   H16S11751   3.470   5.146   8.888 -1.6266 -0.4669  2.0428
  113OSM   H16T11752   3.464   4.963   8.890  0.8445 -0.1358 -0.0579
  113OSM   C17S11753   3.604   5.031   8.760  0.2604  0.5044  0.5089
  113OSM   H17S11754   3.675   4.946   8.776  0.3949  0.4213 -0.4819
  113OSM   H17T11755   3.667   5.120   8.739 -0.6664  1.2517  0.8249
  113OSM   C18S11756   3.517   5.009   8.630  0.1112  0.2095 -0.2973
  113OSM   H18S11757   3.445   5.092   8.610 -0.1018  0.1569  0.2437
  113OSM   H18T11758   3.478   4.906   8.617  0.4230 -0.1122  1.1781
  113OSM   H18U11759   3.587   5.031   8.546  0.1254  0.8776 -0.1205
  113OSM    C1F11760   3.471   5.016  10.634 -0.0716 -0.3922 -0.6273
  113OSM     OF11761   3.364   5.050  10.686  0.2363 -0.6608  0.0301
  113OSM    C2F11762   3.513   4.874  10.632 -0.0602  0.2033  0.2246
  113OSM    H2F11763   3.506   4.845  10.739  2.0670  1.0678  0.6536
  113OSM    H2G11764   3.620   4.874  10.602 -0.4638 -0.2429 -1.3179
  113OSM    C3F11765   3.438   4.779  10.537  0.1775  0.1558  0.4545
  113OSM    H3F11766   3.336   4.781  10.581  0.7985  2.8323  1.9961
  113OSM    H3G11767   3.477   4.675  10.541  0.1669  0.0246 -1.7733
  113OSM    C4F11768   3.437   4.818  10.382  0.1518  0.1778  0.0931
  113OSM    H4F11769   3.539   4.799  10.343  0.2727 -0.2784  0.6188
  113OSM    H4G11770   3.406   4.924  10.378 -0.7036 -0.0856 -1.4541
  113OSM    C5F11771   3.336   4.729  10.314  0.1112  0.1626 -0.6803
  113OSM    H5F11772   3.235   4.775  10.320 -0.0730 -0.3280  0.1815
  113OSM    H5G11773   3.319   4.628  10.358 -0.2553 -0.1222 -1.4582
  113OSM    C6F11774   3.376   4.718  10.169  0.5048  0.9340  0.1782
  113OSM    H6F11775   3.474   4.666  10.169  0.0755  0.1215 -0.1385
  113OSM    H6G11776   3.399   4.819  10.127  0.3918  1.5211  1.4783
  113OSM    C7F11777   3.276   4.635  10.083  0.0483  0.6135  0.4137
  113OSM    H7F11778   3.176   4.682  10.088  0.6010  1.8185  0.7087
  113OSM    H7G11779   3.258   4.535  10.128 -0.5843 -1.1044 -3.2730
  113OSM    C8F11780   3.316   4.607   9.936 -0.3086 -0.1810 -0.2310
  113OSM    H8F11781   3.234   4.544   9.895 -1.2954 -0.2211  1.6921
  113OSM    H8G11782   3.418   4.563   9.935 -0.9789 -1.8135 -0.6737
  113OSM    C9F11783   3.307   4.736   9.865  0.1231  0.0738  0.0150
  113OSM    H9F11784   3.317   4.814   9.942  0.2728 -0.9367  1.0727
  113OSM   C10F11785   3.282   4.765   9.737  0.3363 -0.5674  0.3069
  113OSM   H10F11786   3.276   4.867   9.695 -1.1610 -1.0084 -0.6249
  113OSM   C11F11787   3.270   4.663   9.634 -0.3978  0.6010 -0.1161
  113OSM   H11F11788   3.168   4.652   9.591 -0.1693 -1.7022 -0.2384
  113OSM   H11G11789   3.324   4.568   9.656 -1.0957 -0.6581 -3.2184
  113OSM   C12F11790   3.355   4.722   9.509 -0.5902  1.0999  0.0004
  113OSM   H12F11791   3.456   4.754   9.544  0.6590  0.4734 -2.7495
  113OSM   H12G11792   3.300   4.809   9.468 -1.5019  0.2346 -0.6579
  113OSM   C13F11793   3.366   4.626   9.388 -0.1550 -0.2572  0.5453
  113OSM   H13F11794   3.262   4.602   9.359  0.7749 -1.1557 -2.3564
  113OSM   H13G11795   3.419   4.535   9.423 -0.6234  0.1842  2.5208
  113OSM   C14F11796   3.440   4.688   9.263 -0.2819 -0.2574  0.2559
  113OSM   H14F11797   3.537   4.728   9.300  0.3456 -0.4382 -1.1086
  113OSM   H14G11798   3.373   4.767   9.222  1.1519  1.4377  1.0122
  113OSM   C15F11799   3.469   4.595   9.146  0.1878 -1.2688  0.1680
  113OSM   H15F11800   3.373   4.543   9.128  0.5856 -2.4460  1.2863
  113OSM   H15G11801   3.543   4.518   9.176  2.0224  0.5751  0.5930
  113OSM   C16F11802   3.521   4.682   9.024 -0.3882 -0.1902  1.0408
  113OSM   H16F11803   3.611   4.727   9.070 -0.5984  1.3932 -0.0251
  113OSM   H16G11804   3.446   4.763   9.012  2.0061  1.8934 -0.7143
  113OSM   C17F11805   3.554   4.615   8.890  0.5629  0.4042  0.7378
  113OSM   H17F11806   3.597   4.513   8.898 -0.9950 -0.3345  0.0632
  113OSM   H17G11807   3.626   4.688   8.846 -0.3831  1.6657  1.2205
  113OSM   C18F11808   3.424   4.611   8.805 -0.9828 -0.0382  0.2591
  113OSM   H18F11809   3.346   4.550   8.855 -2.7155  0.3359 -1.8416
  113OSM   H18G11810   3.461   4.570   8.709 -0.2989  1.4369 -0.1343
  113OSM   H18H11811   3.394   4.717   8.792  1.0109  0.2291 -3.5823
  114OSM      N11812   3.890   2.294  11.335  0.7715 -0.7211  0.5641
  114OSM    C1511813   3.753   2.250  11.290  0.0074  0.2820 -0.7475
  114OSM   H15A11814   3.703   2.312  11.218  0.2378  2.9929  1.2845
  114OSM   H15B11815   3.687   2.246  11.375 -0.5125 -1.4396 -1.1808
  114OSM   H15C11816   3.757   2.145  11.265 -1.2245 -0.1882  0.9497
  114OSM    C1411817   3.946   2.183  11.421 -0.1545 -0.4867 -0.3272
  114OSM   H14A11818   4.037   2.210  11.471  0.7367 -1.4891 -1.3359
  114OSM   H14B11819   3.974   2.106  11.350 -1.3968 -1.5289  0.2757
  114OSM   H14C11820   3.872   2.145  11.489 -0.5468 -0.1046 -0.5363
  114OSM    C1311821   3.977   2.306  11.210  0.4220  0.4457  0.8351
  114OSM   H13A11822   3.969   2.211  11.158 -2.1738  1.3311 -0.5913
  114OSM   H13B11823   4.080   2.330  11.231  0.8292  0.5434 -1.0470
  114OSM   H13C11824   3.944   2.379  11.138 -1.6896 -0.8582  0.3770
  114OSM    C1211825   3.888   2.417  11.420  0.3826 -0.5212  0.6116
  114OSM   H12A11826   3.817   2.410  11.501 -1.2781  1.1500 -0.6027
  114OSM   H12B11827   3.852   2.498  11.357  1.2853  1.2291  2.2625
  114OSM    C1111828   4.028   2.470  11.475 -0.5981 -0.4427 -0.4767
  114OSM   H11A11829   4.079   2.394  11.538  1.0158  1.2099  0.3051
  114OSM   H11B11830   3.999   2.544  11.553  0.8965 -0.6153  0.2762
  114OSM      P11831   4.098   2.658  11.322 -0.2551  0.2925  0.2903
  114OSM    O1311832   3.953   2.674  11.286  0.2756  0.6736 -0.2392
  114OSM    O1411833   4.141   2.757  11.427  0.1703 -0.0234 -0.0238
  114OSM    O1111834   4.198   2.670  11.194  0.0615 -0.2234 -0.8327
  114OSM    O1211835   4.126   2.515  11.379 -0.1376 -0.0702 -0.3887
  114OSM    C1S11836   4.212   2.564  11.099  0.1402  0.1834 -0.8354
  114OSM    H1S11837   4.145   2.484  11.136 -0.0631  0.3868 -0.7617
  114OSM    H1T11838   4.317   2.530  11.095  0.0860 -0.0313 -0.4485
  114OSM     NF11839   4.129   2.518  10.864  0.3932  0.9659  0.5514
  114OSM    HNF11840   4.189   2.503  10.786 -0.0054  1.9938  0.0331
  114OSM    C2S11841   4.173   2.626  10.960 -0.4764 -0.0572 -0.7695
  114OSM    H2S11842   4.088   2.695  10.981 -1.2693 -0.8731 -1.2129
  114OSM    C3S11843   4.299   2.708  10.915  0.3981  0.0310 -0.6213
  114OSM    H3S11844   4.387   2.641  10.900  0.1350 -1.0317  2.0479
  114OSM     O311845   4.340   2.808  11.004 -0.1151  0.0154 -0.2570
  114OSM    HO311846   4.310   2.781  11.091 -0.4040  1.6482  0.1877
  114OSM    C4S11847   4.278   2.771  10.781  0.0483  0.2277 -0.0279
  114OSM    H4S11848   4.351   2.744  10.703  1.5597 -1.2364  1.7945
  114OSM    C5S11849   4.193   2.870  10.758  0.1206 -0.2167 -0.3126
  114OSM    H5S11850   4.133   2.905  10.843 -0.4944 -1.6505 -0.1215
  114OSM    C6S11851   4.177   2.937  10.623  0.0921 -0.1795 -0.1876
  114OSM    H6S11852   4.191   3.047  10.635 -0.0204  0.2648 -3.3847
  114OSM    H6T11853   4.069   2.924  10.600  0.2525 -1.1778 -0.4210
  114OSM    C7S11854   4.257   2.889  10.498 -0.3538 -0.9566 -0.5445
  114OSM    H7S11855   4.263   2.778  10.504 -2.3294 -1.0020  2.1042
  114OSM    H7T11856   4.362   2.926  10.503 -1.1887  1.5160 -0.0708
  114OSM    C8S11857   4.192   2.944  10.374 -0.7376  0.4464  0.0630
  114OSM    H8S11858   4.178   3.054  10.387 -0.1013  0.5855 -0.3949
  114OSM    H8T11859   4.094   2.893  10.360 -2.1044  2.6020  1.1261
  114OSM    C9S11860   4.277   2.917  10.247  0.7065  0.3784  0.8789
  114OSM    H9S11861   4.312   2.812  10.243  1.1668  0.5428  0.4276
  114OSM    H9T11862   4.371   2.976  10.245  0.6075  0.5389 -0.9603
  114OSM   C10S11863   4.205   2.958  10.121  0.3696  0.4243  0.8939
  114OSM   H10S11864   4.177   3.065  10.128  0.1488  0.5657 -1.3033
  114OSM   H10T11865   4.114   2.894  10.118  1.2117 -0.8699  1.8625
  114OSM   C11S11866   4.285   2.941   9.984  0.5866  0.0760  0.1430
  114OSM   H11S11867   4.309   2.835   9.960 -0.1315 -0.3518  1.2085
  114OSM   H11T11868   4.376   3.004   9.993  1.2375 -0.8779  0.3813
  114OSM   C12S11869   4.196   2.996   9.876 -0.2490  0.0527 -0.2153
  114OSM   H12S11870   4.172   3.101   9.904  3.4597  0.7750  0.8993
  114OSM   H12T11871   4.105   2.936   9.861  0.2898 -0.9385  0.3838
  114OSM   C13S11872   4.255   2.990   9.731  0.1061 -0.9852 -0.0815
  114OSM   H13S11873   4.259   2.880   9.717 -1.6953 -1.0891 -0.0992
  114OSM   H13T11874   4.357   3.033   9.726 -0.5393  0.7596  0.9532
  114OSM   C14S11875   4.155   3.051   9.634 -0.4899 -0.2466 -0.4688
  114OSM   H14S11876   4.122   3.147   9.680 -0.2251 -1.4537  2.4312
  114OSM   H14T11877   4.068   2.982   9.633 -1.5358  1.0044 -2.0468
  114OSM   C15S11878   4.219   3.074   9.492 -0.2344  0.1989 -0.9276
  114OSM   H15S11879   4.325   3.108   9.496  0.3312 -1.4718 -1.0055
  114OSM   H15T11880   4.165   3.151   9.434 -2.4413 -1.1139 -0.7013
  114OSM   C16S11881   4.218   2.948   9.399 -0.1554 -0.2028 -0.8565
  114OSM   H16S11882   4.122   2.916   9.352 -0.3900 -0.9912  0.1366
  114OSM   H16T11883   4.247   2.854   9.450 -1.8441 -0.6501 -0.6696
  114OSM   C17S11884   4.321   2.960   9.281  0.8323  0.3866 -0.8910
  114OSM   H17S11885   4.287   3.044   9.216 -0.0865  0.2242 -0.6440
  114OSM   H17T11886   4.306   2.865   9.225  1.5114 -0.2755  0.0326
  114OSM   C18S11887   4.466   2.982   9.324 -0.5146 -0.4014  0.3987
  114OSM   H18S11888   4.540   2.977   9.242  0.4390  0.5631  1.1579
  114OSM   H18T11889   4.505   2.924   9.410  0.0166  0.2777  0.6291
  114OSM   H18U11890   4.466   3.090   9.352  0.7615  0.0917 -1.3650
  114OSM    C1F11891   4.007   2.468  10.887 -0.2668  0.0561  0.5811
  114OSM     OF11892   3.932   2.510  10.975 -0.3428  0.1216  0.1352
  114OSM    C2F11893   3.963   2.350  10.818  0.3529  0.3504  0.2095
  114OSM    H2F11894   3.863   2.310  10.843  1.6694 -2.4928  1.5316
  114OSM    H2G11895   4.032   2.269  10.852  0.0297 -0.2710 -0.5628
  114OSM    C3F11896   3.975   2.361  10.667 -1.2086 -0.3236  0.3824
  114OSM    H3F11897   3.945   2.261  10.629 -0.3735 -1.7286  3.1222
  114OSM    H3G11898   4.081   2.383  10.641 -1.4557 -0.1210 -0.4942
  114OSM    C4F11899   3.885   2.460  10.603 -0.2800 -0.2106 -0.1992
  114OSM    H4F11900   3.922   2.555  10.647 -1.2901  0.6633 -1.1890
  114OSM    H4G11901   3.775   2.455  10.620 -0.4969  4.2352  1.0720
  114OSM    C5F11902   3.901   2.464  10.452 -0.3510  0.4002  0.4579
  114OSM    H5F11903   3.892   2.358  10.420  0.6954  0.8790 -1.6372
  114OSM    H5G11904   4.008   2.491  10.440  0.0735 -0.5396  1.8930
  114OSM    C6F11905   3.804   2.551  10.378 -0.4769  0.2648 -0.3881
  114OSM    H6F11906   3.818   2.655  10.414  2.2216 -0.3202  0.4406
  114OSM    H6G11907   3.703   2.519  10.410  0.4760 -3.1888 -0.4313
  114OSM    C7F11908   3.817   2.566  10.226  0.3554 -0.1738 -0.4217
  114OSM    H7F11909   3.801   2.466  10.180 -2.2615 -0.6735  1.3392
  114OSM    H7G11910   3.920   2.604  10.207  1.4681 -1.8689  1.6699
  114OSM    C8F11911   3.711   2.664  10.164 -0.1758 -0.1285 -0.1403
  114OSM    H8F11912   3.606   2.637  10.190  0.4694 -0.3860  2.3810
  114OSM    H8G11913   3.723   2.658  10.053  1.2401 -1.5941  0.0668
  114OSM    C9F11914   3.740   2.801  10.210  0.1506 -0.7803  0.2234
  114OSM    H9F11915   3.720   2.811  10.318  0.8572 -0.6325  0.3474
  114OSM   C10F11916   3.796   2.903  10.145  0.2229  0.1156  0.1867
  114OSM   H10F11917   3.814   2.997  10.200  0.1075 -0.6096  1.4933
  114OSM   C11F11918   3.842   2.900  10.002 -0.1453 -0.3732 -0.3012
  114OSM   H11F11919   3.888   2.803   9.974 -0.6916 -0.7186 -0.0159
  114OSM   H11G11920   3.928   2.970   9.992 -0.6200  0.2490 -0.1264
  114OSM   C12F11921   3.732   2.933   9.891 -0.1664 -0.1902 -0.4937
  114OSM   H12F11922   3.685   3.033   9.901  1.0934  0.3203  0.7773
  114OSM   H12G11923   3.650   2.861   9.909 -0.1759  0.0113  0.2851
  114OSM   C13F11924   3.778   2.920   9.744 -0.7139 -0.2160  0.7691
  114OSM   H13F11925   3.806   2.814   9.722  0.9954  0.2241  0.6812
  114OSM   H13G11926   3.865   2.988   9.731  0.3822 -0.9850  3.4944
  114OSM   C14F11927   3.667   2.967   9.650 -0.5678 -0.1828  0.1368
  114OSM   H14F11928   3.639   3.067   9.687 -0.5722 -0.0482 -0.2230
  114OSM   H14G11929   3.587   2.894   9.678  0.3648 -0.9526  0.8612
  114OSM   C15F11930   3.703   2.961   9.496 -0.1284  0.4721  0.2642
  114OSM   H15F11931   3.702   2.858   9.454  3.6333  1.0303 -1.6434
  114OSM   H15G11932   3.807   2.997   9.479  0.3467 -1.7794 -2.3003
  114OSM   C16F11933   3.596   3.039   9.410  0.4403 -0.0220  0.0010
  114OSM   H16F11934   3.585   3.140   9.455  3.7434  0.4695 -0.0374
  114OSM   H16G11935   3.501   2.983   9.425 -0.0923  0.5532 -1.0908
  114OSM   C17F11936   3.611   3.034   9.253  0.3138 -0.2086  0.3967
  114OSM   H17F11937   3.641   2.932   9.222 -0.5956 -0.4467  0.2712
  114OSM   H17G11938   3.691   3.106   9.227 -0.5834  1.9275  3.0395
  114OSM   C18F11939   3.473   3.057   9.183  0.5417 -0.0944 -0.5899
  114OSM   H18F11940   3.398   2.984   9.221  1.5380 -1.2289 -0.7462
  114OSM   H18G11941   3.477   3.067   9.072  0.7759 -0.1153 -0.5828
  114OSM   H18H11942   3.437   3.155   9.221  1.3361 -0.1029  0.2289
  115OSM      N11943   0.655   5.893   5.785 -0.2374 -0.5079  0.5442
  115OSM    C1511944   0.586   6.001   5.708 -0.0508  0.3109  0.2696
  115OSM   H15A11945   0.590   6.097   5.757 -0.3392  0.2330  0.4491
  115OSM   H15B11946   0.481   5.976   5.712 -0.1031  0.6360  2.7409
  115OSM   H15C11947   0.625   6.014   5.609  1.1150  3.1726  1.0070
  115OSM    C1411948   0.628   5.765   5.718  0.5266  0.7271 -0.1600
  115OSM   H14A11949   0.678   5.769   5.622  1.5962  0.4903  0.3741
  115OSM   H14B11950   0.524   5.765   5.687 -0.0977 -0.1477  1.8271
  115OSM   H14C11951   0.657   5.669   5.759  1.0290  0.4789 -1.0615
  115OSM    C1311952   0.804   5.921   5.790  0.4385  0.3627 -0.3490
  115OSM   H13A11953   0.813   6.016   5.840  0.4275 -0.4330  1.2280
  115OSM   H13B11954   0.845   5.909   5.691  0.8094  0.1201 -0.1680
  115OSM   H13C11955   0.845   5.845   5.855  0.4878  2.1005  1.7425
  115OSM    C1211956   0.610   5.890   5.929 -0.4382 -0.0577 -0.7558
  115OSM   H12A11957   0.505   5.865   5.937 -1.2735  2.8918 -1.5009
  115OSM   H12B11958   0.603   5.991   5.964  1.2334  0.2682 -1.2578
  115OSM    C1111959   0.678   5.809   6.042 -0.0768 -0.7800  0.1052
  115OSM   H11A11960   0.633   5.839   6.139  0.3441 -1.2761  0.4596
  115OSM   H11B11961   0.785   5.838   6.052  0.2908 -0.9786 -2.5121
  115OSM      P11962   0.543   5.579   6.074 -0.0443 -0.2067  0.4862
  115OSM    O1311963   0.418   5.607   6.008 -0.2905  0.9684  0.3145
  115OSM    O1411964   0.600   5.445   6.072 -0.2012 -0.1413  0.0512
  115OSM    O1111965   0.524   5.621   6.228  0.2683  0.0727  0.1732
  115OSM    O1211966   0.661   5.670   6.015 -0.4065  0.2107 -0.0772
  115OSM    C1S11967   0.593   5.552   6.329 -0.5333  0.7277 -1.3784
  115OSM    H1S11968   0.696   5.593   6.324 -0.7885  1.2814 -2.5722
  115OSM    H1T11969   0.598   5.442   6.317 -1.1476  0.5281 -0.0184
  115OSM     NF11970   0.629   5.530   6.566  0.4476 -0.4860 -0.0717
  115OSM    HNF11971   0.594   5.444   6.602 -2.1260  0.0641 -1.0983
  115OSM    C2S11972   0.539   5.593   6.466 -0.1290 -0.7608  0.1154
  115OSM    H2S11973   0.552   5.703   6.474 -1.9556 -0.5777  1.2608
  115OSM    C3S11974   0.387   5.551   6.469 -0.9454 -0.1061 -0.8116
  115OSM    H3S11975   0.391   5.441   6.465 -0.5265 -0.0962 -0.7752
  115OSM     O311976   0.302   5.597   6.362 -0.1603 -0.7177 -0.1237
  115OSM    HO311977   0.375   5.627   6.307  0.9501  2.6301  2.8275
  115OSM    C4S11978   0.311   5.597   6.596 -0.8311 -0.2653  0.3002
  115OSM    H4S11979   0.307   5.509   6.663 -0.7341 -0.5781 -0.1003
  115OSM    C5S11980   0.247   5.715   6.628  0.4312 -0.4638  0.0121
  115OSM    H5S11981   0.248   5.791   6.549  3.6758 -2.0350 -1.6246
  115OSM    C6S11982   0.176   5.752   6.753 -0.3767  0.2726  0.2807
  115OSM    H6S11983   0.067   5.734   6.741 -0.8451  0.0752  3.7713
  115OSM    H6T11984   0.185   5.861   6.771  0.3684 -0.0184  1.8294
  115OSM    C7S11985   0.210   5.666   6.877  0.4480  0.0617 -0.7512
  115OSM    H7S11986   0.320   5.657   6.888  0.3860  0.8125  0.7081
  115OSM    H7T11987   0.181   5.562   6.853  0.3754 -0.0263 -0.2888
  115OSM    C8S11988   0.135   5.721   7.003 -0.4488  0.5482  1.1528
  115OSM    H8S11989   0.026   5.736   6.992 -0.7891 -1.8485  0.6907
  115OSM    H8T11990   0.180   5.822   7.015 -0.8789  0.9278 -0.2239
  115OSM    C9S11991   0.158   5.641   7.135 -0.4572  0.2626  0.4190
  115OSM    H9S11992   0.263   5.612   7.153  0.2182  2.1112 -0.2730
  115OSM    H9T11993   0.099   5.547   7.132 -2.1985  1.3099 -0.1174
  115OSM   C10S11994   0.116   5.725   7.252 -0.4300  0.4994  0.6066
  115OSM   H10S11995   0.008   5.745   7.268 -0.4474 -0.1357  1.3284
  115OSM   H10T11996   0.149   5.829   7.228 -2.0332  0.9476  0.2333
  115OSM   C11S11997   0.196   5.684   7.374 -0.3543 -0.9124 -0.1279
  115OSM   H11S11998   0.196   5.766   7.449 -0.6484 -3.6252  3.0575
  115OSM   H11T11999   0.301   5.678   7.339 -0.5456 -0.5909 -0.7878
  115OSM   C12S12000   0.155   5.560   7.448 -0.2206  0.0329 -1.1775
  115OSM   H12S12001   0.145   5.476   7.376 -0.1166 -0.9341 -0.0885
  115OSM   H12T12002   0.059   5.569   7.503  0.3650 -1.4080  0.1463
  115OSM   C13S12003   0.262   5.505   7.544  0.1283  0.3477 -0.1774
  115OSM   H13S12004   0.285   5.570   7.630 -1.7583 -0.8578  1.3361
  115OSM   H13T12005   0.357   5.495   7.489  0.0250 -0.9175 -0.1535
  115OSM   C14S12006   0.227   5.369   7.619 -0.3657 -0.1059 -0.2453
  115OSM   H14S12007   0.231   5.300   7.532  2.2422 -0.1318 -0.1886
  115OSM   H14T12008   0.122   5.372   7.654 -1.4618  0.4586 -3.2988
  115OSM   C15S12009   0.336   5.319   7.721 -0.3709  0.2426  0.2458
  115OSM   H15S12010   0.340   5.386   7.809  1.2641 -1.9376  1.9417
  115OSM   H15T12011   0.439   5.320   7.679  0.2302 -1.6943  1.5786
  115OSM   C16S12012   0.319   5.175   7.776  0.2919  0.9096  0.4713
  115OSM   H16S12013   0.304   5.118   7.682 -1.7386  0.4965  0.9945
  115OSM   H16T12014   0.219   5.176   7.824 -0.0054  2.9195 -0.1296
  115OSM   C17S12015   0.444   5.119   7.845  0.1268 -0.4730  0.7505
  115OSM   H17S12016   0.482   5.184   7.926  1.8286 -0.5170  0.0222
  115OSM   H17T12017   0.530   5.126   7.775  0.0331 -1.7104  0.4902
  115OSM   C18S12018   0.421   4.974   7.887 -0.0478 -0.0214 -0.5685
  115OSM   H18S12019   0.505   4.932   7.946 -0.6458 -2.3694 -1.2695
  115OSM   H18T12020   0.406   4.906   7.800  2.6265 -2.7419  0.8972
  115OSM   H18U12021   0.334   4.970   7.956  0.5289  0.5543  0.2018
  115OSM    C1F12022   0.744   5.590   6.600  0.0884 -0.0490 -0.5670
  115OSM     OF12023   0.770   5.697   6.549  0.0253  0.3296  0.8110
  115OSM    C2F12024   0.837   5.520   6.694 -0.2992  0.6168  0.0355
  115OSM    H2F12025   0.938   5.542   6.653 -0.6412  3.0362  0.3522
  115OSM    H2G12026   0.822   5.411   6.710  0.4938  0.6815  1.3693
  115OSM    C3F12027   0.822   5.591   6.832  0.3131  0.1134 -0.0386
  115OSM    H3F12028   0.853   5.697   6.818 -0.0901  0.1302 -0.8623
  115OSM    H3G12029   0.885   5.531   6.901 -2.0476 -2.5771 -0.0657
  115OSM    C4F12030   0.680   5.596   6.891  0.1362  0.0537  0.5580
  115OSM    H4F12031   0.633   5.496   6.895  0.0883  0.0051 -0.7217
  115OSM    H4G12032   0.616   5.645   6.815  1.3511  1.9478  0.6788
  115OSM    C5F12033   0.670   5.663   7.029  0.9773  0.1694  1.2765
  115OSM    H5F12034   0.565   5.648   7.062  0.9518 -2.7177  0.1409
  115OSM    H5G12035   0.686   5.771   7.009 -1.1706  0.3775  0.4491
  115OSM    C6F12036   0.768   5.600   7.136 -0.1413  0.1581 -0.0660
  115OSM    H6F12037   0.875   5.620   7.117 -0.1524 -0.7417 -1.1544
  115OSM    H6G12038   0.767   5.490   7.122 -0.7890  0.0401  0.8400
  115OSM    C7F12039   0.727   5.651   7.275  0.2335 -0.1571  0.6552
  115OSM    H7F12040   0.620   5.622   7.289  0.3424 -0.9042 -0.0203
  115OSM    H7G12041   0.740   5.761   7.281 -0.9319 -0.0398  1.4875
  115OSM    C8F12042   0.805   5.580   7.385  0.2506  0.0315 -0.7210
  115OSM    H8F12043   0.912   5.581   7.354  0.9578  2.0835  1.4609
  115OSM    H8G12044   0.774   5.474   7.392 -1.7368  0.4464 -2.2688
  115OSM    C9F12045   0.783   5.664   7.507  0.1553  0.5689  0.2519
  115OSM    H9F12046   0.805   5.772   7.499 -0.7814  0.6841 -1.1617
  115OSM   C10F12047   0.750   5.623   7.625 -0.4785  0.1033 -1.1268
  115OSM   H10F12048   0.743   5.694   7.710  1.1156 -1.0278  0.0184
  115OSM   C11F12049   0.721   5.487   7.674 -0.2787 -0.0857 -1.3877
  115OSM   H11F12050   0.753   5.411   7.600  0.1491 -0.0957 -1.1937
  115OSM   H11G12051   0.611   5.476   7.685 -0.0058 -3.3735 -0.8806
  115OSM   C12F12052   0.798   5.457   7.805 -0.3410 -0.8945  0.1868
  115OSM   H12F12053   0.902   5.486   7.777 -0.7595  1.0186  0.4266
  115OSM   H12G12054   0.795   5.348   7.826 -1.1165 -0.6242  1.5594
  115OSM   C13F12055   0.743   5.530   7.932  0.2456  0.7094 -0.5123
  115OSM   H13F12056   0.714   5.634   7.910 -0.0428  0.9934  1.0602
  115OSM   H13G12057   0.831   5.539   7.999  0.9850  1.9628 -1.6178
  115OSM   C14F12058   0.619   5.455   7.995  0.5165  0.6826  0.4725
  115OSM   H14F12059   0.636   5.345   8.003  1.3014  0.8414  1.1623
  115OSM   H14G12060   0.540   5.474   7.919  1.7744 -0.5626 -1.2342
  115OSM   C15F12061   0.597   5.508   8.131 -0.5440  0.2781  0.3577
  115OSM   H15F12062   0.617   5.617   8.125 -2.8524  0.8184  1.4057
  115OSM   H15G12063   0.668   5.467   8.206 -1.1729 -0.9519  0.3148
  115OSM   C16F12064   0.452   5.488   8.178 -0.8577  0.6614 -0.7633
  115OSM   H16F12065   0.433   5.379   8.185 -0.1400  0.5653 -0.2020
  115OSM   H16G12066   0.389   5.537   8.101  0.1560  0.4829 -1.7332
  115OSM   C17F12067   0.422   5.529   8.319 -0.0564 -0.0278  0.4222
  115OSM   H17F12068   0.318   5.500   8.345 -0.3209 -0.6319 -1.1606
  115OSM   H17G12069   0.418   5.640   8.320 -0.1481 -0.0275  0.0682
  115OSM   C18F12070   0.521   5.478   8.428 -0.1235 -0.1046 -0.5321
  115OSM   H18F12071   0.556   5.374   8.410  0.5850 -0.1028  0.6990
  115OSM   H18G12072   0.471   5.486   8.527 -0.1383 -0.3009 -0.5234
  115OSM   H18H12073   0.613   5.539   8.417 -0.7498  1.0200  0.3026
  116OSM      N12074   5.574   2.410   6.419 -0.4870  0.2861  0.2501
  116OSM    C1512075   5.437   2.455   6.439 -0.7080  0.1436 -0.4987
  116OSM   H15A12076   5.447   2.515   6.528 -0.1405  0.2440 -0.6226
  116OSM   H15B12077   5.373   2.370   6.458  0.2650 -0.4935  0.0266
  116OSM   H15C12078   5.393   2.510   6.357 -1.2498  1.7037  0.7909
  116OSM    C1412079   5.656   2.526   6.396 -0.8397 -0.2393 -0.1225
  116OSM   H14A12080   5.665   2.593   6.480 -1.7454 -0.1675 -0.0714
  116OSM   H14B12081   5.634   2.582   6.306 -0.6325 -3.6036 -2.4437
  116OSM   H14C12082   5.756   2.489   6.379  0.1818  2.1601  0.2358
  116OSM    C1312083   5.635   2.342   6.538  0.1143  0.6908 -0.5320
  116OSM   H13A12084   5.562   2.267   6.565 -1.8420  2.1980 -1.3732
  116OSM   H13B12085   5.639   2.418   6.615 -0.6386 -1.2957  1.5789
  116OSM   H13C12086   5.732   2.297   6.525  0.2751  1.2041 -1.1916
  116OSM    C1212087   5.585   2.320   6.295  1.0075  0.2238 -0.3077
  116OSM   H12A12088   5.687   2.288   6.277  1.7620  2.1356  0.3065
  116OSM   H12B12089   5.549   2.371   6.207  1.5622 -0.1778 -0.7732
  116OSM    C1112090   5.501   2.193   6.275  0.5888 -0.1179 -0.4813
  116OSM   H11A12091   5.518   2.144   6.177 -0.4129 -1.6088  0.0455
  116OSM   H11B12092   5.399   2.236   6.274 -0.0238 -1.2490  2.6858
  116OSM      P12093   5.388   2.044   6.458 -0.0679  0.0020 -0.0779
  116OSM    O1312094   5.286   2.026   6.351 -0.5974 -0.3523 -0.7149
  116OSM    O1412095   5.432   1.927   6.542 -0.1897 -0.0144  0.3477
  116OSM    O1112096   5.344   2.157   6.555  0.9476  0.1642  0.0445
  116OSM    O1212097   5.515   2.101   6.386 -0.4146  0.0433 -0.1108
  116OSM    C1S12098   5.396   2.150   6.694 -0.0498  0.1867  0.0773
  116OSM    H1S12099   5.499   2.190   6.706 -0.1557  0.1673  1.1955
  116OSM    H1T12100   5.382   2.048   6.735 -3.3600  0.3945 -0.2530
  116OSM     NF12101   5.370   2.230   6.936 -0.4189 -0.0391  0.0152
  116OSM    HNF12102   5.312   2.197   7.010  1.1532 -1.7667  0.5888
  116OSM    C2S12103   5.317   2.228   6.802 -0.0876  0.1726  0.0644
  116OSM    H2S12104   5.325   2.333   6.766 -2.3536  0.8250  1.3047
  116OSM    C3S12105   5.164   2.196   6.793 -0.3896  0.7427  0.3325
  116OSM    H3S12106   5.147   2.089   6.817  0.6811 -0.0265 -2.0007
  116OSM     O312107   5.111   2.207   6.660  0.5198 -0.0100 -0.3795
  116OSM    HO312108   5.188   2.201   6.604  1.2420 -1.5992  0.7062
  116OSM    C4S12109   5.083   2.291   6.872 -0.0178 -0.0204  0.6603
  116OSM    H4S12110   5.113   2.396   6.862  1.2634 -0.1726  2.3505
  116OSM    C5S12111   5.001   2.254   6.973  0.5084  0.1606  0.8275
  116OSM    H5S12112   4.995   2.146   6.995  0.4240  0.3370  1.7494
  116OSM    C6S12113   4.920   2.344   7.062  0.2820  0.6882  0.4024
  116OSM    H6S12114   4.813   2.316   7.054 -0.3454  3.1416 -0.9437
  116OSM    H6T12115   4.935   2.450   7.030 -0.7568  0.4515 -0.9596
  116OSM    C7S12116   4.977   2.328   7.204 -0.3126  0.1142 -0.1862
  116OSM    H7S12117   5.079   2.371   7.215 -0.3393 -0.1570  1.3355
  116OSM    H7T12118   4.977   2.225   7.245 -0.8693  0.6206  1.1224
  116OSM    C8S12119   4.882   2.397   7.304  0.0228 -0.2331  0.4569
  116OSM    H8S12120   4.784   2.344   7.298  0.9529 -2.1145  1.0792
  116OSM    H8T12121   4.867   2.504   7.277  1.5898  0.1326  0.9608
  116OSM    C9S12122   4.928   2.385   7.444 -0.1556  0.5454  0.6445
  116OSM    H9S12123   5.027   2.434   7.457  1.1672 -0.9300 -2.6575
  116OSM    H9T12124   4.928   2.275   7.461  0.9588  0.2532 -1.0222
  116OSM   C10S12125   4.824   2.440   7.542 -0.3146 -0.0912 -0.2672
  116OSM   H10S12126   4.721   2.408   7.513 -1.2207  1.7176  0.8152
  116OSM   H10T12127   4.819   2.548   7.518  0.0954  0.2004  0.9374
  116OSM   C11S12128   4.868   2.415   7.693  0.9499 -0.3155  0.2971
  116OSM   H11S12129   4.953   2.479   7.724  1.6171  0.3705 -2.6357
  116OSM   H11T12130   4.894   2.307   7.697 -1.3579 -1.0091 -1.4088
  116OSM   C12S12131   4.762   2.427   7.797 -0.9078 -0.5638 -0.6777
  116OSM   H12S12132   4.670   2.383   7.752 -2.5328  1.2733  0.7031
  116OSM   H12T12133   4.744   2.535   7.813  4.1985  0.3540  0.9155
  116OSM   C13S12134   4.810   2.372   7.928  0.1897 -0.2024 -0.6102
  116OSM   H13S12135   4.896   2.431   7.967 -0.9654 -0.3704  2.4670
  116OSM   H13T12136   4.839   2.264   7.924 -1.0420 -0.5338 -1.0186
  116OSM   C14S12137   4.707   2.386   8.038 -0.0679 -0.5338  0.2277
  116OSM   H14S12138   4.623   2.314   8.023 -1.0942  0.6039  0.3831
  116OSM   H14T12139   4.669   2.490   8.032 -0.7285 -0.7997 -0.3106
  116OSM   C15S12140   4.764   2.349   8.177  0.1822 -0.2661  0.2968
  116OSM   H15S12141   4.856   2.407   8.199  0.6220 -0.2497 -1.4214
  116OSM   H15T12142   4.799   2.244   8.170 -0.6962 -0.5977  0.7524
  116OSM   C16S12143   4.665   2.373   8.287 -0.2884  0.1391 -0.2041
  116OSM   H16S12144   4.570   2.322   8.262 -2.5878  3.4618  0.9720
  116OSM   H16T12145   4.644   2.480   8.309 -0.7509 -0.2119  1.1485
  116OSM   C17S12146   4.713   2.322   8.426  0.6952  1.1214  0.4098
  116OSM   H17S12147   4.810   2.370   8.452  0.3422  1.2501  1.5221
  116OSM   H17T12148   4.726   2.212   8.414  0.0720  1.1699 -0.8946
  116OSM   C18S12149   4.618   2.355   8.539 -0.0594 -0.1000  0.1518
  116OSM   H18S12150   4.657   2.305   8.630  1.8948 -0.1730 -0.6722
  116OSM   H18T12151   4.514   2.325   8.514  0.0178  0.5077 -0.9332
  116OSM   H18U12152   4.613   2.464   8.562  1.4251  0.0923 -0.3726
  116OSM    C1F12153   5.482   2.299   6.963  0.3504  0.1158  0.3860
  116OSM     OF12154   5.540   2.355   6.875  0.2732  0.3829 -0.4788
  116OSM    C2F12155   5.525   2.294   7.109 -0.3304 -0.5660  0.4612
  116OSM    H2F12156   5.560   2.192   7.136 -0.5064 -0.3538  1.4984
  116OSM    H2G12157   5.447   2.322   7.182  0.1865  2.2886  0.0457
  116OSM    C3F12158   5.624   2.406   7.144 -0.7070  0.6601 -0.6068
  116OSM    H3F12159   5.586   2.507   7.118 -1.2246  0.5851 -0.1676
  116OSM    H3G12160   5.720   2.386   7.093 -0.1440  2.7347 -0.4551
  116OSM    C4F12161   5.667   2.405   7.297 -0.1921  0.3299  0.0594
  116OSM    H4F12162   5.737   2.323   7.322  0.2184  0.7362  0.2723
  116OSM    H4G12163   5.574   2.389   7.355  0.0574 -1.6095 -0.0218
  116OSM    C5F12164   5.734   2.537   7.339 -0.0655  1.0014 -0.8576
  116OSM    H5F12165   5.666   2.624   7.326  2.2992  3.0678 -0.2009
  116OSM    H5G12166   5.827   2.555   7.281  0.9662 -2.1570 -0.3921
  116OSM    C6F12167   5.779   2.544   7.491  0.1622  0.2359  0.1193
  116OSM    H6F12168   5.702   2.489   7.549 -0.6165  1.2311  0.0464
  116OSM    H6G12169   5.791   2.651   7.515  0.1273  0.2000  0.3005
  116OSM    C7F12170   5.922   2.489   7.515  0.2938 -0.3991 -0.1192
  116OSM    H7F12171   5.994   2.550   7.456 -1.0010 -0.2963 -1.6621
  116OSM    H7G12172   5.924   2.385   7.475  1.6837 -0.2387 -0.5264
  116OSM    C8F12173   5.963   2.485   7.666  0.5788 -0.3435  0.3935
  116OSM    H8F12174   5.951   2.594   7.689 -0.3320 -0.6633  1.5731
  116OSM    H8G12175   6.070   2.457   7.670  1.1543  1.5245 -0.7166
  116OSM    C9F12176   5.867   2.398   7.736  0.3584  0.0926 -0.0759
  116OSM    H9F12177   5.861   2.291   7.714 -2.3775 -0.0150  0.8725
  116OSM   C10F12178   5.796   2.439   7.844  0.5552  0.1381  1.0474
  116OSM   H10F12179   5.725   2.370   7.890 -0.2637 -1.8391 -2.7840
  116OSM   C11F12180   5.780   2.577   7.914 -0.2012  0.0351  0.0863
  116OSM   H11F12181   5.682   2.618   7.883 -0.1167 -0.0284 -0.2773
  116OSM   H11G12182   5.852   2.656   7.885  1.3231  0.2131  3.7623
  116OSM   C12F12183   5.800   2.582   8.063  0.9898  0.2536 -0.2070
  116OSM   H12F12184   5.735   2.503   8.107  0.2035 -0.0471 -1.8492
  116OSM   H12G12185   5.785   2.687   8.097  1.2253  0.5536 -1.0043
  116OSM   C13F12186   5.940   2.545   8.115  0.1413 -0.4062 -0.8720
  116OSM   H13F12187   6.006   2.607   8.051  0.8451 -0.5708 -0.3169
  116OSM   H13G12188   5.960   2.438   8.094  2.0286 -0.5980  1.4490
  116OSM   C14F12189   5.947   2.548   8.270  0.3199 -0.5098  0.8787
  116OSM   H14F12190   5.848   2.514   8.306 -0.4023  1.1033  0.4760
  116OSM   H14G12191   5.946   2.653   8.305 -0.0790  0.1863 -1.1019
  116OSM   C15F12192   6.051   2.451   8.340  0.2745  0.2073 -0.2386
  116OSM   H15F12193   6.158   2.474   8.315  0.3249 -0.8535 -1.0729
  116OSM   H15G12194   6.026   2.351   8.299 -1.4289  0.0521  1.0725
  116OSM   C16F12195   6.046   2.457   8.491  0.2520  0.0147  0.2949
  116OSM   H16F12196   6.013   2.555   8.530 -0.5679  0.3021 -1.0607
  116OSM   H16G12197   6.141   2.422   8.537  0.0047 -0.8192  0.1914
  116OSM   C17F12198   5.964   2.344   8.555 -0.3389  0.0993 -0.2451
  116OSM   H17F12199   5.993   2.245   8.514 -1.7573 -0.4094 -0.0922
  116OSM   H17G12200   5.856   2.359   8.533 -0.2146 -0.6656 -1.4721
  116OSM   C18F12201   5.987   2.347   8.717 -0.0204 -0.6176  0.2478
  116OSM   H18F12202   6.094   2.357   8.744  0.0393  0.7601 -0.4238
  116OSM   H18G12203   5.947   2.254   8.764  0.8805 -0.2260  1.8568
  116OSM   H18H12204   5.943   2.434   8.772  2.1327  0.1892  0.7823
  117OSM      N12205   5.220   5.697   5.871 -0.5735  0.6224 -0.3177
  117OSM    C1512206   5.312   5.799   5.920 -0.2515  0.0226 -0.2825
  117OSM   H15A12207   5.250   5.867   5.976  0.7350  1.5392 -0.9518
  117OSM   H15B12208   5.358   5.854   5.839  2.3665 -1.4000  0.1430
  117OSM   H15C12209   5.390   5.768   5.987  0.9191  0.7817 -1.2488
  117OSM    C1412210   5.304   5.592   5.794 -0.0145 -0.3104  0.1986
  117OSM   H14A12211   5.371   5.647   5.730 -1.0504 -0.8788 -1.4448
  117OSM   H14B12212   5.235   5.530   5.739 -0.6717 -2.5127  3.2216
  117OSM   H14C12213   5.375   5.537   5.853 -0.0986 -0.2924  0.3172
  117OSM    C1312214   5.165   5.624   5.992 -0.0210 -0.2419  0.2753
  117OSM   H13A12215   5.245   5.573   6.043  0.8869  0.0573 -0.8167
  117OSM   H13B12216   5.092   5.548   5.969  0.3720  0.1699 -2.7564
  117OSM   H13C12217   5.127   5.701   6.058 -0.3336  0.9959 -1.2733
  117OSM    C1212218   5.110   5.752   5.781 -0.1087 -0.3564  0.3127
  117OSM   H12A12219   5.045   5.673   5.747  0.6956 -1.4160  1.1584
  117OSM   H12B12220   5.152   5.794   5.691 -0.9447 -1.8256 -0.8046
  117OSM    C1112221   5.011   5.858   5.841 -1.0858  0.0932 -0.1000
  117OSM   H11A12222   4.932   5.866   5.763 -0.7083 -0.3150 -0.5335
  117OSM   H11B12223   5.060   5.958   5.835  0.2678 -0.4461  1.3766
  117OSM      P12224   4.966   5.928   6.092  0.1283  0.2295  0.0230
  117OSM    O1312225   5.090   5.898   6.167 -0.3788 -0.1514 -0.4858
  117OSM    O1412226   4.929   6.065   6.064 -0.1932  0.2180  0.1519
  117OSM    O1112227   4.839   5.861   6.165 -0.1195  0.0336  0.1106
  117OSM    O1212228   4.963   5.831   5.969 -0.3744  0.6273  0.1330
  117OSM    C1S12229   4.846   5.725   6.223 -0.8814 -0.5889 -0.3990
  117OSM    H1S12230   4.949   5.689   6.244 -0.6879  0.3115  0.2597
  117OSM    H1T12231   4.782   5.650   6.173 -0.3873 -1.2191 -0.0921
  117OSM     NF12232   4.802   5.599   6.440 -0.3957 -0.3555  0.5479
  117OSM    HNF12233   4.725   5.538   6.453 -1.6914  0.7060 -1.5559
  117OSM    C2S12234   4.785   5.729   6.368  0.4140 -0.4362  0.4761
  117OSM    H2S12235   4.844   5.810   6.417 -0.7942  1.4380 -1.0223
  117OSM    C3S12236   4.636   5.789   6.362 -0.9960 -0.2233  0.0537
  117OSM    H3S12237   4.574   5.718   6.305 -1.3271 -1.2339  1.6105
  117OSM     O312238   4.613   5.911   6.297 -0.3159  0.1511  0.2706
  117OSM    HO312239   4.682   5.911   6.230 -0.8368 -0.6151 -0.2827
  117OSM    C4S12240   4.589   5.788   6.493 -0.1469 -0.2389  0.3086
  117OSM    H4S12241   4.530   5.696   6.505  0.1575 -0.1449  3.0392
  117OSM    C5S12242   4.604   5.880   6.592 -0.8284 -0.1051 -0.7020
  117OSM    H5S12243   4.667   5.969   6.578  1.3461 -1.7269 -1.6503
  117OSM    C6S12244   4.539   5.874   6.728 -0.0374  0.3490 -0.0462
  117OSM    H6S12245   4.452   5.804   6.729  0.4569 -0.2746  0.8226
  117OSM    H6T12246   4.484   5.969   6.748 -1.6172 -0.1977 -1.4504
  117OSM    C7S12247   4.628   5.848   6.850 -0.6056  0.1808 -0.0806
  117OSM    H7S12248   4.673   5.945   6.881 -2.2235  1.1634 -0.6914
  117OSM    H7T12249   4.707   5.770   6.836 -3.3914 -2.5806 -1.5844
  117OSM    C8S12250   4.545   5.802   6.970  0.1988 -0.0406 -0.0199
  117OSM    H8S12251   4.494   5.707   6.944 -0.4650  0.7516 -1.7985
  117OSM    H8T12252   4.463   5.873   6.995 -0.3488 -0.5367 -0.3762
  117OSM    C9S12253   4.632   5.783   7.096  0.1421 -0.3816 -0.1979
  117OSM    H9S12254   4.724   5.846   7.091 -0.0539  0.0315  1.1047
  117OSM    H9T12255   4.681   5.685   7.080  2.0061  0.7058 -1.7632
  117OSM   C10S12256   4.571   5.790   7.234 -0.9087 -0.0335 -0.0602
  117OSM   H10S12257   4.467   5.751   7.244 -1.4046  0.6739 -1.9849
  117OSM   H10T12258   4.568   5.896   7.267  0.8539  0.0786 -0.2012
  117OSM   C11S12259   4.648   5.710   7.344 -0.0304 -0.1520 -0.6193
  117OSM   H11S12260   4.755   5.740   7.349  0.1078 -0.8126  0.6644
  117OSM   H11T12261   4.640   5.604   7.311  1.2934  0.2229 -2.3159
  117OSM   C12S12262   4.593   5.728   7.490 -0.7403  0.6413 -0.5011
  117OSM   H12S12263   4.624   5.827   7.530 -1.1014  0.3756  0.4589
  117OSM   H12T12264   4.646   5.650   7.550 -2.0574  0.0070 -0.1186
  117OSM   C13S12265   4.445   5.719   7.517  0.4840  0.6347  0.5027
  117OSM   H13S12266   4.401   5.622   7.484 -0.3327  1.4245 -0.8180
  117OSM   H13T12267   4.399   5.796   7.452  1.1367  0.6723  0.0714
  117OSM   C14S12268   4.401   5.726   7.662  0.0847  0.0849 -0.2448
  117OSM   H14S12269   4.293   5.701   7.673  0.3615 -0.3851  1.7391
  117OSM   H14T12270   4.410   5.835   7.681 -0.7563  0.2205 -0.5854
  117OSM   C15S12271   4.475   5.629   7.751 -0.5060 -0.1599  0.1253
  117OSM   H15S12272   4.585   5.643   7.763 -0.6114  0.0875  0.8116
  117OSM   H15T12273   4.468   5.529   7.703  0.2433  0.6646 -1.8162
  117OSM   C16S12274   4.423   5.632   7.894 -0.3109 -0.0567 -0.2046
  117OSM   H16S12275   4.321   5.587   7.900 -0.2492 -0.0946  0.7296
  117OSM   H16T12276   4.411   5.740   7.915 -0.3857 -0.1434  0.2075
  117OSM   C17S12277   4.517   5.566   7.996 -0.2476  0.1404 -0.3184
  117OSM   H17S12278   4.559   5.473   7.951  1.4054  1.3049 -1.2809
  117OSM   H17T12279   4.464   5.535   8.089 -0.5426  0.9658 -0.2067
  117OSM   C18S12280   4.645   5.651   8.021  0.2354  0.1926  0.6183
  117OSM   H18S12281   4.616   5.733   8.090 -0.6459  1.2837 -0.9828
  117OSM   H18T12282   4.688   5.682   7.923  0.0684 -1.6868 -0.0900
  117OSM   H18U12283   4.730   5.596   8.068  1.3680  1.3134 -0.0422
  117OSM    C1F12284   4.917   5.545   6.468 -0.2403 -0.2511 -0.0938
  117OSM     OF12285   5.019   5.596   6.436 -0.1513 -0.0355 -0.5181
  117OSM    C2F12286   4.920   5.408   6.529 -0.4918  0.6792  0.2484
  117OSM    H2F12287   4.998   5.347   6.479  0.5192 -1.0391  3.6305
  117OSM    H2G12288   4.827   5.350   6.520 -0.0574 -0.1638  1.0421
  117OSM    C3F12289   4.959   5.416   6.681  0.1457 -0.0089  0.0498
  117OSM    H3F12290   5.060   5.460   6.693 -0.3186  1.8093 -2.1282
  117OSM    H3G12291   4.974   5.309   6.709 -0.4068 -0.9921 -3.0139
  117OSM    C4F12292   4.870   5.492   6.775  0.2767 -0.8748  0.0265
  117OSM    H4F12293   4.762   5.464   6.774  0.1001 -0.3511  1.6724
  117OSM    H4G12294   4.870   5.602   6.763 -0.8143 -0.7686  0.7969
  117OSM    C5F12295   4.920   5.480   6.919  0.0540 -0.0498 -0.4761
  117OSM    H5F12296   4.881   5.565   6.980 -0.8709 -2.1161  1.9851
  117OSM    H5G12297   5.031   5.487   6.921  0.1366  0.5852 -3.1049
  117OSM    C6F12298   4.885   5.352   6.997  0.6396 -0.3277 -0.9835
  117OSM    H6F12299   4.908   5.262   6.935 -3.8516 -0.3694 -3.0169
  117OSM    H6G12300   4.775   5.350   7.017  0.2258 -0.7597 -3.0156
  117OSM    C7F12301   4.953   5.341   7.135 -0.2261  0.5251 -0.1198
  117OSM    H7F12302   5.059   5.365   7.115  0.5991 -0.8137  2.3261
  117OSM    H7G12303   4.968   5.232   7.149  1.6692  0.4810 -1.9604
  117OSM    C8F12304   4.894   5.434   7.241 -0.1571  0.2758  0.3697
  117OSM    H8F12305   4.784   5.421   7.233 -0.1813  1.4242 -2.1060
  117OSM    H8G12306   4.919   5.536   7.203  2.3689 -0.6811 -0.7826
  117OSM    C9F12307   4.960   5.403   7.371  0.6442 -0.4505 -0.6353
  117OSM    H9F12308   5.070   5.400   7.359  0.6946 -0.6432 -0.1450
  117OSM   C10F12309   4.896   5.367   7.485 -0.5184 -0.5044  0.6079
  117OSM   H10F12310   4.953   5.343   7.576 -0.1103  2.0549  1.1149
  117OSM   C11F12311   4.749   5.343   7.499 -0.2839  0.4992 -0.4960
  117OSM   H11F12312   4.716   5.299   7.402  0.5547  0.0119 -0.5697
  117OSM   H11G12313   4.697   5.439   7.520 -0.3277  0.6604 -1.2927
  117OSM   C12F12314   4.709   5.248   7.615  0.2460  0.2798 -0.3117
  117OSM   H12F12315   4.753   5.146   7.608 -0.9964 -0.4013  1.0976
  117OSM   H12G12316   4.602   5.224   7.599  0.1930  0.5839 -0.4167
  117OSM   C13F12317   4.736   5.314   7.749  0.5283  0.3233 -0.4988
  117OSM   H13F12318   4.710   5.422   7.746  1.4923  0.5350 -1.8139
  117OSM   H13G12319   4.846   5.323   7.752  0.5579 -0.1880  0.2781
  117OSM   C14F12320   4.690   5.239   7.872 -0.7301  0.9292  0.1330
  117OSM   H14F12321   4.701   5.135   7.836 -0.1441  1.3932 -1.0601
  117OSM   H14G12322   4.583   5.268   7.886 -0.8639 -0.5326  2.9218
  117OSM   C15F12323   4.768   5.262   7.996  0.0453  0.4273 -0.2499
  117OSM   H15F12324   4.778   5.370   8.022 -2.0574  0.8004 -0.7603
  117OSM   H15G12325   4.873   5.230   7.976 -0.4211 -1.9025  0.6674
  117OSM   C16F12326   4.712   5.173   8.101 -0.3360  0.3404  0.2937
  117OSM   H16F12327   4.720   5.067   8.070  1.3697  0.5516 -0.0516
  117OSM   H16G12328   4.605   5.201   8.114 -1.1039 -1.8297 -0.8489
  117OSM   C17F12329   4.782   5.193   8.240 -0.3741  0.7066  0.2440
  117OSM   H17F12330   4.749   5.107   8.302  3.4721 -1.8461 -0.9201
  117OSM   H17G12331   4.891   5.173   8.236 -0.6963 -2.3383  2.8606
  117OSM   C18F12332   4.735   5.319   8.314  0.7230  0.8359 -0.1215
  117OSM   H18F12333   4.793   5.340   8.406 -0.5417 -0.5070  1.0302
  117OSM   H18G12334   4.633   5.290   8.349 -0.1212 -0.4501 -3.3097
  117OSM   H18H12335   4.729   5.405   8.243  2.6497 -0.2964 -1.7498
  118OSM      N12336   6.727   0.778   6.004 -0.0334 -0.4821 -0.2444
  118OSM    C1512337   6.632   0.673   5.956 -0.3910 -0.0653 -0.4638
  118OSM   H15A12338   6.542   0.704   6.006  0.4684 -0.4612  1.4171
  118OSM   H15B12339   6.649   0.570   5.985  0.9822  0.3917  0.5009
  118OSM   H15C12340   6.614   0.672   5.850 -1.0927 -1.0513 -0.3577
  118OSM    C1412341   6.842   0.781   5.908 -0.5163  0.4739 -0.6594
  118OSM   H14A12342   6.857   0.676   5.886 -4.2761 -0.2609 -0.4052
  118OSM   H14B12343   6.935   0.810   5.955 -0.2123 -1.0534 -0.2458
  118OSM   H14C12344   6.831   0.833   5.814  0.2639 -0.2732 -1.1813
  118OSM    C1312345   6.656   0.914   5.998  0.0469 -0.5312  0.0398
  118OSM   H13A12346   6.704   0.999   6.044 -2.0821  1.2603 -0.8595
  118OSM   H13B12347   6.564   0.896   6.052 -0.8877 -3.7718 -2.3099
  118OSM   H13C12348   6.639   0.948   5.896  0.0633  0.4640  0.3570
  118OSM    C1212349   6.771   0.749   6.146 -0.9242 -0.4672  0.3715
  118OSM   H12A12350   6.850   0.675   6.143  0.7478  1.2799 -0.1135
  118OSM   H12B12351   6.690   0.701   6.199 -0.7732 -0.8225  0.2887
  118OSM    C1112352   6.828   0.868   6.223  0.1975 -0.5452 -0.6346
  118OSM   H11A12353   6.855   0.829   6.323 -2.1839 -2.6731 -0.6985
  118OSM   H11B12354   6.757   0.952   6.237  1.3718  0.4258 -0.3791
  118OSM      P12355   6.992   1.061   6.175 -0.2353 -0.2154 -0.1065
  118OSM    O1312356   7.138   1.064   6.149 -0.5334 -0.3363 -0.0142
  118OSM    O1412357   6.903   1.153   6.095 -0.5127  0.5258 -0.1928
  118OSM    O1112358   6.959   1.089   6.324  0.2804  0.0776 -0.2217
  118OSM    O1212359   6.941   0.911   6.157 -0.2986 -0.5549  0.1214
  118OSM    C1S12360   7.019   1.201   6.396 -0.4309  0.3160  0.4916
  118OSM    H1S12361   6.964   1.294   6.372 -1.2659 -0.6473 -1.5735
  118OSM    H1T12362   7.121   1.216   6.355 -0.7193 -1.2525 -0.9008
  118OSM     NF12363   7.100   1.289   6.608  0.8784  0.4378  0.6176
  118OSM    HNF12364   7.188   1.287   6.655  0.4832  0.9781  1.4055
  118OSM    C2S12365   7.044   1.175   6.546 -0.1785 -0.8124 -0.0375
  118OSM    H2S12366   6.946   1.158   6.595 -0.1916 -1.5981 -0.3198
  118OSM    C3S12367   7.129   1.041   6.570 -0.1720 -0.5260 -0.3940
  118OSM    H3S12368   7.235   1.053   6.538 -0.0464 -0.6638 -0.0447
  118OSM     O312369   7.078   0.921   6.507 -0.1429 -0.0140  0.4505
  118OSM    HO312370   6.999   0.939   6.455  1.2868 -0.2250 -1.9623
  118OSM    C4S12371   7.147   1.009   6.719  0.3558 -0.7194  0.5285
  118OSM    H4S12372   7.240   1.052   6.757 -1.2870  1.2220  2.6242
  118OSM    C5S12373   7.063   0.953   6.809  0.3487 -0.7243  0.5485
  118OSM    H5S12374   6.958   0.928   6.785 -0.3705  2.6217 -0.3270
  118OSM    C6S12375   7.088   0.930   6.954  0.7410 -0.1373 -0.1323
  118OSM    H6S12376   7.090   0.819   6.967 -1.2733 -0.3844 -1.4073
  118OSM    H6T12377   6.995   0.961   7.006 -1.7687 -0.1578 -4.1054
  118OSM    C7S12378   7.196   1.013   7.014  0.2929 -0.4568 -0.1374
  118OSM    H7S12379   7.176   1.121   6.997 -0.5848 -0.2742  1.8083
  118OSM    H7T12380   7.293   0.996   6.961  1.1407  1.2911  0.7545
  118OSM    C8S12381   7.218   0.992   7.167  0.2561  0.1128  0.3898
  118OSM    H8S12382   7.140   1.054   7.217  1.4679  2.4861 -0.5253
  118OSM    H8T12383   7.317   1.036   7.189  0.8235 -0.4323 -0.9542
  118OSM    C9S12384   7.222   0.845   7.215  0.2440  0.1457 -0.4883
  118OSM    H9S12385   7.307   0.789   7.169 -0.1255 -0.3472 -0.5878
  118OSM    H9T12386   7.127   0.797   7.181  0.5965  1.4173 -3.5990
  118OSM   C10S12387   7.248   0.833   7.357  0.4386  0.4968 -0.0012
  118OSM   H10S12388   7.180   0.902   7.411  2.5809  2.1179  0.7565
  118OSM   H10T12389   7.351   0.869   7.375  0.1218 -0.2970  4.5620
  118OSM   C11S12390   7.242   0.680   7.400  0.6139 -0.2124 -1.0417
  118OSM   H11S12391   7.334   0.627   7.367  0.6648  0.3623 -1.8571
  118OSM   H11T12392   7.147   0.631   7.368 -0.3236  0.8059  0.0726
  118OSM   C12S12393   7.243   0.668   7.559 -0.2783 -0.2598 -1.5765
  118OSM   H12S12394   7.150   0.723   7.586  0.9568  0.6382  1.2388
  118OSM   H12T12395   7.323   0.741   7.586 -0.3906 -0.4907 -0.5888
  118OSM   C13S12396   7.275   0.541   7.622 -0.4342  0.5774  0.5774
  118OSM   H13S12397   7.367   0.503   7.573 -1.3499  2.0379 -2.5550
  118OSM   H13T12398   7.194   0.469   7.596 -0.8167  0.3292  2.3652
  118OSM   C14S12399   7.283   0.537   7.778  0.1773  0.1467  0.6032
  118OSM   H14S12400   7.193   0.593   7.813  0.7043  2.0187 -0.8580
  118OSM   H14T12401   7.376   0.589   7.810  1.0395 -0.2880 -1.0714
  118OSM   C15S12402   7.273   0.394   7.837 -0.3129 -0.7319 -0.3322
  118OSM   H15S12403   7.349   0.325   7.793 -1.1275 -0.6627 -1.9254
  118OSM   H15T12404   7.179   0.349   7.800 -2.5186  0.8227  2.9166
  118OSM   C16S12405   7.272   0.407   7.990 -0.1051  1.2901 -0.0994
  118OSM   H16S12406   7.203   0.485   8.029 -1.1689  1.3454 -1.9877
  118OSM   H16T12407   7.377   0.433   8.013  1.2056 -4.1973  1.4936
  118OSM   C17S12408   7.246   0.275   8.075  0.1406  0.1865  0.1336
  118OSM   H17S12409   7.285   0.297   8.177 -0.8950  0.5378  0.4659
  118OSM   H17T12410   7.306   0.196   8.026  0.0048  1.1623 -1.6707
  118OSM   C18S12411   7.104   0.230   8.063  0.1092  0.2480 -0.4263
  118OSM   H18S12412   7.071   0.220   7.958 -1.4614  0.5534 -0.0036
  118OSM   H18T12413   7.027   0.291   8.116 -2.2380 -2.3698 -0.6056
  118OSM   H18U12414   7.078   0.135   8.114  1.1060  0.3698  0.3439
  118OSM    C1F12415   7.033   1.406   6.606 -0.0726 -0.1001  0.2809
  118OSM     OF12416   6.911   1.409   6.583  0.0015  0.6796  0.1423
  118OSM    C2F12417   7.111   1.535   6.632  0.1211 -0.0997 -0.2804
  118OSM    H2F12418   7.043   1.621   6.653  0.0271  0.1345 -1.4467
  118OSM    H2G12419   7.169   1.559   6.540  2.3890 -0.0310  1.0948
  118OSM    C3F12420   7.204   1.526   6.761  0.8299 -0.0491  0.1679
  118OSM    H3F12421   7.252   1.624   6.782  2.1600 -0.2772 -1.6009
  118OSM    H3G12422   7.279   1.447   6.743  1.3029  0.4910 -0.2770
  118OSM    C4F12423   7.143   1.476   6.894 -0.0739  0.1314  0.0546
  118OSM    H4F12424   7.082   1.383   6.887 -1.8456  1.1156  1.4962
  118OSM    H4G12425   7.065   1.544   6.934 -2.0086 -2.2307  0.5552
  118OSM    C5F12426   7.246   1.457   7.006  0.2468  0.0564 -0.4478
  118OSM    H5F12427   7.283   1.557   7.037 -1.1873  0.7438 -0.8756
  118OSM    H5G12428   7.332   1.398   6.967 -0.4802  0.2104 -2.3524
  118OSM    C6F12429   7.185   1.387   7.127  0.0323  0.0465 -0.2174
  118OSM    H6F12430   7.132   1.295   7.095  2.5298 -1.0600 -1.4309
  118OSM    H6G12431   7.097   1.447   7.157  0.3345  0.6556 -0.5343
  118OSM    C7F12432   7.293   1.359   7.241 -0.0939 -0.0033  0.6515
  118OSM    H7F12433   7.347   1.456   7.242  0.3696 -0.1940 -1.3623
  118OSM    H7G12434   7.365   1.281   7.208  0.6032  0.3371  1.3431
  118OSM    C8F12435   7.236   1.324   7.375 -1.2668  0.2347  0.3684
  118OSM    H8F12436   7.177   1.230   7.378 -0.3061 -0.3758  2.3219
  118OSM    H8G12437   7.168   1.408   7.398  1.9423  3.3016 -0.5756
  118OSM    C9F12438   7.337   1.316   7.491  0.2381 -0.0678  0.0213
  118OSM    H9F12439   7.407   1.400   7.488 -0.2032  0.2856 -1.4459
  118OSM   C10F12440   7.354   1.218   7.585 -0.6847  0.7841 -0.2462
  118OSM   H10F12441   7.430   1.234   7.663  1.2007 -1.4844 -1.4874
  118OSM   C11F12442   7.275   1.093   7.606 -0.3519  0.1914 -0.1435
  118OSM   H11F12443   7.324   1.006   7.558  1.3467 -0.1186  2.0211
  118OSM   H11G12444   7.177   1.099   7.553 -0.4959 -3.2591 -0.4972
  118OSM   C12F12445   7.246   1.062   7.753  0.0922 -0.3816 -0.7893
  118OSM   H12F12446   7.182   0.971   7.753 -0.0640 -0.2729 -0.8014
  118OSM   H12G12447   7.187   1.146   7.796 -2.1281 -2.5765  0.7708
  118OSM   C13F12448   7.367   1.044   7.848 -0.7099 -0.1542 -0.1520
  118OSM   H13F12449   7.425   1.138   7.863  0.1284 -0.7280  0.3179
  118OSM   H13G12450   7.439   0.975   7.799  0.4566  0.6084  0.4237
  118OSM   C14F12451   7.327   0.982   7.986 -0.0490 -0.2027  0.0055
  118OSM   H14F12452   7.287   0.879   7.974 -2.8189  0.7310  0.5339
  118OSM   H14G12453   7.249   1.044   8.035  0.2545  0.7127 -0.6533
  118OSM   C15F12454   7.447   0.978   8.086 -0.0498  0.2709  0.2452
  118OSM   H15F12455   7.508   1.071   8.075 -1.7397  1.4146  0.1699
  118OSM   H15G12456   7.509   0.891   8.056 -1.6123 -1.2531  1.2660
  118OSM   C16F12457   7.409   0.953   8.233 -0.0833  0.4667 -0.0450
  118OSM   H16F12458   7.334   0.872   8.233  1.1961 -1.0346 -4.6985
  118OSM   H16G12459   7.375   1.046   8.284  2.2916  2.9493 -2.6029
  118OSM   C17F12460   7.527   0.910   8.312 -0.0704  0.4320 -0.0839
  118OSM   H17F12461   7.581   0.833   8.254 -2.5258 -0.9303 -0.7316
  118OSM   H17G12462   7.498   0.867   8.411  0.0570  0.6986  0.0706
  118OSM   C18F12463   7.623   1.025   8.341 -0.0490  0.4619 -0.5745
  118OSM   H18F12464   7.712   0.986   8.396  0.2968 -0.4381 -1.7165
  118OSM   H18G12465   7.570   1.104   8.398  0.7134  0.7990 -0.3152
  118OSM   H18H12466   7.661   1.065   8.245  0.8778  1.5095  0.1994
  119OSM      N12467   1.487   6.599   5.587 -0.5844  0.0740  0.4373
  119OSM    C1512468   1.420   6.482   5.540 -0.0453 -0.0252  0.8304
  119OSM   H15A12469   1.463   6.395   5.589  0.8777 -0.7977 -1.2427
  119OSM   H15B12470   1.423   6.474   5.432  1.5477 -1.0020  0.9150
  119OSM   H15C12471   1.313   6.483   5.559  0.0329 -0.7304  1.3647
  119OSM    C1412472   1.633   6.579   5.559 -0.3323  0.1784  0.9862
  119OSM   H14A12473   1.643   6.590   5.452 -1.5488 -0.8174  0.7391
  119OSM   H14B12474   1.678   6.487   5.594 -1.6803 -1.4252 -1.1756
  119OSM   H14C12475   1.683   6.662   5.606 -1.5064  2.2795 -1.2683
  119OSM    C1312476   1.442   6.727   5.525 -0.5457 -0.4202 -0.3712
  119OSM   H13A12477   1.450   6.733   5.417  0.8592 -0.4318 -0.2877
  119OSM   H13B12478   1.503   6.813   5.545  0.2749 -0.7928 -1.2002
  119OSM   H13C12479   1.338   6.743   5.548 -0.9502  0.6810 -2.6787
  119OSM    C1212480   1.471   6.622   5.735  0.5862  0.2893 -0.0099
  119OSM   H12A12481   1.472   6.521   5.772 -1.0229 -0.3681 -1.6064
  119OSM   H12B12482   1.368   6.652   5.749  1.3815  2.3177  2.0968
  119OSM    C1112483   1.553   6.722   5.820  0.1973  0.3172  0.0530
  119OSM   H11A12484   1.512   6.721   5.924 -0.4277 -2.5713 -0.1269
  119OSM   H11B12485   1.560   6.823   5.776  1.0028  0.7502  1.1178
  119OSM      P12486   1.805   6.781   5.868 -0.4912  0.1461 -0.1753
  119OSM    O1312487   1.926   6.697   5.884  0.0179 -0.3918 -0.0418
  119OSM    O1412488   1.821   6.889   5.771 -0.3593 -0.1906  0.2763
  119OSM    O1112489   1.768   6.829   6.015  0.3942  0.9647 -0.2164
  119OSM    O1212490   1.690   6.679   5.823 -0.5066  0.0084 -0.7015
  119OSM    C1S12491   1.767   6.741   6.130 -0.3319  0.3199 -0.4780
  119OSM    H1S12492   1.867   6.694   6.139  0.2534  1.6577  0.1510
  119OSM    H1T12493   1.685   6.666   6.122 -1.0944  1.0528  0.3830
  119OSM     NF12494   1.764   6.759   6.380 -0.1321 -0.3092  0.1360
  119OSM    HNF12495   1.681   6.747   6.435  0.4767  2.7241  1.9334
  119OSM    C2S12496   1.749   6.827   6.251  0.2575 -0.1904  0.4675
  119OSM    H2S12497   1.835   6.898   6.242 -1.9444  2.4040 -1.9183
  119OSM    C3S12498   1.609   6.900   6.252  0.5530 -0.3156 -0.0441
  119OSM    H3S12499   1.533   6.820   6.261  2.0002 -1.5876  1.6398
  119OSM     O312500   1.572   6.984   6.143 -0.3135  0.1551  0.4688
  119OSM    HO312501   1.637   6.957   6.077 -0.7437 -1.0070  0.4929
  119OSM    C4S12502   1.593   6.980   6.378  0.4267 -0.2479 -0.4152
  119OSM    H4S12503   1.511   6.955   6.446  0.2815  0.8393 -0.1764
  119OSM    C5S12504   1.661   7.104   6.402  0.1109  0.8926 -0.2862
  119OSM    H5S12505   1.727   7.140   6.322 -1.5557  0.5125 -1.8841
  119OSM    C6S12506   1.645   7.185   6.529 -0.7220 -0.0334 -0.3615
  119OSM    H6S12507   1.692   7.282   6.502  2.5126 -1.9373 -2.2065
  119OSM    H6T12508   1.688   7.151   6.626 -0.0415  0.4613 -0.4853
  119OSM    C7S12509   1.496   7.209   6.560 -1.0725 -0.9811  0.3748
  119OSM    H7S12510   1.454   7.117   6.604  0.7601 -1.3566  1.4520
  119OSM    H7T12511   1.447   7.242   6.466 -0.5318 -0.0317  0.4047
  119OSM    C8S12512   1.486   7.322   6.666  0.0273  0.2468  0.1862
  119OSM    H8S12513   1.381   7.359   6.665  0.7069  2.3867  0.9211
  119OSM    H8T12514   1.527   7.415   6.620 -2.4695  1.0050 -0.6391
  119OSM    C9S12515   1.548   7.289   6.805  0.4778  0.1422  0.2312
  119OSM    H9S12516   1.654   7.264   6.784  0.6239  1.2418 -0.3922
  119OSM    H9T12517   1.491   7.202   6.845  0.8863  0.8804  2.5584
  119OSM   C10S12518   1.542   7.402   6.908  0.5081  1.1084  0.1279
  119OSM   H10S12519   1.437   7.438   6.914  0.3109  0.4227  1.1324
  119OSM   H10T12520   1.606   7.489   6.880  1.7659  0.8533  2.0031
  119OSM   C11S12521   1.587   7.353   7.045  0.6910 -0.1141  0.2851
  119OSM   H11S12522   1.510   7.274   7.060 -0.4201  1.1667  1.6662
  119OSM   H11T12523   1.565   7.430   7.122 -1.6659  0.6793 -1.0743
  119OSM   C12S12524   1.735   7.314   7.066  0.5699  0.3315 -0.4206
  119OSM   H12S12525   1.794   7.383   7.001  0.9679 -0.0208 -0.4417
  119OSM   H12T12526   1.753   7.206   7.047 -0.5741 -0.4605  2.5598
  119OSM   C13S12527   1.777   7.333   7.214  0.3107  0.1085  0.1832
  119OSM   H13S12528   1.751   7.437   7.246  1.0056  1.2945 -2.7574
  119OSM   H13T12529   1.888   7.328   7.218  0.4873  1.8211 -1.1054
  119OSM   C14S12530   1.704   7.231   7.304  0.9067  0.3867  0.0910
  119OSM   H14S12531   1.737   7.129   7.273  1.2446 -0.0067  1.6576
  119OSM   H14T12532   1.595   7.221   7.285  0.5769 -0.4329  2.1442
  119OSM   C15S12533   1.729   7.225   7.455  0.9171  0.2080 -0.4581
  119OSM   H15S12534   1.830   7.192   7.486 -0.0747 -0.3078  2.5605
  119OSM   H15T12535   1.658   7.159   7.509  0.1512  0.6714 -0.8714
  119OSM   C16S12536   1.704   7.362   7.527 -0.0601 -0.5856  0.0200
  119OSM   H16S12537   1.599   7.393   7.505  0.5003  0.1151 -1.8694
  119OSM   H16T12538   1.781   7.438   7.503 -1.0072 -0.0281 -1.4137
  119OSM   C17S12539   1.701   7.353   7.685  1.1239 -0.4234  0.3132
  119OSM   H17S12540   1.629   7.272   7.708 -0.3370  0.7769  0.1235
  119OSM   H17T12541   1.663   7.445   7.734  1.2612 -0.0103 -0.3259
  119OSM   C18S12542   1.835   7.319   7.743  0.3431 -0.3042  0.1754
  119OSM   H18S12543   1.823   7.320   7.853 -1.8184 -0.8199 -0.0058
  119OSM   H18T12544   1.906   7.398   7.709  1.4184 -0.7241  1.3763
  119OSM   H18U12545   1.871   7.216   7.721  1.2474  0.1278 -0.4185
  119OSM    C1F12546   1.879   6.693   6.426  0.8986  0.2264  0.2544
  119OSM     OF12547   1.976   6.671   6.352  0.4500  0.0535  0.2874
  119OSM    C2F12548   1.876   6.650   6.567  0.5059  0.2328 -0.1668
  119OSM    H2F12549   1.788   6.588   6.594  0.6282  0.0905 -0.0909
  119OSM    H2G12550   1.876   6.744   6.626  0.1535 -0.2590  0.6453
  119OSM    C3F12551   1.986   6.550   6.606  0.1949  0.5141 -0.3560
  119OSM    H3F12552   2.085   6.594   6.582  0.6870 -1.2794 -1.8795
  119OSM    H3G12553   1.963   6.460   6.545  1.0676  1.5795 -2.3573
  119OSM    C4F12554   1.974   6.507   6.757  0.3836  0.2642 -0.2689
  119OSM    H4F12555   2.046   6.424   6.771 -1.8674 -1.5279  1.4524
  119OSM    H4G12556   1.870   6.470   6.771  0.6615 -1.6393 -2.6031
  119OSM    C5F12557   2.013   6.627   6.851  0.1775 -0.1398 -0.0552
  119OSM    H5F12558   1.953   6.718   6.829 -2.8127 -1.8336  0.5336
  119OSM    H5G12559   2.119   6.649   6.826 -0.1053  1.7675  0.2822
  119OSM    C6F12560   1.998   6.594   7.000 -1.0718 -0.0271  0.1544
  119OSM    H6F12561   2.055   6.677   7.047  1.6259 -1.9160  0.4227
  119OSM    H6G12562   2.046   6.500   7.036  0.5612  0.8007  0.2454
  119OSM    C7F12563   1.847   6.594   7.050  0.4953 -0.5487  0.4533
  119OSM    H7F12564   1.787   6.519   6.993 -0.5133 -0.5228  1.4575
  119OSM    H7G12565   1.804   6.689   7.014  0.0569 -0.9068  0.0115
  119OSM    C8F12566   1.836   6.573   7.202  0.1526 -0.6407 -0.9571
  119OSM    H8F12567   1.729   6.574   7.233  0.9713  0.1628  2.1720
  119OSM    H8G12568   1.887   6.657   7.254 -1.4222 -0.1425 -0.1520
  119OSM    C9F12569   1.890   6.442   7.244 -0.3110 -0.1676  0.3386
  119OSM    H9F12570   1.853   6.359   7.182  2.9461 -1.1186 -0.5323
  119OSM   C10F12571   1.945   6.417   7.362  0.3831 -0.0539 -0.1432
  119OSM   H10F12572   1.979   6.316   7.388 -1.6584 -0.8840 -0.5034
  119OSM   C11F12573   1.965   6.511   7.480  0.1488  0.2630  0.3723
  119OSM   H11F12574   1.870   6.555   7.517 -0.6359 -1.4321  0.4821
  119OSM   H11G12575   2.032   6.595   7.454 -1.2887  1.4874  0.4551
  119OSM   C12F12576   2.019   6.440   7.612 -0.7298  0.3161  0.2298
  119OSM   H12F12577   2.119   6.410   7.574  0.4348 -0.2834  3.4740
  119OSM   H12G12578   1.961   6.347   7.631 -0.1107  0.3180  2.3500
  119OSM   C13F12579   2.036   6.535   7.730 -0.3093  0.5045 -0.2346
  119OSM   H13F12580   1.938   6.584   7.750 -0.6855 -0.6522  0.8887
  119OSM   H13G12581   2.101   6.617   7.692  3.1355 -1.6763  0.5107
  119OSM   C14F12582   2.093   6.471   7.860  0.1340  0.0723 -0.7160
  119OSM   H14F12583   2.167   6.393   7.835  0.6795  0.3518  0.0123
  119OSM   H14G12584   2.014   6.413   7.913 -0.4714  1.7820  0.3501
  119OSM   C15F12585   2.151   6.572   7.964  0.2052  0.2689  0.8375
  119OSM   H15F12586   2.077   6.645   8.005  0.3733  0.8799  0.0801
  119OSM   H15G12587   2.234   6.623   7.911 -0.8619  0.5305 -0.6335
  119OSM   C16F12588   2.237   6.504   8.082  0.0274  0.4946 -0.2944
  119OSM   H16F12589   2.320   6.439   8.046  2.0764  2.5186  0.5145
  119OSM   H16G12590   2.164   6.439   8.134  2.2386 -1.4388  0.5265
  119OSM   C17F12591   2.302   6.610   8.171  0.3032 -0.3175  0.4636
  119OSM   H17F12592   2.220   6.661   8.226  1.0438 -2.7268  4.1573
  119OSM   H17G12593   2.362   6.683   8.113 -0.5771  1.0430  1.2090
  119OSM   C18F12594   2.385   6.555   8.287  0.2112  0.1486  0.7685
  119OSM   H18F12595   2.453   6.628   8.337 -0.4755  1.8015 -0.5949
  119OSM   H18G12596   2.441   6.464   8.260  1.6795  0.6017  2.1119
  119OSM   H18H12597   2.312   6.513   8.360  0.2283 -0.8338  0.2346
  120OSM      N12598   6.521   3.753   6.149  0.2286  1.1940 -0.5951
  120OSM    C1512599   6.404   3.851   6.127 -0.1286 -0.6612 -0.3198
  120OSM   H15A12600   6.411   3.935   6.194  4.4736  0.2302 -1.5775
  120OSM   H15B12601   6.310   3.797   6.138  0.6915 -1.8235  1.5502
  120OSM   H15C12602   6.411   3.898   6.030 -0.1799 -0.2176 -0.1114
  120OSM    C1412603   6.509   3.641   6.055  0.3174 -0.5181 -0.2644
  120OSM   H14A12604   6.596   3.577   6.054  0.1658 -0.7318 -1.5409
  120OSM   H14B12605   6.506   3.685   5.956 -1.6367  0.1267  0.0275
  120OSM   H14C12606   6.414   3.590   6.058  0.1670 -0.2746 -0.7373
  120OSM    C1312607   6.648   3.822   6.118 -0.0774  0.2722 -0.2724
  120OSM   H13A12608   6.727   3.762   6.161 -0.9518 -1.1811 -0.6313
  120OSM   H13B12609   6.649   3.923   6.158 -0.5586  0.3258 -0.3948
  120OSM   H13C12610   6.673   3.837   6.014  1.3445  0.1509  0.0339
  120OSM    C1212611   6.523   3.699   6.291 -0.6571 -0.2787  0.1631
  120OSM   H12A12612   6.426   3.656   6.311  0.2688 -1.3537  2.7822
  120OSM   H12B12613   6.532   3.787   6.352  2.4775  0.1069 -0.6900
  120OSM    C1112614   6.646   3.606   6.336  0.2845 -0.0576  0.3209
  120OSM   H11A12615   6.650   3.522   6.262  1.6815  0.1404  0.1521
  120OSM   H11B12616   6.616   3.558   6.431  0.0923 -1.2933 -0.3402
  120OSM      P12617   6.886   3.620   6.454  0.8437 -0.1455 -0.5755
  120OSM    O1312618   6.917   3.488   6.397  0.3455 -0.3722 -0.3054
  120OSM    O1412619   6.992   3.717   6.467 -0.5178  0.5115 -0.2124
  120OSM    O1112620   6.806   3.591   6.587 -0.1441  0.2781  0.2958
  120OSM    O1212621   6.775   3.677   6.349  0.1514  0.1542 -0.1184
  120OSM    C1S12622   6.772   3.696   6.681 -0.4969  0.5410  0.0209
  120OSM    H1S12623   6.685   3.750   6.638 -1.5659 -0.3823  0.9700
  120OSM    H1T12624   6.854   3.770   6.690  0.0586 -0.1882  1.1036
  120OSM     NF12625   6.709   3.754   6.913 -0.5740  0.1303  0.7016
  120OSM    HNF12626   6.782   3.774   6.978 -0.3038 -0.3767  0.5622
  120OSM    C2S12627   6.744   3.638   6.822  0.1063 -0.6623 -0.3318
  120OSM    H2S12628   6.653   3.574   6.816  0.8514 -1.6940 -0.8505
  120OSM    C3S12629   6.857   3.539   6.864 -0.1028  0.0353  0.1949
  120OSM    H3S12630   6.948   3.603   6.858  0.7992 -0.9452  2.1910
  120OSM     O312631   6.871   3.421   6.780  0.7370  0.4806  0.2080
  120OSM    HO312632   6.856   3.465   6.696 -0.8724 -0.7484 -0.1977
  120OSM    C4S12633   6.836   3.504   7.010  0.0941 -0.3733 -0.2464
  120OSM    H4S12634   6.843   3.595   7.072 -2.8794 -0.0797 -0.2011
  120OSM    C5S12635   6.809   3.386   7.069 -0.6272 -0.0995  0.5097
  120OSM    H5S12636   6.795   3.299   7.004 -0.8098  0.0342  0.3691
  120OSM    C6S12637   6.795   3.349   7.210 -0.4787 -0.0513  0.3137
  120OSM    H6S12638   6.693   3.310   7.232 -0.9434  0.3518 -1.0440
  120OSM    H6T12639   6.812   3.448   7.256 -2.0146 -0.0795  0.9987
  120OSM    C7S12640   6.903   3.245   7.254 -0.0348  0.4680  0.0115
  120OSM    H7S12641   7.002   3.293   7.235 -0.4836  1.8244  0.9572
  120OSM    H7T12642   6.897   3.156   7.188 -1.8569  0.9567 -0.5306
  120OSM    C8S12643   6.888   3.195   7.402  0.2104  0.6409 -0.4784
  120OSM    H8S12644   6.866   3.286   7.461 -0.5183  1.5026 -2.0270
  120OSM    H8T12645   6.984   3.149   7.434 -0.2990  1.4428  2.5037
  120OSM    C9S12646   6.769   3.095   7.418  0.0754 -0.1180  0.0460
  120OSM    H9S12647   6.787   3.014   7.345 -0.8369 -0.6946  0.4510
  120OSM    H9T12648   6.679   3.157   7.395  0.0582 -0.1992 -0.1043
  120OSM   C10S12649   6.764   3.032   7.559  0.2393  0.5920  0.3273
  120OSM   H10S12650   6.863   3.011   7.605 -0.3611 -4.5368 -0.1958
  120OSM   H10T12651   6.713   2.935   7.545 -0.2526  0.8958 -0.0192
  120OSM   C11S12652   6.669   3.114   7.650 -0.5029 -0.3383  0.9823
  120OSM   H11S12653   6.586   3.150   7.585  1.1325  5.6014  1.5971
  120OSM   H11T12654   6.710   3.210   7.688  0.0127 -1.0905  2.3840
  120OSM   C12S12655   6.623   3.028   7.769 -1.0137  0.3777 -0.3239
  120OSM   H12S12656   6.588   2.928   7.736  2.4934 -0.9848 -0.3908
  120OSM   H12T12657   6.536   3.088   7.804 -0.3238  1.1025  0.1888
  120OSM   C13S12658   6.739   3.011   7.872  0.1668 -0.4956  0.0007
  120OSM   H13S12659   6.765   3.107   7.922 -0.6093  0.0768 -0.6625
  120OSM   H13T12660   6.821   2.980   7.804 -1.0441 -0.8257 -1.3769
  120OSM   C14S12661   6.711   2.909   7.973  0.3039  0.7823  0.0035
  120OSM   H14S12662   6.680   2.816   7.919  0.7562  1.0490 -0.7233
  120OSM   H14T12663   6.631   2.948   8.040  1.7439  4.0292 -0.0320
  120OSM   C15S12664   6.834   2.863   8.060  0.1745  0.7894  0.1245
  120OSM   H15S12665   6.871   2.955   8.110 -1.7929  2.3534 -1.1068
  120OSM   H15T12666   6.916   2.831   7.992 -0.2301  0.1546 -0.0699
  120OSM   C16S12667   6.802   2.756   8.172  0.3033 -0.2556  0.4266
  120OSM   H16S12668   6.766   2.663   8.124 -0.9146  0.8853 -0.9807
  120OSM   H16T12669   6.716   2.799   8.228  0.2846  0.2686  0.0048
  120OSM   C17S12670   6.926   2.744   8.268 -0.2607  0.1406  0.5224
  120OSM   H17S12671   6.941   2.846   8.311 -1.5473  0.4029  0.3807
  120OSM   H17T12672   7.012   2.710   8.207 -0.2494  1.6558 -0.3528
  120OSM   C18S12673   6.899   2.656   8.391 -0.0623 -0.2313  0.1991
  120OSM   H18S12674   6.988   2.668   8.457  0.2201  2.6031 -0.5613
  120OSM   H18T12675   6.889   2.548   8.365 -1.7189  0.3471 -1.8800
  120OSM   H18U12676   6.809   2.698   8.440  0.8354  0.3411  1.4303
  120OSM    C1F12677   6.595   3.827   6.892  0.4400 -0.1608  0.2503
  120OSM     OF12678   6.513   3.797   6.809  0.2314  0.0534  0.2866
  120OSM    C2F12679   6.581   3.943   6.985 -0.4179  0.3236  0.5012
  120OSM    H2F12680   6.675   3.951   7.044  1.8613  0.6195 -2.8455
  120OSM    H2G12681   6.491   3.946   7.050 -0.7195 -0.8691  0.1585
  120OSM    C3F12682   6.581   4.077   6.901 -0.7993 -0.0506  0.1456
  120OSM    H3F12683   6.485   4.093   6.847 -1.5509 -0.7571  1.2031
  120OSM    H3G12684   6.654   4.070   6.818 -0.6579 -1.4708  0.3544
  120OSM    C4F12685   6.616   4.194   6.991 -0.6229  0.0790  0.3733
  120OSM    H4F12686   6.637   4.286   6.933 -3.0379  0.2358 -0.3634
  120OSM    H4G12687   6.700   4.154   7.051  0.2265 -0.8205 -1.3318
  120OSM    C5F12688   6.500   4.218   7.092  0.6838  0.5480 -0.8192
  120OSM    H5F12689   6.471   4.127   7.148 -0.5519  0.0214 -2.2701
  120OSM    H5G12690   6.410   4.260   7.043 -0.6625  0.0617  1.1412
  120OSM    C6F12691   6.542   4.313   7.207 -0.0813  0.1107  0.3110
  120OSM    H6F12692   6.627   4.261   7.257 -0.7993 -3.3450 -1.7642
  120OSM    H6G12693   6.462   4.306   7.283  0.6654 -1.0994  1.0262
  120OSM    C7F12694   6.587   4.460   7.180 -0.2738 -0.4010  0.0383
  120OSM    H7F12695   6.505   4.520   7.135 -0.6364 -0.0122  1.1803
  120OSM    H7G12696   6.674   4.446   7.112 -0.7959 -0.1473 -0.6941
  120OSM    C8F12697   6.640   4.537   7.303  0.5192  0.5840 -1.1566
  120OSM    H8F12698   6.702   4.465   7.360  0.0967 -0.1733 -1.6253
  120OSM    H8G12699   6.543   4.537   7.358  0.2777 -2.4555 -1.3952
  120OSM    C9F12700   6.712   4.663   7.266  1.2667  0.0484 -0.4579
  120OSM    H9F12701   6.665   4.739   7.203  1.1265 -0.4708 -0.9936
  120OSM   C10F12702   6.835   4.696   7.308 -0.0273 -0.5304  0.2286
  120OSM   H10F12703   6.881   4.791   7.276 -2.3571  0.3404 -0.7393
  120OSM   C11F12704   6.919   4.609   7.400 -0.5418  0.0129 -1.0024
  120OSM   H11F12705   6.951   4.518   7.344 -1.7882 -0.1624 -1.4705
  120OSM   H11G12706   6.853   4.564   7.477 -0.3489  1.0245 -0.2315
  120OSM   C12F12707   7.042   4.680   7.465  0.1056  0.2126  0.3044
  120OSM   H12F12708   7.013   4.781   7.501  0.1932  0.5780 -0.6058
  120OSM   H12G12709   7.114   4.677   7.381 -0.5429  0.1702 -0.2574
  120OSM   C13F12710   7.120   4.608   7.576 -0.3850 -0.7274 -0.8543
  120OSM   H13F12711   7.183   4.693   7.609 -0.7853  0.4490 -2.8964
  120OSM   H13G12712   7.187   4.532   7.530 -0.8378 -2.4428  1.1644
  120OSM   C14F12713   7.039   4.544   7.692 -0.4308  0.7449  0.5566
  120OSM   H14F12714   7.010   4.444   7.651  0.7846  1.1054 -1.3134
  120OSM   H14G12715   6.957   4.618   7.703 -0.2115  0.8466  1.5476
  120OSM   C15F12716   7.115   4.518   7.823 -0.5475 -0.1767  0.7920
  120OSM   H15F12717   7.123   4.620   7.865 -0.9602 -0.0435  0.5512
  120OSM   H15G12718   7.217   4.478   7.805 -0.0378  1.6081 -0.5751
  120OSM   C16F12719   7.034   4.432   7.916 -0.3501  0.9380  0.3174
  120OSM   H16F12720   7.104   4.351   7.948 -1.5527 -1.0741 -1.8340
  120OSM   H16G12721   6.942   4.389   7.871 -1.0574  2.3038  0.4066
  120OSM   C17F12722   7.000   4.504   8.049 -0.5377 -0.0359 -0.0713
  120OSM   H17F12723   6.919   4.443   8.094 -0.9271 -1.3608 -2.4190
  120OSM   H17G12724   6.953   4.603   8.036 -0.4357 -0.0283 -0.3792
  120OSM   C18F12725   7.122   4.522   8.136  0.1919 -0.1279  0.4969
  120OSM   H18F12726   7.088   4.546   8.239 -0.6451 -1.5895  0.5847
  120OSM   H18G12727   7.184   4.602   8.091  1.4039 -1.8118 -0.9997
  120OSM   H18H12728   7.191   4.435   8.144  2.6205  1.7313  0.9747
  121OSM      N12729   0.825   6.579   6.126 -0.2308 -0.1024  0.3257
  121OSM    C1512730   0.734   6.653   6.032 -0.5179  0.7029 -0.4715
  121OSM   H15A12731   0.785   6.739   5.992 -1.2829  0.9569 -0.9390
  121OSM   H15B12732   0.645   6.688   6.083  0.1833 -1.9480  2.9693
  121OSM   H15C12733   0.698   6.602   5.944 -0.4845 -0.3389  0.1020
  121OSM    C1412734   0.956   6.561   6.051  0.4240  0.1439 -0.3387
  121OSM   H14A12735   1.018   6.493   6.108 -0.0624 -0.9633 -1.0828
  121OSM   H14B12736   1.006   6.656   6.044  2.0559 -0.6753 -0.1939
  121OSM   H14C12737   0.940   6.532   5.948  0.1843  0.6115 -0.4333
  121OSM    C1312738   0.851   6.661   6.247  0.9237  0.4712 -0.2597
  121OSM   H13A12739   0.769   6.660   6.318  1.0994 -2.7667  0.0494
  121OSM   H13B12740   0.863   6.760   6.207  1.3094  0.5740  0.0997
  121OSM   H13C12741   0.943   6.637   6.298  0.8774 -1.3725 -0.9893
  121OSM    C1212742   0.760   6.453   6.164  0.0681  0.0759  0.3784
  121OSM   H12A12743   0.739   6.397   6.074  1.9856 -0.8724  0.4824
  121OSM   H12B12744   0.665   6.482   6.208 -0.8273 -0.3347 -1.1833
  121OSM    C1112745   0.843   6.356   6.249 -0.1638 -0.3378 -0.7022
  121OSM   H11A12746   0.774   6.292   6.307 -0.1491  1.2264  1.1160
  121OSM   H11B12747   0.891   6.410   6.333 -1.4831  0.0456 -0.1783
  121OSM      P12748   0.888   6.170   6.068  0.1957 -0.2225  0.0131
  121OSM    O1312749   0.782   6.234   5.988 -0.0813  0.0598 -0.0080
  121OSM    O1412750   1.002   6.122   5.992  0.8658 -0.4066  0.3452
  121OSM    O1112751   0.825   6.055   6.157 -0.1749 -0.4235 -0.5611
  121OSM    O1212752   0.943   6.279   6.173 -0.2308 -0.2517 -0.1925
  121OSM    C1S12753   0.896   5.988   6.264  0.4142  0.3462 -0.0498
  121OSM    H1S12754   1.004   6.014   6.270  1.3646 -2.9894 -0.6930
  121OSM    H1T12755   0.905   5.881   6.236  1.8854  0.9168 -1.9851
  121OSM     NF12756   0.891   5.965   6.505  0.0545  0.4409  0.2400
  121OSM    HNF12757   0.885   5.867   6.517 -1.3565  0.6660  1.7326
  121OSM    C2S12758   0.815   6.014   6.393  0.1890 -0.1412 -0.4490
  121OSM    H2S12759   0.802   6.124   6.406  0.0479  0.0946 -2.2886
  121OSM    C3S12760   0.671   5.967   6.381  0.5125  0.1865 -0.6565
  121OSM    H3S12761   0.655   5.865   6.340 -0.8672 -0.0107  0.2996
  121OSM     O312762   0.600   6.047   6.290 -0.0457  0.0109  0.0513
  121OSM    HO312763   0.661   6.093   6.231  0.4916 -1.5257 -0.6433
  121OSM    C4S12764   0.598   5.976   6.516 -0.2520 -0.0783 -0.4987
  121OSM    H4S12765   0.611   5.885   6.577  0.1237 -0.7477 -1.5421
  121OSM    C5S12766   0.544   6.073   6.583  0.6206  0.2301  1.3117
  121OSM    H5S12767   0.556   6.176   6.547 -0.8488 -0.7104 -2.2458
  121OSM    C6S12768   0.481   6.079   6.717  0.2923 -0.7790 -0.1817
  121OSM    H6S12769   0.374   6.101   6.695  0.4781  0.2315 -0.1163
  121OSM    H6T12770   0.525   6.160   6.779  1.4560 -1.4710 -0.0695
  121OSM    C7S12771   0.496   5.951   6.796  0.0554  0.0283  0.3447
  121OSM    H7S12772   0.603   5.921   6.800  0.0773 -0.3062 -1.6548
  121OSM    H7T12773   0.460   5.861   6.742  1.0559 -0.4686  0.4791
  121OSM    C8S12774   0.440   5.948   6.944  0.2133  0.1573  0.8367
  121OSM    H8S12775   0.458   5.850   6.992  2.2440 -0.0304 -0.1723
  121OSM    H8T12776   0.330   5.956   6.930  0.3883 -0.8687 -1.5952
  121OSM    C9S12777   0.495   6.061   7.040 -1.1675 -0.4481  0.1104
  121OSM    H9S12778   0.455   6.155   6.997  0.5357 -0.6618 -2.0839
  121OSM    H9T12779   0.605   6.056   7.036 -1.1323 -1.7441  1.6684
  121OSM   C10S12780   0.432   6.059   7.181 -0.0230 -0.3203  0.2006
  121OSM   H10S12781   0.323   6.051   7.162 -0.0104  1.7751 -1.0159
  121OSM   H10T12782   0.442   6.156   7.234 -1.7067 -0.1291  0.2163
  121OSM   C11S12783   0.489   5.950   7.273 -0.4279  0.4791 -0.3575
  121OSM   H11S12784   0.597   5.953   7.250 -0.6444  0.5970 -1.4522
  121OSM   H11T12785   0.444   5.855   7.237  2.1232 -0.2508 -1.9097
  121OSM   C12S12786   0.450   5.978   7.414  0.0915  0.7716  0.3047
  121OSM   H12S12787   0.340   5.965   7.415  0.3684 -2.4508  0.8783
  121OSM   H12T12788   0.479   6.083   7.435 -0.8627  0.9597  0.7342
  121OSM   C13S12789   0.503   5.879   7.517 -0.3979  0.2274  0.6959
  121OSM   H13S12790   0.613   5.889   7.528 -0.1976 -1.7096  0.7921
  121OSM   H13T12791   0.482   5.781   7.470 -0.4460  0.0040  1.1769
  121OSM   C14S12792   0.437   5.898   7.651 -0.3392 -0.2630  0.3742
  121OSM   H14S12793   0.474   5.836   7.736 -1.7745 -1.1145  0.4187
  121OSM   H14T12794   0.327   5.884   7.640 -0.8333  3.5221 -1.0951
  121OSM   C15S12795   0.438   6.048   7.699  0.5319  0.3580 -0.0875
  121OSM   H15S12796   0.373   6.068   7.787  0.0922 -0.6306 -0.1698
  121OSM   H15T12797   0.390   6.110   7.620 -0.6800 -0.3880  0.0265
  121OSM   C16S12798   0.581   6.106   7.717  0.0740  0.4776  0.0325
  121OSM   H16S12799   0.572   6.212   7.748 -2.6160  0.6500 -1.0210
  121OSM   H16T12800   0.643   6.100   7.625 -1.9971 -1.6700 -1.3204
  121OSM   C17S12801   0.659   6.029   7.823  0.1900 -0.5759  0.1718
  121OSM   H17S12802   0.758   6.075   7.847  1.0128 -1.1723 -1.8023
  121OSM   H17T12803   0.687   5.931   7.779  1.6039 -0.4203  0.6594
  121OSM   C18S12804   0.590   6.007   7.951  0.0201  0.6104 -0.5027
  121OSM   H18S12805   0.553   6.104   7.990  1.8001  0.5060  1.6445
  121OSM   H18T12806   0.657   5.960   8.027 -2.8153  1.8433  3.0642
  121OSM   H18U12807   0.506   5.935   7.945 -0.7163  1.1947  1.6806
  121OSM    C1F12808   1.013   6.011   6.534 -1.0054  0.2185  0.3631
  121OSM     OF12809   1.053   6.121   6.488  0.0763  0.2538  0.3163
  121OSM    C2F12810   1.096   5.909   6.610  0.7215  0.1094 -0.0278
  121OSM    H2F12811   1.174   5.866   6.543  1.3468  1.0835  0.0640
  121OSM    H2G12812   1.032   5.822   6.635  1.8794 -0.3222  1.5768
  121OSM    C3F12813   1.150   5.947   6.752 -0.1944 -0.7875 -0.1379
  121OSM    H3F12814   1.061   5.967   6.816  0.1531 -0.5552  0.2863
  121OSM    H3G12815   1.214   6.038   6.745  0.0048 -0.8928  0.2413
  121OSM    C4F12816   1.234   5.836   6.813 -0.4116 -0.3741  0.7602
  121OSM    H4F12817   1.321   5.814   6.748 -1.1164 -0.4515 -0.1791
  121OSM    H4G12818   1.179   5.739   6.810  0.9414 -1.2149  1.7491
  121OSM    C5F12819   1.276   5.858   6.959  0.2687 -0.0546 -1.1191
  121OSM    H5F12820   1.189   5.852   7.026  0.9751 -3.2285 -0.3324
  121OSM    H5G12821   1.326   5.956   6.975  1.5267 -0.6972 -0.9776
  121OSM    C6F12822   1.378   5.747   7.015  0.5289  0.0707  0.1188
  121OSM    H6F12823   1.463   5.745   6.943 -0.0626 -1.9884 -0.6203
  121OSM    H6G12824   1.336   5.644   7.012 -2.4490  1.1675 -2.4162
  121OSM    C7F12825   1.441   5.787   7.147 -0.0956  0.8031  0.1734
  121OSM    H7F12826   1.377   5.748   7.229  0.4982 -2.0994 -0.6304
  121OSM    H7G12827   1.452   5.898   7.146 -0.1878  0.8192 -1.6551
  121OSM    C8F12828   1.585   5.744   7.164 -0.3209  0.5085  0.0119
  121OSM    H8F12829   1.621   5.794   7.256  0.4120  1.1357 -0.6055
  121OSM    H8G12830   1.648   5.766   7.075 -1.1538  1.3745 -0.3823
  121OSM    C9F12831   1.578   5.591   7.167  0.8815 -0.5604 -0.6544
  121OSM    H9F12832   1.543   5.543   7.074  2.4214  0.9088 -2.0817
  121OSM   C10F12833   1.626   5.512   7.265  0.2562  0.7255 -0.3081
  121OSM   H10F12834   1.601   5.405   7.265  0.4582  0.6614  0.7803
  121OSM   C11F12835   1.703   5.557   7.382  0.2361  0.3666 -0.5256
  121OSM   H11F12836   1.722   5.666   7.366 -1.8926  0.6541 -1.4127
  121OSM   H11G12837   1.803   5.510   7.384 -0.0392 -0.2179 -0.2360
  121OSM   C12F12838   1.618   5.535   7.515 -0.1161  0.1419  0.3936
  121OSM   H12F12839   1.688   5.561   7.598 -0.4896 -1.4771  1.2487
  121OSM   H12G12840   1.578   5.433   7.533 -1.9874  1.1515  2.3399
  121OSM   C13F12841   1.488   5.620   7.515  0.6183  0.9104 -0.6951
  121OSM   H13F12842   1.414   5.571   7.582 -0.8884  1.2954 -2.0106
  121OSM   H13G12843   1.421   5.616   7.427  0.2460 -1.1146 -0.3607
  121OSM   C14F12844   1.507   5.774   7.545 -0.6109  0.3834  0.0822
  121OSM   H14F12845   1.406   5.818   7.535  0.6255  3.1998 -1.2216
  121OSM   H14G12846   1.559   5.811   7.453 -0.4641 -2.7678 -1.2089
  121OSM   C15F12847   1.586   5.816   7.668  0.3222  0.0493 -0.3336
  121OSM   H15F12848   1.603   5.926   7.674 -1.9541  0.3633  1.5770
  121OSM   H15G12849   1.677   5.752   7.671 -0.3049 -0.9308 -1.3990
  121OSM   C16F12850   1.509   5.788   7.801 -0.0449 -0.6072  0.6280
  121OSM   H16F12851   1.499   5.678   7.803  1.1272 -0.7164  1.6431
  121OSM   H16G12852   1.407   5.831   7.793  0.4533  0.7754  1.3506
  121OSM   C17F12853   1.588   5.829   7.922 -0.0587 -0.0302 -0.0077
  121OSM   H17F12854   1.601   5.938   7.905 -1.8503  0.0936 -0.8508
  121OSM   H17G12855   1.691   5.791   7.910  0.1358 -0.0446  1.5028
  121OSM   C18F12856   1.523   5.790   8.056 -0.2445 -0.2077 -0.1983
  121OSM   H18F12857   1.443   5.865   8.072 -0.0562 -0.0961  0.2461
  121OSM   H18G12858   1.591   5.807   8.142 -1.4248 -0.7340  0.8852
  121OSM   H18H12859   1.467   5.694   8.054  1.0071 -0.9410 -1.0270
  122OSM      N12860   6.445   0.048   5.891 -0.1309 -0.1828  0.6219
  122OSM    C1512861   6.584   0.004   5.848 -0.6437  0.6432  0.0319
  122OSM   H15A12862   6.589  -0.088   5.790 -0.2798 -1.4742  3.1952
  122OSM   H15B12863   6.631  -0.024   5.941 -0.9519  1.2755  0.3792
  122OSM   H15C12864   6.636   0.083   5.796 -1.2854  0.6878 -0.5660
  122OSM    C1412865   6.395   0.146   5.783 -0.0693  0.1205  0.0937
  122OSM   H14A12866   6.459   0.233   5.774 -1.4331  1.6436  3.3762
  122OSM   H14B12867   6.292   0.177   5.796 -0.1759 -0.8245  1.7340
  122OSM   H14C12868   6.403   0.083   5.696 -0.1086 -1.3700  1.1352
  122OSM    C1312869   6.349  -0.074   5.898  0.5961 -0.1969  0.8188
  122OSM   H13A12870   6.385  -0.148   5.968  3.8039  0.5820  0.1512
  122OSM   H13B12871   6.327  -0.121   5.803  0.8151 -0.1368  0.7397
  122OSM   H13C12872   6.249  -0.040   5.921  1.5338  1.7091  2.3373
  122OSM    C1212873   6.448   0.114   6.026  0.1491  0.5078 -1.0287
  122OSM   H12A12874   6.494   0.050   6.101 -2.8018 -0.4175  0.1389
  122OSM   H12B12875   6.347   0.131   6.061 -0.0524 -0.2384 -1.2204
  122OSM    C1112876   6.525   0.245   6.042  0.5125 -1.1084  1.1808
  122OSM   H11A12877   6.628   0.233   6.002  0.5981 -0.5203  1.2238
  122OSM   H11B12878   6.529   0.264   6.151 -0.2756  1.7335  0.7888
  122OSM      P12879   6.327   0.425   6.003  0.1519  0.8291  0.2884
  122OSM    O1312880   6.269   0.480   5.886  0.0079 -0.3856  0.4034
  122OSM    O1412881   6.246   0.329   6.083  0.0505  0.3958 -0.8557
  122OSM    O1112882   6.374   0.546   6.087 -0.4483  0.6305  0.4488
  122OSM    O1212883   6.460   0.350   5.963 -0.8802  0.2012 -0.0315
  122OSM    C1S12884   6.414   0.534   6.221  0.7732 -0.1246  0.4009
  122OSM    H1S12885   6.525   0.529   6.221  0.8581 -0.8691 -3.3708
  122OSM    H1T12886   6.376   0.437   6.260 -0.9126 -0.1056 -1.0915
  122OSM     NF12887   6.426   0.626   6.446  0.6083 -0.6779  0.0306
  122OSM    HNF12888   6.361   0.581   6.507 -2.5932  0.4478 -2.2588
  122OSM    C2S12889   6.367   0.652   6.315 -0.3963 -0.3481 -0.5838
  122OSM    H2S12890   6.412   0.736   6.258 -0.4066 -0.0938 -0.2247
  122OSM    C3S12891   6.218   0.667   6.316  0.5198 -0.1083  0.3737
  122OSM    H3S12892   6.176   0.565   6.329 -2.9315  0.6820 -2.6999
  122OSM     O312893   6.160   0.703   6.190  0.2312 -0.3737 -0.0403
  122OSM    HO312894   6.228   0.685   6.125  0.7488  1.9813 -0.2620
  122OSM    C4S12895   6.173   0.762   6.422 -0.2057 -0.0510 -0.9557
  122OSM    H4S12896   6.224   0.859   6.425  0.0331 -0.1713  2.0652
  122OSM    C5S12897   6.085   0.734   6.523  0.1494 -0.0130 -0.6402
  122OSM    H5S12898   6.040   0.633   6.526 -0.3308  0.2150  2.7670
  122OSM    C6S12899   6.048   0.831   6.632  0.3531 -0.1854 -0.2542
  122OSM    H6S12900   5.959   0.782   6.678  1.4146 -2.9704 -0.9470
  122OSM    H6T12901   6.009   0.926   6.590  0.1936 -0.2327 -0.2155
  122OSM    C7S12902   6.146   0.862   6.744  0.1367 -1.1244 -0.0294
  122OSM    H7S12903   6.078   0.898   6.824  0.2524  0.9466 -0.8079
  122OSM    H7T12904   6.216   0.944   6.718 -1.0867  1.1774  3.2814
  122OSM    C8S12905   6.228   0.750   6.801  0.4398 -0.2801  0.5632
  122OSM    H8S12906   6.289   0.706   6.718  1.3999 -1.6886  1.9601
  122OSM    H8T12907   6.167   0.676   6.856 -2.4692  1.2335 -0.4147
  122OSM    C9S12908   6.327   0.808   6.905  0.4809 -0.9495 -0.4266
  122OSM    H9S12909   6.389   0.885   6.854 -1.6112  0.7577 -0.5445
  122OSM    H9T12910   6.389   0.718   6.924  0.6570 -0.9670 -1.0613
  122OSM   C10S12911   6.264   0.850   7.040  0.5955  0.1960  0.3794
  122OSM   H10S12912   6.225   0.751   7.074  4.2811 -1.0487  1.5108
  122OSM   H10T12913   6.177   0.918   7.029  0.0421 -0.5374  0.1577
  122OSM   C11S12914   6.361   0.890   7.150 -0.5891 -0.6824  0.2313
  122OSM   H11S12915   6.389   0.997   7.154 -0.6251 -0.6732  0.2371
  122OSM   H11T12916   6.447   0.820   7.143  1.0762  1.3983 -2.2003
  122OSM   C12S12917   6.294   0.865   7.285 -0.4294 -0.3545  0.3578
  122OSM   H12S12918   6.279   0.756   7.297  2.0058 -0.7798  0.0970
  122OSM   H12T12919   6.198   0.919   7.299 -0.0341  0.6023 -0.4339
  122OSM   C13S12920   6.381   0.909   7.402 -0.6257  0.0402  0.3401
  122OSM   H13S12921   6.429   1.004   7.371  0.9097 -0.5895  0.7133
  122OSM   H13T12922   6.470   0.844   7.416 -0.0324  1.3362  3.7077
  122OSM   C14S12923   6.307   0.924   7.536  0.1616 -0.0228 -1.3437
  122OSM   H14S12924   6.275   0.828   7.581 -0.1788  1.0633  0.8962
  122OSM   H14T12925   6.209   0.973   7.521  0.8266  1.9295  0.1986
  122OSM   C15S12926   6.384   1.005   7.641  0.2013 -0.7824 -0.2787
  122OSM   H15S12927   6.406   1.107   7.604 -1.2789 -0.4302 -0.2276
  122OSM   H15T12928   6.481   0.952   7.658  1.1536  0.6474 -1.0614
  122OSM   C16S12929   6.311   1.016   7.772  0.2636  0.1331  0.1623
  122OSM   H16S12930   6.315   0.916   7.819  0.6778 -0.1356 -0.4377
  122OSM   H16T12931   6.205   1.043   7.752  0.2345  1.2095  1.5927
  122OSM   C17S12932   6.367   1.108   7.879 -0.0278  1.0296  0.7350
  122OSM   H17S12933   6.359   1.210   7.836 -1.0273  1.2072  1.2984
  122OSM   H17T12934   6.471   1.085   7.910  0.1964  1.6109  0.4261
  122OSM   C18S12935   6.286   1.115   8.007  0.6397 -0.2970  0.3935
  122OSM   H18S12936   6.333   1.178   8.085  0.4355  0.0349  0.2520
  122OSM   H18T12937   6.258   1.018   8.053 -2.4044  0.2857 -0.0391
  122OSM   H18U12938   6.189   1.157   7.971  0.8317  0.6150  0.9083
  122OSM    C1F12939   6.549   0.641   6.468  0.4282  0.2316  0.5398
  122OSM     OF12940   6.623   0.691   6.384  0.1048  0.0262 -0.4969
  122OSM    C2F12941   6.592   0.572   6.596  0.0778  0.3720  0.0982
  122OSM    H2F12942   6.670   0.497   6.573  0.1350  0.0816  1.2154
  122OSM    H2G12943   6.499   0.531   6.640 -1.3557  2.1911 -1.0512
  122OSM    C3F12944   6.660   0.680   6.695  1.1592  0.2325  0.6576
  122OSM    H3F12945   6.596   0.771   6.695 -0.0749 -0.5995 -0.3149
  122OSM    H3G12946   6.762   0.714   6.670  1.0328  0.8466  0.9600
  122OSM    C4F12947   6.676   0.611   6.840  0.2367 -0.1637  0.0003
  122OSM    H4F12948   6.728   0.513   6.827  1.3770  0.2660  1.0482
  122OSM    H4G12949   6.578   0.588   6.885 -0.9813 -2.3450 -3.3617
  122OSM    C5F12950   6.743   0.705   6.942 -0.5454  0.5520 -0.0754
  122OSM    H5F12951   6.692   0.798   6.973 -2.8455 -0.3901 -0.8141
  122OSM    H5G12952   6.843   0.731   6.900  0.5023 -0.5499  1.6164
  122OSM    C6F12953   6.774   0.636   7.072  0.0341 -0.2455 -0.3984
  122OSM    H6F12954   6.865   0.574   7.065 -0.3833 -0.8670 -0.4459
  122OSM    H6G12955   6.688   0.572   7.103 -0.0133  0.8578  1.9879
  122OSM    C7F12956   6.802   0.728   7.191  0.0052 -0.5914  0.0407
  122OSM    H7F12957   6.719   0.796   7.219  0.9133  0.3905  0.4517
  122OSM    H7G12958   6.892   0.785   7.157 -0.0146 -1.8443 -2.3205
  122OSM    C8F12959   6.838   0.658   7.322  0.5761  0.4257 -0.2875
  122OSM    H8F12960   6.871   0.730   7.400  1.0390  0.8003 -0.8159
  122OSM    H8G12961   6.929   0.599   7.302  1.2777  1.4567 -0.2147
  122OSM    C9F12962   6.732   0.570   7.374  0.4722 -0.5973  0.1844
  122OSM    H9F12963   6.675   0.509   7.303  2.0264 -1.5590 -0.2818
  122OSM   C10F12964   6.688   0.569   7.499  0.5543 -0.0410 -0.8409
  122OSM   H10F12965   6.597   0.511   7.520  1.0226 -0.2272  0.7971
  122OSM   C11F12966   6.725   0.643   7.618  0.0412  0.5058 -0.0023
  122OSM   H11F12967   6.648   0.716   7.650 -0.4229 -0.4873  1.2089
  122OSM   H11G12968   6.822   0.696   7.609 -0.9726  2.3839 -0.3650
  122OSM   C12F12969   6.748   0.547   7.742  0.0754  0.1100  0.2091
  122OSM   H12F12970   6.835   0.480   7.730 -0.1127 -0.0422 -0.3459
  122OSM   H12G12971   6.663   0.476   7.751  0.7977 -0.5992  1.6313
  122OSM   C13F12972   6.752   0.625   7.873 -0.6837 -0.3837  0.4149
  122OSM   H13F12973   6.653   0.676   7.871  0.0385  1.1038 -1.9808
  122OSM   H13G12974   6.828   0.705   7.866  1.6578 -2.5811 -0.8605
  122OSM   C14F12975   6.787   0.534   7.993  0.2663 -0.3341  0.7133
  122OSM   H14F12976   6.891   0.497   7.984  1.7151  2.7184  2.8536
  122OSM   H14G12977   6.706   0.458   7.993 -0.2541  0.2084 -0.2481
  122OSM   C15F12978   6.787   0.609   8.124  0.2373 -0.5270 -0.3873
  122OSM   H15F12979   6.683   0.648   8.134  0.2147 -0.3877 -1.1182
  122OSM   H15G12980   6.835   0.709   8.118 -1.1726  0.1203 -1.5053
  122OSM   C16F12981   6.838   0.524   8.239 -0.7256 -0.1174  0.5126
  122OSM   H16F12982   6.948   0.518   8.228 -0.7473  2.1123 -1.8097
  122OSM   H16G12983   6.787   0.425   8.233  0.1824 -0.5457 -0.2821
  122OSM   C17F12984   6.807   0.590   8.374 -0.5555 -0.0413  0.3471
  122OSM   H17F12985   6.841   0.524   8.456  2.8222  1.2991  0.1981
  122OSM   H17G12986   6.700   0.611   8.395 -0.7372  0.8544 -1.2845
  122OSM   C18F12987   6.882   0.724   8.397 -0.1277 -0.0860  0.1351
  122OSM   H18F12988   6.986   0.736   8.361  1.1583  3.4506  4.2146
  122OSM   H18G12989   6.873   0.749   8.504 -3.2866  1.1873 -0.3333
  122OSM   H18H12990   6.828   0.806   8.345  0.4925 -0.1710 -0.6731
  123OSM      N12991   5.282   3.502   6.534 -0.5080  0.6652 -0.4651
  123OSM    C1512992   5.355   3.565   6.417  0.8938  0.1608  0.4275
  123OSM   H15A12993   5.309   3.529   6.327 -1.7285  1.9714  0.9229
  123OSM   H15B12994   5.458   3.533   6.420  1.1902  0.6828 -2.2900
  123OSM   H15C12995   5.342   3.672   6.419 -3.7934 -0.2105 -0.4739
  123OSM    C1412996   5.289   3.348   6.508 -0.1613  0.1398  0.0022
  123OSM   H14A12997   5.389   3.309   6.516  0.1709  1.3597  2.8575
  123OSM   H14B12998   5.242   3.319   6.415  1.5412  0.2383 -0.9403
  123OSM   H14C12999   5.229   3.305   6.587  1.1536 -1.3598  0.2204
  123OSM    C1313000   5.366   3.536   6.652 -0.0636  0.7046  0.3184
  123OSM   H13A13001   5.332   3.477   6.735  0.3391  2.7417  2.0165
  123OSM   H13B13002   5.344   3.638   6.679 -1.6203  0.3038  0.6318
  123OSM   H13C13003   5.470   3.514   6.634  0.1847  2.1096 -0.0860
  123OSM    C1213004   5.137   3.551   6.552 -0.4835  0.5597  0.2139
  123OSM   H12A13005   5.141   3.659   6.546 -3.2168  0.6594 -2.8382
  123OSM   H12B13006   5.101   3.530   6.651 -0.4355 -1.8731 -0.2278
  123OSM    C1113007   5.029   3.507   6.449 -0.1164 -0.4206  0.0878
  123OSM   H11A13008   5.048   3.552   6.349  1.6494 -0.0329  0.5613
  123OSM   H11B13009   4.933   3.549   6.486 -0.0553  0.2353 -0.4834
  123OSM      P13010   4.893   3.277   6.476 -0.2504  0.3868  0.1110
  123OSM    O1313011   4.787   3.301   6.371  0.1180  0.2724  0.0747
  123OSM    O1413012   4.933   3.137   6.498 -0.1351 -0.2370 -0.4692
  123OSM    O1113013   4.848   3.340   6.615 -0.4809  0.5161  0.2682
  123OSM    O1213014   5.020   3.364   6.447  0.3032 -0.3387  0.4833
  123OSM    C1S13015   4.937   3.309   6.729  0.4152  0.5433  0.3075
  123OSM    H1S13016   5.045   3.322   6.703  0.4137  2.6038  1.1135
  123OSM    H1T13017   4.935   3.203   6.761  1.6026  0.7807  1.2755
  123OSM     NF13018   5.005   3.356   6.957  0.2454 -0.2257  0.5748
  123OSM    HNF13019   4.994   3.285   7.026  2.1545 -0.7963  0.3331
  123OSM    C2S13020   4.901   3.387   6.857 -0.3266  0.4808  0.3204
  123OSM    H2S13021   4.906   3.494   6.829 -0.3687  0.2575 -0.5842
  123OSM    C3S13022   4.752   3.363   6.907 -0.2237 -0.0595 -0.0137
  123OSM    H3S13023   4.748   3.265   6.958 -2.0503  0.4834  0.9635
  123OSM     O313024   4.649   3.364   6.807 -0.6118  1.1207  0.2901
  123OSM    HO313025   4.695   3.402   6.732  0.1384 -1.4141 -0.6543
  123OSM    C4S13026   4.720   3.447   7.025  0.7961 -0.3472 -0.0483
  123OSM    H4S13027   4.738   3.400   7.123 -0.0456  0.1652  0.3630
  123OSM    C5S13028   4.694   3.575   7.031  0.2711  0.0320 -0.0274
  123OSM    H5S13029   4.701   3.633   6.937 -0.7883 -1.0330 -0.7889
  123OSM    C6S13030   4.666   3.663   7.146 -0.1974 -0.6203  0.1733
  123OSM    H6S13031   4.576   3.721   7.117  0.5475  0.3841 -0.1871
  123OSM    H6T13032   4.747   3.737   7.164 -0.9624  0.8181 -1.9699
  123OSM    C7S13033   4.641   3.598   7.287  0.2226 -0.6527  1.2369
  123OSM    H7S13034   4.727   3.532   7.312 -2.1512 -5.3164 -1.3123
  123OSM    H7T13035   4.559   3.522   7.285  1.7624 -2.5108  3.4265
  123OSM    C8S13036   4.590   3.701   7.386  0.9434  1.1918  0.0387
  123OSM    H8S13037   4.491   3.744   7.358 -0.7232 -2.9293 -1.1826
  123OSM    H8T13038   4.661   3.786   7.395  2.6404 -0.1820  0.2491
  123OSM    C9S13039   4.595   3.641   7.526 -0.0230 -0.1273 -0.3102
  123OSM    H9S13040   4.638   3.713   7.599 -0.2514 -0.4243  0.1212
  123OSM    H9T13041   4.669   3.559   7.527 -1.8997 -1.9081 -0.0439
  123OSM   C10S13042   4.465   3.596   7.590 -0.5004  0.3127 -0.5887
  123OSM   H10S13043   4.409   3.531   7.519 -1.3360 -0.1958  0.4990
  123OSM   H10T13044   4.410   3.688   7.620  1.1325  1.3427 -0.6381
  123OSM   C11S13045   4.481   3.518   7.724 -0.2013  0.4230  0.6201
  123OSM   H11S13046   4.587   3.485   7.721 -0.3049 -0.3125  3.1109
  123OSM   H11T13047   4.417   3.428   7.714  1.2261 -0.3886 -2.9617
  123OSM   C12S13048   4.437   3.596   7.851 -1.1551  0.1770  0.5087
  123OSM   H12S13049   4.329   3.619   7.849 -1.5651 -1.3895  2.3310
  123OSM   H12T13050   4.490   3.694   7.844 -0.1654 -0.4357 -2.4165
  123OSM   C13S13051   4.456   3.520   7.980 -0.0124  0.8313 -0.7944
  123OSM   H13S13052   4.563   3.517   8.010 -0.4602  2.6769  1.3116
  123OSM   H13T13053   4.398   3.426   7.974 -0.1468  0.5458  2.8052
  123OSM   C14S13054   4.391   3.595   8.098  0.0706 -0.1497  1.3340
  123OSM   H14S13055   4.292   3.637   8.069  0.9661  1.3645  0.3819
  123OSM   H14T13056   4.443   3.691   8.120 -0.9324  0.9869 -0.9280
  123OSM   C15S13057   4.395   3.528   8.232  0.4290  0.2445 -0.1243
  123OSM   H15S13058   4.349   3.602   8.302 -0.8968  1.1426 -1.8727
  123OSM   H15T13059   4.500   3.506   8.259  0.2513 -1.1800 -0.5251
  123OSM   C16S13060   4.312   3.404   8.254  0.5714  0.2020 -0.5710
  123OSM   H16S13061   4.368   3.309   8.243 -1.2724 -1.2432  1.3799
  123OSM   H16T13062   4.238   3.404   8.171 -0.3773  0.3440  0.2511
  123OSM   C17S13063   4.235   3.398   8.388 -0.0164 -0.0792 -0.1923
  123OSM   H17S13064   4.168   3.310   8.397  0.4862 -0.3110  1.6300
  123OSM   H17T13065   4.174   3.491   8.390  2.2585  1.5322 -0.9595
  123OSM   C18S13066   4.323   3.408   8.518  0.1201  0.2442  0.4596
  123OSM   H18S13067   4.391   3.494   8.499 -1.0056  0.6960 -2.0332
  123OSM   H18T13068   4.374   3.314   8.548  0.4612  0.1161 -0.4882
  123OSM   H18U13069   4.256   3.440   8.600 -0.3225 -0.2100  0.2825
  123OSM    C1F13070   5.125   3.403   6.945 -0.4829  0.2206  0.2198
  123OSM     OF13071   5.160   3.470   6.847  0.3200 -0.1306  0.0670
  123OSM    C2F13072   5.207   3.366   7.072 -0.0023 -0.2968  0.4973
  123OSM    H2F13073   5.212   3.256   7.084 -1.7644 -0.3275  1.2188
  123OSM    H2G13074   5.160   3.417   7.160 -2.0555  0.3326 -0.8978
  123OSM    C3F13075   5.361   3.407   7.055 -0.3047  0.2239  0.1470
  123OSM    H3F13076   5.375   3.517   7.053 -0.0230  0.1994  0.7228
  123OSM    H3G13077   5.387   3.362   6.956 -1.1151 -0.4466  0.2282
  123OSM    C4F13078   5.452   3.343   7.165  0.5289 -0.1222 -0.4670
  123OSM    H4F13079   5.558   3.351   7.131  1.0301 -0.4049  0.9957
  123OSM    H4G13080   5.434   3.240   7.201  0.7455  0.0028 -0.0016
  123OSM    C5F13081   5.440   3.423   7.296  0.5300 -0.1639  0.1963
  123OSM    H5F13082   5.335   3.444   7.323  0.2921  1.1996 -1.6468
  123OSM    H5G13083   5.487   3.522   7.280 -2.4215  1.0811 -1.4063
  123OSM    C6F13084   5.502   3.356   7.417 -0.1469  0.1522  0.0044
  123OSM    H6F13085   5.598   3.315   7.380 -0.1072 -1.2101  1.4797
  123OSM    H6G13086   5.448   3.261   7.437  0.5986 -0.5795 -1.4013
  123OSM    C7F13087   5.529   3.432   7.548  0.5220 -0.1936  0.7854
  123OSM    H7F13088   5.499   3.536   7.524  0.7092 -0.1474  0.7510
  123OSM    H7G13089   5.634   3.425   7.581  0.6936 -1.3659  0.0721
  123OSM    C8F13090   5.462   3.370   7.674  0.2640  0.1822  0.3723
  123OSM    H8F13091   5.509   3.395   7.771  0.6094 -0.4447  0.3703
  123OSM    H8G13092   5.472   3.261   7.653 -2.9121 -0.4631  1.6382
  123OSM    C9F13093   5.316   3.404   7.672  0.2097 -0.2971  0.6004
  123OSM    H9F13094   5.280   3.415   7.568  1.9933 -0.5307 -0.0722
  123OSM   C10F13095   5.233   3.437   7.774 -0.0418 -0.0324  0.3106
  123OSM   H10F13096   5.126   3.460   7.757 -0.3675 -1.4726  0.3214
  123OSM   C11F13097   5.266   3.433   7.921  0.0138 -0.5135 -0.6125
  123OSM   H11F13098   5.236   3.525   7.976 -3.1204 -1.6026 -0.3278
  123OSM   H11G13099   5.376   3.423   7.937 -0.2959  0.0366  2.4437
  123OSM   C12F13100   5.187   3.326   7.995  1.1116 -0.2585 -0.0380
  123OSM   H12F13101   5.205   3.227   7.948  2.3341  0.9070 -2.1572
  123OSM   H12G13102   5.077   3.331   7.988  1.1667 -0.7055 -1.6641
  123OSM   C13F13103   5.233   3.312   8.140 -0.4068 -0.4016  0.0363
  123OSM   H13F13104   5.207   3.410   8.186  2.3101  0.2556  0.3077
  123OSM   H13G13105   5.342   3.294   8.138 -0.2318  0.6569 -1.2439
  123OSM   C14F13106   5.160   3.194   8.208  0.3026 -0.2162  0.2762
  123OSM   H14F13107   5.168   3.098   8.153 -0.2855  0.2371 -0.6315
  123OSM   H14G13108   5.051   3.217   8.207  0.9831  3.8981 -1.2624
  123OSM   C15F13109   5.210   3.163   8.346  0.0388 -0.7941 -0.1572
  123OSM   H15F13110   5.321   3.165   8.356  0.0134  0.8968  0.1567
  123OSM   H15G13111   5.159   3.068   8.374  1.5838 -1.3932  0.7626
  123OSM   C16F13112   5.162   3.257   8.457  0.0542 -0.4698  0.0263
  123OSM   H16F13113   5.062   3.292   8.423  0.0913 -0.7438 -0.3750
  123OSM   H16G13114   5.224   3.348   8.458 -1.2896  0.5131 -1.6327
  123OSM   C17F13115   5.142   3.186   8.596  0.4752 -0.8837  0.0988
  123OSM   H17F13116   5.084   3.092   8.590  2.6950 -2.3006 -0.2266
  123OSM   H17G13117   5.085   3.254   8.664 -1.9338 -2.3143 -0.3769
  123OSM   C18F13118   5.271   3.152   8.671 -0.2716 -0.0385  0.1205
  123OSM   H18F13119   5.323   3.245   8.702 -2.8436  1.2802  0.7474
  123OSM   H18G13120   5.327   3.102   8.589 -1.3683 -0.0390 -0.6366
  123OSM   H18H13121   5.253   3.090   8.762 -2.8047 -0.8602 -0.8741
  124OSM      N13122   5.896   5.660   6.241 -0.0062  1.0606  0.3087
  124OSM    C1513123   5.892   5.514   6.195 -0.7705 -0.6980 -0.1519
  124OSM   H15A13124   5.988   5.483   6.155 -1.0700  0.5311 -1.9501
  124OSM   H15B13125   5.822   5.514   6.113 -0.0846 -1.1293 -0.7503
  124OSM   H15C13126   5.850   5.449   6.270 -2.0594 -0.2331 -0.4569
  124OSM    C1413127   5.892   5.752   6.121 -0.3565  0.9185 -0.1899
  124OSM   H14A13128   5.910   5.858   6.139  1.4365  0.8349 -1.2262
  124OSM   H14B13129   5.795   5.750   6.074 -1.6204  0.6965  2.2777
  124OSM   H14C13130   5.981   5.722   6.067  0.7226  0.3772  1.8135
  124OSM    C1313131   5.766   5.686   6.313 -0.3106  0.6851  0.5496
  124OSM   H13A13132   5.772   5.788   6.347 -0.9321  0.9221 -0.0287
  124OSM   H13B13133   5.745   5.613   6.389  2.0240  0.1155  0.7219
  124OSM   H13C13134   5.687   5.684   6.239  1.8369  0.9813 -1.9289
  124OSM    C1213135   6.017   5.682   6.326  0.0903  0.9283 -0.2228
  124OSM   H12A13136   6.109   5.672   6.271  0.5594 -1.2270  0.8289
  124OSM   H12B13137   6.035   5.604   6.399  2.7056  2.5152  0.9947
  124OSM    C1113138   6.031   5.822   6.396 -0.7794  0.2322  0.5828
  124OSM   H11A13139   6.101   5.808   6.481  1.7460  1.1094 -1.1947
  124OSM   H11B13140   5.944   5.855   6.456 -1.2005  0.4256 -0.1196
  124OSM      P13141   6.219   5.933   6.248 -0.4925 -0.1030  0.3176
  124OSM    O1313142   6.266   5.791   6.227 -0.2794 -0.1752 -0.1806
  124OSM    O1413143   6.225   6.021   6.135 -0.2256 -0.0140  0.1781
  124OSM    O1113144   6.289   6.000   6.375  0.2708  0.6347  1.0813
  124OSM    O1213145   6.072   5.925   6.304  0.3785 -0.3959  0.2716
  124OSM    C1S13146   6.236   6.129   6.408  0.5325  0.2500 -0.6662
  124OSM    H1S13147   6.158   6.169   6.338  0.1307 -3.5560 -2.6407
  124OSM    H1T13148   6.313   6.208   6.390 -1.3094  1.9755 -1.4699
  124OSM     NF13149   6.147   6.262   6.599 -0.1143 -0.2076  0.3148
  124OSM    HNF13150   6.229   6.311   6.626 -0.6993  1.2355 -0.3870
  124OSM    C2S13151   6.188   6.128   6.558  0.0766 -0.2143  1.2760
  124OSM    H2S13152   6.097   6.064   6.559  0.9973 -1.5627  0.6990
  124OSM    C3S13153   6.295   6.060   6.652  0.3875  0.2141 -0.3988
  124OSM    H3S13154   6.393   6.105   6.677  1.6814 -2.8740  0.6124
  124OSM     O313155   6.340   5.931   6.620 -0.0025 -0.1149  0.0792
  124OSM    HO313156   6.320   5.920   6.527  0.4145 -1.4172  0.1259
  124OSM    C4S13157   6.231   6.032   6.786  0.4095 -0.8472 -0.1333
  124OSM    H4S13158   6.139   5.971   6.780 -0.3485  0.3481 -1.2485
  124OSM    C5S13159   6.266   6.093   6.902  0.2921 -0.5183  0.2445
  124OSM    H5S13160   6.350   6.163   6.903  0.6399 -0.9214 -0.3012
  124OSM    C6S13161   6.184   6.065   7.028 -0.4774  0.0479  0.1736
  124OSM    H6S13162   6.255   6.020   7.101 -2.2956  0.7343  2.4687
  124OSM    H6T13163   6.110   5.984   7.009  0.4390 -0.2120 -2.8329
  124OSM    C7S13164   6.119   6.193   7.092 -0.1126 -0.7007  0.6426
  124OSM    H7S13165   6.046   6.244   7.026  0.8133  0.9086  0.8284
  124OSM    H7T13166   6.200   6.264   7.117 -0.1634 -0.3085 -0.2676
  124OSM    C8S13167   6.076   6.164   7.238  0.4693 -0.4081 -0.3089
  124OSM    H8S13168   6.004   6.080   7.235  1.0998 -0.9726 -0.0061
  124OSM    H8T13169   6.023   6.256   7.271  0.5152  0.8679 -3.4009
  124OSM    C9S13170   6.187   6.118   7.331 -0.1129 -0.1207 -0.2709
  124OSM    H9S13171   6.278   6.176   7.307 -1.2135  0.8510 -2.3103
  124OSM    H9T13172   6.202   6.008   7.325 -0.1562 -0.1479  0.0567
  124OSM   C10S13173   6.149   6.154   7.475 -0.1346  0.5003  0.6526
  124OSM   H10S13174   6.041   6.136   7.498  0.1523 -0.0946  1.5718
  124OSM   H10T13175   6.152   6.264   7.491  0.2056  0.9079 -1.8333
  124OSM   C11S13176   6.243   6.089   7.573 -0.5158 -0.3062  0.3542
  124OSM   H11S13177   6.340   6.143   7.571 -1.1299  0.8917  1.2412
  124OSM   H11T13178   6.252   5.980   7.558 -1.3429 -0.0621 -2.5124
  124OSM   C12S13179   6.201   6.115   7.719  0.7219 -0.1322 -0.5336
  124OSM   H12S13180   6.094   6.084   7.721  0.4613  0.7309  1.5680
  124OSM   H12T13181   6.201   6.222   7.748  2.8429 -0.4631  0.9608
  124OSM   C13S13182   6.280   6.039   7.829  0.7311 -0.6695  0.2994
  124OSM   H13S13183   6.246   6.073   7.930  1.4113  0.2295  0.2399
  124OSM   H13T13184   6.386   6.072   7.834  0.8071 -1.0810  1.8071
  124OSM   C14S13185   6.266   5.886   7.821  0.3423  0.4105  0.2051
  124OSM   H14S13186   6.332   5.837   7.745  1.0600 -0.2857  1.2387
  124OSM   H14T13187   6.165   5.860   7.783 -0.1572 -0.2856  1.9521
  124OSM   C15S13188   6.296   5.822   7.952 -0.1772 -0.2806 -0.7426
  124OSM   H15S13189   6.207   5.800   8.013  0.9474  0.4262  1.2561
  124OSM   H15T13190   6.347   5.893   8.021  0.3493 -1.2238 -0.1352
  124OSM   C16S13191   6.390   5.702   7.949  0.3609  0.7528  0.7829
  124OSM   H16S13192   6.466   5.726   7.872  0.6026 -0.0170  0.7788
  124OSM   H16T13193   6.331   5.614   7.916  3.5619 -1.9405  1.7092
  124OSM   C17S13194   6.471   5.661   8.078 -0.2261  0.0231  0.9595
  124OSM   H17S13195   6.558   5.729   8.093  0.1841 -0.4612  0.7858
  124OSM   H17T13196   6.526   5.569   8.052  1.2541  1.5905 -1.9511
  124OSM   C18S13197   6.385   5.654   8.207  0.0457 -0.6522  0.1640
  124OSM   H18S13198   6.335   5.752   8.222  2.2771  0.9003 -1.7785
  124OSM   H18T13199   6.443   5.641   8.301 -0.5915  2.4271  1.0983
  124OSM   H18U13200   6.305   5.583   8.178  0.7780 -1.3968 -0.0938
  124OSM    C1F13201   6.046   6.326   6.549 -0.6116 -0.2072  0.2971
  124OSM     OF13202   5.955   6.264   6.499  0.2093 -0.1892 -0.6383
  124OSM    C2F13203   6.057   6.475   6.535 -0.2579 -0.0241  0.0743
  124OSM    H2F13204   5.973   6.519   6.478 -0.5143  2.4758  2.1983
  124OSM    H2G13205   6.150   6.511   6.486 -0.1078 -0.2579  0.1874
  124OSM    C3F13206   6.024   6.539   6.670 -0.3292 -0.1232  0.4059
  124OSM    H3F13207   6.027   6.649   6.656  0.8483 -0.4735 -2.7908
  124OSM    H3G13208   6.099   6.517   6.750  0.3540 -0.9749 -0.4507
  124OSM    C4F13209   5.883   6.503   6.731 -0.4284 -0.1662 -0.3764
  124OSM    H4F13210   5.867   6.395   6.752 -0.8296 -0.3341 -1.4870
  124OSM    H4G13211   5.804   6.521   6.656 -2.6154 -1.1679  1.5704
  124OSM    C5F13212   5.850   6.598   6.852 -0.2996  0.1102  0.4213
  124OSM    H5F13213   5.739   6.593   6.860 -0.1640 -0.5805  2.1409
  124OSM    H5G13214   5.899   6.693   6.822 -3.0793  1.0362 -1.6515
  124OSM    C6F13215   5.907   6.545   6.983 -0.1935  0.4700 -0.5482
  124OSM    H6F13216   6.018   6.537   6.979 -0.1591 -0.4383  1.1694
  124OSM    H6G13217   5.879   6.441   7.011  2.7278  0.2368  2.1448
  124OSM    C7F13218   5.855   6.629   7.097 -0.4294 -0.1770  0.0931
  124OSM    H7F13219   5.745   6.635   7.081 -0.2338  0.3855 -1.2409
  124OSM    H7G13220   5.898   6.730   7.077 -1.9326  0.3874 -0.4010
  124OSM    C8F13221   5.875   6.562   7.237  0.1480  0.4275 -0.1630
  124OSM    H8F13222   5.981   6.528   7.251  0.0645  0.7248  1.3281
  124OSM    H8G13223   5.806   6.475   7.246 -0.7899  1.1404 -0.3784
  124OSM    C9F13224   5.836   6.646   7.358 -0.2162 -0.0194  0.1015
  124OSM    H9F13225   5.810   6.752   7.345 -0.4924 -0.0069  0.6969
  124OSM   C10F13226   5.819   6.597   7.488 -0.1903  0.5570  0.1212
  124OSM   H10F13227   5.787   6.659   7.573  1.5782  1.0016  0.5035
  124OSM   C11F13228   5.835   6.459   7.526  0.2640  0.3360  0.3997
  124OSM   H11F13229   5.858   6.386   7.446  1.5140 -0.9288  1.8437
  124OSM   H11G13230   5.745   6.417   7.576  1.6937 -1.2648  1.7483
  124OSM   C12F13231   5.950   6.436   7.628  0.0600  0.0841 -0.8108
  124OSM   H12F13232   6.044   6.472   7.582  0.7056 -0.0555  0.3506
  124OSM   H12G13233   5.968   6.327   7.638 -2.6824 -0.2949  0.8990
  124OSM   C13F13234   5.943   6.509   7.764 -0.3468 -0.1407  0.1904
  124OSM   H13F13235   5.854   6.477   7.822 -1.0965  2.1591  0.4025
  124OSM   H13G13236   5.942   6.618   7.745 -2.3512 -0.1369  0.1381
  124OSM   C14F13237   6.072   6.477   7.842 -1.0386  0.1083  0.5930
  124OSM   H14F13238   6.171   6.508   7.805 -0.7038  0.0996  1.4571
  124OSM   H14G13239   6.079   6.366   7.842 -0.7555  0.1262  0.8320
  124OSM   C15F13240   6.076   6.523   7.984  0.2502 -0.0429 -0.2438
  124OSM   H15F13241   5.978   6.490   8.023 -0.7203  2.1189 -0.6567
  124OSM   H15G13242   6.084   6.633   8.001  1.4377  0.0672 -1.3075
  124OSM   C16F13243   6.182   6.476   8.073  0.0564 -0.1097 -0.5715
  124OSM   H16F13244   6.282   6.504   8.034  0.7955 -0.2562  1.1217
  124OSM   H16G13245   6.176   6.365   8.081 -0.8169 -0.0207  0.0841
  124OSM   C17F13246   6.169   6.542   8.214  0.3411 -0.1904  0.8867
  124OSM   H17F13247   6.068   6.511   8.247  0.7512  0.3100  2.7083
  124OSM   H17G13248   6.169   6.653   8.214  2.1400 -0.1549  0.7229
  124OSM   C18F13249   6.278   6.485   8.304  0.1557  0.0426  0.1804
  124OSM   H18F13250   6.236   6.418   8.382  0.3251 -0.2052  0.0602
  124OSM   H18G13251   6.342   6.553   8.364  0.3095 -1.6860  2.0807
  124OSM   H18H13252   6.338   6.424   8.234 -0.2283 -1.0054  0.7460
  125OSM      N13253   1.294   4.341   6.088  0.6619 -0.4416  0.1241
  125OSM    C1513254   1.160   4.296   6.139 -0.5012  0.8398 -0.3049
  125OSM   H15A13255   1.132   4.344   6.232  1.0427  0.3024  0.4775
  125OSM   H15B13256   1.154   4.188   6.140 -0.7749  0.8431 -1.1062
  125OSM   H15C13257   1.078   4.319   6.073 -2.5566  2.2518  2.5238
  125OSM    C1413258   1.272   4.474   6.026 -0.1948 -0.0439  0.1976
  125OSM   H14A13259   1.346   4.507   5.954 -0.3500  0.1086  0.1063
  125OSM   H14B13260   1.243   4.560   6.085  1.4682  1.9549 -1.6987
  125OSM   H14C13261   1.184   4.460   5.964 -1.0169  1.2569  1.0184
  125OSM    C1313262   1.386   4.356   6.198  0.2442 -0.6762  0.4097
  125OSM   H13A13263   1.392   4.268   6.259 -1.7986 -0.6594  0.7249
  125OSM   H13B13264   1.356   4.433   6.267 -2.0028 -0.5766 -0.5755
  125OSM   H13C13265   1.488   4.370   6.166  0.0390 -0.1163 -0.0236
  125OSM    C1213266   1.350   4.254   5.979 -0.1470  0.2861  0.3336
  125OSM   H12A13267   1.433   4.308   5.937  1.6806 -2.4628  0.1775
  125OSM   H12B13268   1.278   4.249   5.899 -0.2716 -2.9630  0.5346
  125OSM    C1113269   1.381   4.105   6.002  0.2185  0.2875  0.3369
  125OSM   H11A13270   1.438   4.100   6.097 -1.6594 -1.1322  1.4516
  125OSM   H11B13271   1.436   4.078   5.909 -1.4927  2.0592 -1.2972
  125OSM      P13272   1.284   3.870   6.030 -0.4001 -0.0323 -0.1109
  125OSM    O1313273   1.153   3.806   6.003 -0.4654 -0.4719  0.5340
  125OSM    O1413274   1.406   3.822   5.961 -0.5752  0.0388 -0.5242
  125OSM    O1113275   1.316   3.867   6.188  0.2220 -0.1518 -0.7653
  125OSM    O1213276   1.264   4.021   6.011  0.6182 -0.1555  0.1750
  125OSM    C1S13277   1.227   3.926   6.281  0.0018  0.4633  0.3080
  125OSM    H1S13278   1.138   3.863   6.303  0.0188  0.2699 -0.1486
  125OSM    H1T13279   1.197   4.029   6.254 -1.0133  0.3347  0.8813
  125OSM     NF13280   1.204   4.003   6.503  0.3583  0.2734  0.4546
  125OSM    HNF13281   1.224   4.100   6.518  1.4552  0.0292  0.6835
  125OSM    C2S13282   1.297   3.940   6.417 -0.4019 -1.2300  0.0703
  125OSM    H2S13283   1.320   3.838   6.454 -2.5880 -2.1536 -0.9696
  125OSM    C3S13284   1.436   4.019   6.397  0.4474 -0.1194 -0.3540
  125OSM    H3S13285   1.404   4.125   6.391  0.9642  0.4213  3.4663
  125OSM     O313286   1.515   3.981   6.286  0.0666  0.2951  0.0291
  125OSM    HO313287   1.455   3.917   6.247  1.3103 -1.9203  1.5646
  125OSM    C4S13288   1.513   4.017   6.528  0.2869 -0.1003 -0.1130
  125OSM    H4S13289   1.536   3.912   6.551  0.0048  0.2526  1.9315
  125OSM    C5S13290   1.562   4.119   6.603 -0.3226 -0.5309  0.2584
  125OSM    H5S13291   1.557   4.224   6.570 -0.8747 -0.7244 -0.2927
  125OSM    C6S13292   1.653   4.099   6.727  0.1859  0.4253  0.4297
  125OSM    H6S13293   1.608   4.146   6.817  0.7520 -0.5603  1.2511
  125OSM    H6T13294   1.751   4.146   6.705  1.0633 -1.0189  1.0652
  125OSM    C7S13295   1.688   3.946   6.768  0.6161  0.3416  0.4941
  125OSM    H7S13296   1.731   3.882   6.688 -2.7736 -2.0682  0.3871
  125OSM    H7T13297   1.594   3.895   6.797  1.1170 -1.5351 -1.0112
  125OSM    C8S13298   1.778   3.945   6.885 -1.0182 -0.5198  0.1377
  125OSM    H8S13299   1.729   3.989   6.975 -3.4484 -0.1855 -1.2761
  125OSM    H8T13300   1.872   4.001   6.864  1.1351 -4.0308 -0.3516
  125OSM    C9S13301   1.817   3.800   6.909  0.7956  0.6104 -0.1228
  125OSM    H9S13302   1.874   3.745   6.830  1.3470 -0.5958  1.0839
  125OSM    H9T13303   1.718   3.750   6.912  1.0518  0.1485  0.6379
  125OSM   C10S13304   1.895   3.768   7.038  0.4159  0.3049 -0.6525
  125OSM   H10S13305   2.001   3.800   7.034  0.0851  1.3267 -3.1910
  125OSM   H10T13306   1.889   3.659   7.056 -1.0680  0.5209  0.4291
  125OSM   C11S13307   1.833   3.819   7.171  0.3672  0.5906  0.6403
  125OSM   H11S13308   1.725   3.790   7.176  0.3485  0.7770  1.3692
  125OSM   H11T13309   1.840   3.930   7.167  2.2269  0.6362  3.1823
  125OSM   C12S13310   1.914   3.783   7.294  0.7142  0.6883  0.4707
  125OSM   H12S13311   2.021   3.808   7.278  0.6234  1.3113  0.7957
  125OSM   H12T13312   1.924   3.673   7.302  0.4578  0.2739 -3.2510
  125OSM   C13S13313   1.845   3.835   7.418 -0.9531  0.9249 -0.3969
  125OSM   H13S13314   1.735   3.817   7.415 -0.4304 -4.2681  1.0846
  125OSM   H13T13315   1.862   3.944   7.427 -0.6650  0.8493 -0.0474
  125OSM   C14S13316   1.895   3.766   7.547 -0.9540 -0.8202 -0.4089
  125OSM   H14S13317   2.006   3.769   7.560 -0.9751 -2.3310  0.3889
  125OSM   H14T13318   1.874   3.657   7.555  0.8921 -1.2786 -1.0941
  125OSM   C15S13319   1.843   3.843   7.670 -0.3938  0.2368  0.7985
  125OSM   H15S13320   1.741   3.801   7.679 -0.6171  0.7627  0.7192
  125OSM   H15T13321   1.836   3.952   7.653 -0.7801  0.3073  1.3933
  125OSM   C16S13322   1.923   3.832   7.796 -0.2638  0.1144 -0.2991
  125OSM   H16S13323   2.009   3.900   7.784 -1.0543  1.9306  3.0063
  125OSM   H16T13324   1.971   3.734   7.819 -2.8503 -1.4665 -1.2158
  125OSM   C17S13325   1.840   3.875   7.915 -0.2438  0.6422  0.9951
  125OSM   H17S13326   1.767   3.792   7.927  2.2536 -1.5879  1.7599
  125OSM   H17T13327   1.783   3.969   7.895 -0.0993  0.7023  0.8667
  125OSM   C18S13328   1.916   3.893   8.043  0.5189  0.0517  0.0773
  125OSM   H18S13329   1.949   3.791   8.072 -0.7441 -0.3748  0.1072
  125OSM   H18T13330   1.852   3.931   8.126  0.0536 -1.0356  0.2383
  125OSM   H18U13331   1.991   3.974   8.029  0.5335  0.1781  0.8094
  125OSM    C1F13332   1.095   3.950   6.557 -0.1364 -0.5459  0.3449
  125OSM     OF13333   1.082   3.827   6.552  0.0315  0.5627 -0.2453
  125OSM    C2F13334   0.989   4.048   6.601  0.3724 -0.4657 -0.0607
  125OSM    H2F13335   0.927   4.082   6.515  0.3422  0.7768  0.4306
  125OSM    H2G13336   1.040   4.136   6.645  0.6234 -0.7821  0.2903
  125OSM    C3F13337   0.896   3.973   6.710  0.3435 -0.6835  0.1422
  125OSM    H3F13338   0.866   3.875   6.667 -0.1694 -0.4692  0.0088
  125OSM    H3G13339   0.806   4.037   6.709  0.9273  0.1744  0.7881
  125OSM    C4F13340   0.959   3.965   6.846  0.5747  0.3690 -0.5661
  125OSM    H4F13341   0.955   4.066   6.891  2.2388 -0.0203  0.5352
  125OSM    H4G13342   1.060   3.920   6.843  1.0766  1.4776 -2.8455
  125OSM    C5F13343   0.881   3.875   6.938  0.5511  0.3873  0.6752
  125OSM    H5F13344   0.924   3.778   6.907 -1.1117  0.5636 -2.5048
  125OSM    H5G13345   0.771   3.879   6.926  0.4294  1.4117  1.8328
  125OSM    C6F13346   0.907   3.902   7.085 -0.4593 -0.6283 -1.0338
  125OSM    H6F13347   0.900   4.009   7.115  3.2864 -0.3179 -0.7127
  125OSM    H6G13348   1.016   3.883   7.099 -0.3726  0.1999 -0.4520
  125OSM    C7F13349   0.830   3.813   7.186 -0.4592 -0.3477  0.0209
  125OSM    H7F13350   0.860   3.707   7.174  3.6110  0.8128 -1.3786
  125OSM    H7G13351   0.723   3.826   7.159 -0.0654  0.2520 -1.3373
  125OSM    C8F13352   0.861   3.858   7.330 -0.1613 -0.2671 -0.2452
  125OSM    H8F13353   0.844   3.967   7.346 -1.9542 -0.8504  2.4658
  125OSM    H8G13354   0.964   3.832   7.364  0.4342  0.0253 -1.7556
  125OSM    C9F13355   0.756   3.786   7.416 -0.0262 -0.9447 -0.5200
  125OSM    H9F13356   0.655   3.777   7.374  0.3088  0.0416 -1.6096
  125OSM   C10F13357   0.776   3.743   7.543  0.4045 -0.2340 -0.3198
  125OSM   H10F13358   0.694   3.688   7.591  0.1682  0.9188  0.6252
  125OSM   C11F13359   0.905   3.741   7.616 -0.3631  0.3797  0.0674
  125OSM   H11F13360   0.960   3.834   7.590 -0.0593  1.0488  2.7342
  125OSM   H11G13361   0.954   3.644   7.592 -0.9940 -0.4790  1.9934
  125OSM   C12F13362   0.882   3.734   7.772  0.2245 -0.4635  0.4127
  125OSM   H12F13363   0.825   3.640   7.789  0.1859 -0.4411  0.4087
  125OSM   H12G13364   0.803   3.808   7.799  2.5349  2.6787 -0.7592
  125OSM   C13F13365   1.020   3.742   7.834 -0.2434 -0.1597  0.2611
  125OSM   H13F13366   1.054   3.847   7.839 -1.0251  0.2189 -1.5207
  125OSM   H13G13367   1.096   3.694   7.768 -0.5839  0.1868 -0.3940
  125OSM   C14F13368   1.022   3.709   7.986  0.2831 -0.3034 -0.3863
  125OSM   H14F13369   0.981   3.606   7.991 -0.2012 -0.0498  1.4001
  125OSM   H14G13370   0.958   3.775   8.049  0.0542 -0.7064 -0.1959
  125OSM   C15F13371   1.156   3.713   8.050 -0.4117  0.0027  0.7691
  125OSM   H15F13372   1.208   3.808   8.024 -0.5861 -0.0806  0.0984
  125OSM   H15G13373   1.224   3.629   8.025 -1.1608 -0.6176  0.7941
  125OSM   C16F13374   1.154   3.712   8.202 -0.2143  0.1418 -0.3131
  125OSM   H16F13375   1.119   3.813   8.233 -0.3414  0.3183 -1.0042
  125OSM   H16G13376   1.257   3.693   8.239 -0.1603  0.3553 -0.3523
  125OSM   C17F13377   1.068   3.600   8.267  0.1876  0.0139 -0.1316
  125OSM   H17F13378   1.105   3.499   8.240  3.1566  0.7213  0.8329
  125OSM   H17G13379   0.962   3.601   8.236 -0.0922  0.1381  0.7873
  125OSM   C18F13380   1.071   3.594   8.424 -0.4930 -0.3322  0.4240
  125OSM   H18F13381   1.178   3.601   8.452 -0.4913  0.8902  0.1775
  125OSM   H18G13382   1.018   3.501   8.451  0.0623 -1.8350 -3.0664
  125OSM   H18H13383   1.025   3.674   8.486 -0.2412 -0.8552  1.3029
  126OSM      N13384   4.497   1.981   6.418  0.3241  0.0760 -0.1664
  126OSM    C1513385   4.576   2.037   6.315 -0.3340  0.2998 -0.1026
  126OSM   H15A13386   4.670   2.074   6.353 -0.9583  1.2978  0.5299
  126OSM   H15B13387   4.532   2.121   6.263 -0.1757 -0.7428 -2.0037
  126OSM   H15C13388   4.598   1.970   6.233  3.4462 -0.0232  0.9705
  126OSM    C1413389   4.576   1.881   6.496 -0.2606 -0.1745  0.3810
  126OSM   H14A13390   4.652   1.931   6.555 -0.6957 -1.6168  2.2776
  126OSM   H14B13391   4.618   1.802   6.435 -0.7019 -0.5130  0.5096
  126OSM   H14C13392   4.515   1.841   6.576 -0.4536  1.3095  0.9982
  126OSM    C1313393   4.478   2.096   6.516 -0.2250  0.1267 -0.1957
  126OSM   H13A13394   4.411   2.069   6.596 -0.5573  0.2602 -0.4201
  126OSM   H13B13395   4.449   2.181   6.455  0.4882  0.9928  0.6325
  126OSM   H13C13396   4.567   2.117   6.572 -0.2664 -1.2548  0.4210
  126OSM    C1213397   4.356   1.932   6.371 -0.0548  0.0554  0.0971
  126OSM   H12A13398   4.369   1.847   6.305 -1.6854  1.1338 -1.7405
  126OSM   H12B13399   4.322   2.011   6.305 -0.5125 -3.1554 -3.9635
  126OSM    C1113400   4.251   1.899   6.476 -0.0041 -0.4140 -0.1251
  126OSM   H11A13401   4.297   1.839   6.557 -0.5032  2.3715  2.3879
  126OSM   H11B13402   4.167   1.847   6.425 -0.8672  2.1254 -1.4622
  126OSM      P13403   4.114   2.121   6.454  0.3477  0.4623  0.5495
  126OSM    O1313404   4.170   2.138   6.321 -0.1389 -0.1859  0.0873
  126OSM    O1413405   3.969   2.095   6.477 -0.4999  0.1031  0.3833
  126OSM    O1113406   4.150   2.235   6.544  0.2434  0.3812 -0.5049
  126OSM    O1213407   4.194   2.009   6.538 -0.1922  0.2427  0.0691
  126OSM    C1S13408   4.075   2.265   6.664  0.4633 -0.3533  0.2104
  126OSM    H1S13409   4.017   2.179   6.706 -0.4514 -0.6859 -1.6339
  126OSM    H1T13410   3.999   2.344   6.647 -2.0331 -2.9651 -1.9500
  126OSM     NF13411   4.103   2.317   6.920  0.2043  0.4515  0.0738
  126OSM    HNF13412   4.090   2.407   6.962  1.6963  0.8543 -0.2662
  126OSM    C2S13413   4.175   2.308   6.788 -0.2132 -0.0400  0.2687
  126OSM    H2S13414   4.245   2.222   6.796 -1.3130 -0.9781  0.0192
  126OSM    C3S13415   4.259   2.429   6.744 -0.0133  0.1173  0.1595
  126OSM    H3S13416   4.190   2.516   6.751  0.9157  0.7677  1.5537
  126OSM     O313417   4.316   2.407   6.616 -0.1949 -0.1382  0.3612
  126OSM    HO313418   4.266   2.329   6.591  2.4270 -1.0079 -3.0245
  126OSM    C4S13419   4.382   2.447   6.818 -0.3530  0.2635  0.7201
  126OSM    H4S13420   4.478   2.413   6.777 -0.7586 -1.1344  0.8478
  126OSM    C5S13421   4.391   2.510   6.939 -0.3719  0.3648  0.5843
  126OSM    H5S13422   4.301   2.560   6.977 -0.3344  0.2718  0.7989
  126OSM    C6S13423   4.514   2.552   7.018 -0.6965  0.4214  0.4607
  126OSM    H6S13424   4.521   2.663   7.026 -3.1693  0.9396 -2.4100
  126OSM    H6T13425   4.609   2.533   6.964 -0.5451  1.0396  0.4986
  126OSM    C7S13426   4.541   2.486   7.153  0.5345  0.2946  1.0656
  126OSM    H7S13427   4.638   2.526   7.192  0.6350 -1.2531  2.5018
  126OSM    H7T13428   4.556   2.380   7.124 -1.2880  0.1120  0.7025
  126OSM    C8S13429   4.425   2.485   7.255 -0.1926  0.1765 -0.1801
  126OSM    H8S13430   4.352   2.414   7.211 -0.8378  0.4675  0.4074
  126OSM    H8T13431   4.377   2.585   7.249  2.1391  1.3396 -0.6989
  126OSM    C9S13432   4.473   2.458   7.399 -0.2079  0.3467  0.6304
  126OSM    H9S13433   4.523   2.543   7.449 -3.3598  2.5501  0.3539
  126OSM    H9T13434   4.532   2.366   7.382 -0.6985 -0.0829  1.2155
  126OSM   C10S13435   4.359   2.406   7.491 -0.2609  0.2007  0.6905
  126OSM   H10S13436   4.291   2.341   7.433  0.8291 -0.0540 -0.3615
  126OSM   H10T13437   4.315   2.505   7.517  2.3611  1.6196  0.1562
  126OSM   C11S13438   4.408   2.329   7.618 -0.5556 -0.1981 -0.0019
  126OSM   H11S13439   4.480   2.397   7.669  0.7233 -2.9638  2.1236
  126OSM   H11T13440   4.464   2.234   7.605  0.6720  0.5450 -0.2608
  126OSM   C12S13441   4.306   2.300   7.724 -0.2676 -0.2159  1.0017
  126OSM   H12S13442   4.212   2.255   7.682 -0.3598 -0.6952  1.7091
  126OSM   H12T13443   4.280   2.399   7.766 -0.8293 -0.2888  0.8366
  126OSM   C13S13444   4.361   2.209   7.830 -0.2768  0.4940  0.3745
  126OSM   H13S13445   4.471   2.219   7.844 -0.0156  1.3982 -1.9767
  126OSM   H13T13446   4.343   2.104   7.797 -1.5847  1.2299 -1.3629
  126OSM   C14S13447   4.280   2.214   7.963 -0.4781 -0.1007  0.8449
  126OSM   H14S13448   4.322   2.129   8.022 -0.2711 -1.3945 -1.0677
  126OSM   H14T13449   4.172   2.191   7.951 -0.3491 -1.3026  1.8249
  126OSM   C15S13450   4.293   2.347   8.042 -0.7512 -0.3340  0.0805
  126OSM   H15S13451   4.244   2.430   7.988 -0.2121  0.1993  0.4008
  126OSM   H15T13452   4.400   2.378   8.047 -0.4495 -1.2606 -0.4102
  126OSM   C16S13453   4.228   2.339   8.179  0.0489 -0.8047  0.2764
  126OSM   H16S13454   4.279   2.262   8.241 -1.6618 -0.5965  2.0444
  126OSM   H16T13455   4.121   2.309   8.167 -0.2561  0.5873 -0.7280
  126OSM   C17S13456   4.217   2.469   8.263 -0.9088 -0.2016  0.3437
  126OSM   H17S13457   4.183   2.547   8.191  0.0299  0.1140  0.2333
  126OSM   H17T13458   4.314   2.485   8.314 -1.7490  2.1442  1.3663
  126OSM   C18S13459   4.109   2.462   8.380  0.4066  0.6250  0.3505
  126OSM   H18S13460   4.121   2.372   8.444 -0.5628  0.9057  0.9568
  126OSM   H18T13461   4.004   2.456   8.343  1.6427 -2.6434 -3.3246
  126OSM   H18U13462   4.123   2.551   8.444 -1.2790  2.3362 -1.5181
  126OSM    C1F13463   4.067   2.204   6.981  0.8938  0.0766  0.2647
  126OSM     OF13464   4.112   2.094   6.939  0.0515 -0.0409  0.0874
  126OSM    C2F13465   3.977   2.209   7.098  0.8731  0.6443 -1.0863
  126OSM    H2F13466   3.894   2.137   7.081  0.5947  0.4661  0.7404
  126OSM    H2G13467   3.934   2.302   7.142 -0.1108 -0.3942  0.2564
  126OSM    C3F13468   4.053   2.161   7.229  0.2240 -0.3202 -0.0385
  126OSM    H3F13469   4.129   2.237   7.256  1.8414 -1.2725 -1.7086
  126OSM    H3G13470   4.108   2.068   7.204  2.1358  0.5189  0.8530
  126OSM    C4F13471   3.964   2.112   7.345 -0.0628  0.0731 -1.1341
  126OSM    H4F13472   3.880   2.054   7.301  0.4461 -0.7105 -1.0926
  126OSM    H4G13473   3.916   2.205   7.382 -0.5346 -0.4462 -0.4056
  126OSM    C5F13474   4.041   2.036   7.457  0.1670  0.1768 -0.4916
  126OSM    H5F13475   4.134   2.091   7.484  1.6047 -1.6931 -1.3438
  126OSM    H5G13476   4.067   1.937   7.414 -2.8600 -0.2882 -1.4665
  126OSM    C6F13477   3.953   2.012   7.579  1.0329 -0.4617 -0.0078
  126OSM    H6F13478   3.851   1.981   7.547  0.3506  2.0791 -0.5497
  126OSM    H6G13479   3.932   2.113   7.621  1.4635  0.2617 -1.4622
  126OSM    C7F13480   4.016   1.918   7.677 -0.3689  0.8882  0.1475
  126OSM    H7F13481   4.073   1.969   7.758  1.5744  0.2215 -0.7179
  126OSM    H7G13482   4.084   1.858   7.613 -2.6409 -0.0796 -1.4904
  126OSM    C8F13483   3.920   1.809   7.728  0.1215 -0.3073 -0.5580
  126OSM    H8F13484   3.981   1.731   7.779 -0.7987 -1.3866 -1.0778
  126OSM    H8G13485   3.856   1.769   7.647 -4.2009  1.7281  1.5412
  126OSM    C9F13486   3.826   1.873   7.830  0.9152 -0.7215  0.7124
  126OSM    H9F13487   3.753   1.940   7.782  2.2895  1.0982  1.0766
  126OSM   C10F13488   3.821   1.858   7.966  0.0832 -0.3208  0.1284
  126OSM   H10F13489   3.738   1.898   8.026  0.4765 -1.3129  1.3975
  126OSM   C11F13490   3.922   1.782   8.050 -0.4430  0.8824 -0.1452
  126OSM   H11F13491   3.959   1.863   8.117  1.1347  1.1716 -1.2921
  126OSM   H11G13492   4.008   1.737   7.994 -0.7011  0.8193 -0.4942
  126OSM   C12F13493   3.851   1.681   8.137  0.1008  0.2049  1.2471
  126OSM   H12F13494   3.821   1.602   8.064  1.3832  0.0410  0.8770
  126OSM   H12G13495   3.760   1.725   8.182 -0.3722  1.2570 -0.6197
  126OSM   C13F13496   3.932   1.609   8.243  0.3326  0.4746  0.7103
  126OSM   H13F13497   3.964   1.688   8.314  0.6015  0.0395  1.0772
  126OSM   H13G13498   4.024   1.582   8.187 -2.0563  1.1626 -4.1048
  126OSM   C14F13499   3.880   1.476   8.294  0.7848 -0.8186 -0.2160
  126OSM   H14F13500   3.869   1.407   8.208 -0.8286 -0.2446 -0.5013
  126OSM   H14G13501   3.775   1.498   8.322  1.2448  1.2168  0.0328
  126OSM   C15F13502   3.957   1.419   8.414  0.6805  0.6918 -0.2559
  126OSM   H15F13503   3.947   1.483   8.504  2.9425  2.4086 -1.1224
  126OSM   H15G13504   4.064   1.406   8.389  1.6163  2.2436  2.5201
  126OSM   C16F13505   3.903   1.279   8.458 -0.6460  0.6138  0.0834
  126OSM   H16F13506   3.796   1.289   8.486 -1.3718 -2.2601 -1.2761
  126OSM   H16G13507   3.964   1.256   8.548 -2.6988 -0.3526  1.2946
  126OSM   C17F13508   3.910   1.160   8.354 -0.3677 -0.4288  0.0344
  126OSM   H17F13509   3.842   1.189   8.271 -1.5764  1.8748  1.7212
  126OSM   H17G13510   3.881   1.062   8.398  1.0230 -1.2616 -0.8286
  126OSM   C18F13511   4.047   1.148   8.290 -0.3883  0.5601  0.0639
  126OSM   H18F13512   4.050   1.048   8.240 -2.3196 -0.6380  2.1097
  126OSM   H18G13513   4.125   1.148   8.368  0.4279 -0.3428 -0.7134
  126OSM   H18H13514   4.072   1.228   8.218 -0.5195  1.0914  0.6073
  127OSM      N13515   3.824   3.688   6.214  0.5179 -0.2734  0.4091
  127OSM    C1513516   3.861   3.548   6.251  1.1889 -0.0753  0.2029
  127OSM   H15A13517   3.777   3.495   6.294  0.9370  1.9598  2.3645
  127OSM   H15B13518   3.947   3.551   6.317  0.0670 -0.0950  1.7146
  127OSM   H15C13519   3.890   3.495   6.161  0.2663 -1.0761  0.4683
  127OSM    C1413520   3.939   3.768   6.162  0.3871  0.7972  0.5783
  127OSM   H14A13521   4.026   3.766   6.226 -1.2458 -0.1196  2.8783
  127OSM   H14B13522   3.910   3.872   6.153  0.2031  0.5423 -3.4409
  127OSM   H14C13523   3.958   3.750   6.057  0.0460  1.0643  0.4685
  127OSM    C1313524   3.719   3.682   6.100 -0.2940  0.5655 -0.5350
  127OSM   H13A13525   3.777   3.641   6.018 -0.3165 -1.1848  0.2932
  127OSM   H13B13526   3.674   3.780   6.093 -1.7387  0.2558  2.7347
  127OSM   H13C13527   3.636   3.620   6.129 -0.5321  0.7444 -0.8343
  127OSM    C1213528   3.765   3.766   6.331 -0.1030  0.1005  0.0138
  127OSM   H12A13529   3.678   3.710   6.361  0.3470 -0.3855  0.4425
  127OSM   H12B13530   3.732   3.866   6.307  0.6173 -0.0240 -1.6693
  127OSM    C1113531   3.861   3.777   6.458 -0.3032  0.6188  0.8223
  127OSM   H11A13532   3.896   3.678   6.494  0.4759  0.5098 -0.1812
  127OSM   H11B13533   3.796   3.815   6.539 -3.1777 -0.0289 -1.0336
  127OSM      P13534   3.970   4.017   6.428  0.2742  0.0275  0.1641
  127OSM    O1313535   4.103   4.061   6.374 -0.0863 -0.0710  0.1609
  127OSM    O1413536   3.843   4.068   6.366 -0.1336  0.5039  0.3765
  127OSM    O1113537   3.973   4.044   6.580  0.1506  0.0776  0.0685
  127OSM    O1213538   3.971   3.861   6.425 -0.2719  0.4784 -0.5208
  127OSM    C1S13539   4.072   3.974   6.658 -0.5668 -0.5397  0.1845
  127OSM    H1S13540   4.173   3.967   6.611 -1.1726  0.8083 -1.4428
  127OSM    H1T13541   4.034   3.873   6.684 -0.6005 -1.4271 -2.8986
  127OSM     NF13542   4.201   3.984   6.876 -0.2542  0.3057  0.8276
  127OSM    HNF13543   4.184   3.915   6.947 -1.3310  0.6334  0.9008
  127OSM    C2S13544   4.072   4.026   6.804  0.1137  0.3067 -0.2932
  127OSM    H2S13545   4.081   4.136   6.798  0.4588  0.2036 -2.1338
  127OSM    C3S13546   3.933   3.991   6.878  0.6814 -0.9295  0.2279
  127OSM    H3S13547   3.924   3.881   6.893 -2.5758 -0.8795 -0.7624
  127OSM     O313548   3.826   4.025   6.791  0.5884  0.2634 -0.4411
  127OSM    HO313549   3.874   4.035   6.708  1.9780  0.6373  0.3773
  127OSM    C4S13550   3.916   4.065   7.005 -0.3522  0.6562 -0.2068
  127OSM    H4S13551   3.969   4.011   7.085 -0.3622  1.0518  0.0714
  127OSM    C5S13552   3.848   4.184   7.024 -0.3203  0.6521 -0.2766
  127OSM    H5S13553   3.807   4.242   6.940  0.3481  0.5312 -0.6953
  127OSM    C6S13554   3.832   4.241   7.163  0.0562  0.2018  0.5006
  127OSM    H6S13555   3.722   4.251   7.178  0.0992  1.9946 -0.1357
  127OSM    H6T13556   3.881   4.341   7.165  2.2030 -0.6352 -2.5323
  127OSM    C7S13557   3.884   4.169   7.289  0.0239 -0.4312 -0.5830
  127OSM    H7S13558   3.989   4.199   7.310 -0.1765 -0.2767  0.2433
  127OSM    H7T13559   3.870   4.060   7.276  1.0938 -1.0389  2.4059
  127OSM    C8S13560   3.810   4.212   7.417 -0.0234  0.2477  0.4094
  127OSM    H8S13561   3.857   4.148   7.495  2.1447  0.0940 -0.9272
  127OSM    H8T13562   3.706   4.174   7.408 -0.5680  1.8618 -0.4598
  127OSM    C9S13563   3.813   4.354   7.449 -0.3531 -0.0025 -0.4761
  127OSM    H9S13564   3.759   4.425   7.384 -0.5504 -0.5604 -0.9286
  127OSM    H9T13565   3.918   4.391   7.455  0.2564 -1.7418  0.0605
  127OSM   C10S13566   3.740   4.362   7.584  0.0773  0.3142 -0.1366
  127OSM   H10S13567   3.633   4.331   7.580  0.9317 -2.9113 -1.1014
  127OSM   H10T13568   3.735   4.464   7.628  1.1081 -0.7427  2.6063
  127OSM   C11S13569   3.807   4.279   7.699 -1.1736 -0.8200  0.2217
  127OSM   H11S13570   3.914   4.307   7.699 -1.9725  3.1574  3.1170
  127OSM   H11T13571   3.786   4.171   7.682 -1.2398 -0.9008  0.8206
  127OSM   C12S13572   3.759   4.309   7.836  0.6599 -0.9095 -0.2681
  127OSM   H12S13573   3.648   4.303   7.833  0.6700 -1.1456 -0.1629
  127OSM   H12T13574   3.786   4.409   7.876  0.2286  0.3611 -2.9370
  127OSM   C13S13575   3.818   4.201   7.924  0.6977 -0.1721 -0.3406
  127OSM   H13S13576   3.926   4.185   7.901  0.5727 -0.7250 -0.5662
  127OSM   H13T13577   3.768   4.103   7.906  2.2204 -1.1271  0.3309
  127OSM   C14S13578   3.802   4.237   8.067 -0.2503  0.5126  0.4310
  127OSM   H14S13579   3.795   4.138   8.116  0.8874 -1.7646 -3.5769
  127OSM   H14T13580   3.710   4.299   8.077 -0.2138  0.7413 -0.5572
  127OSM   C15S13581   3.909   4.326   8.124  0.1859  0.7541 -0.0789
  127OSM   H15S13582   3.886   4.434   8.107  1.9607  1.0164 -0.9749
  127OSM   H15T13583   4.011   4.301   8.087  0.2322 -0.8341  1.0294
  127OSM   C16S13584   3.906   4.309   8.278 -0.2667 -0.0448  0.7717
  127OSM   H16S13585   3.799   4.327   8.302 -0.6826  2.6767 -2.3666
  127OSM   H16T13586   3.970   4.387   8.325 -0.3131  0.3042  0.2660
  127OSM   C17S13587   3.958   4.182   8.329 -0.0033  0.0550 -0.0149
  127OSM   H17S13588   4.065   4.175   8.298  0.1840 -0.4738  0.7286
  127OSM   H17T13589   3.891   4.100   8.296  0.9911 -0.4452 -0.8403
  127OSM   C18S13590   3.957   4.192   8.482  0.4419  0.0429 -1.0051
  127OSM   H18S13591   3.967   4.089   8.524 -1.8940  0.8443  1.7520
  127OSM   H18T13592   3.863   4.234   8.522  0.4242 -1.1328  0.2377
  127OSM   H18U13593   4.040   4.258   8.515 -1.7691  1.9095  1.1321
  127OSM    C1F13594   4.317   4.024   6.838 -0.9429 -0.4850 -0.8370
  127OSM     OF13595   4.330   4.115   6.751 -0.0588  0.1332  0.6567
  127OSM    C2F13596   4.436   3.961   6.902 -0.3136  0.3458  0.3881
  127OSM    H2F13597   4.476   3.873   6.846 -1.9212  0.0809 -0.3887
  127OSM    H2G13598   4.420   3.918   7.004 -0.9828 -2.4663 -0.7985
  127OSM    C3F13599   4.550   4.059   6.921 -0.1248  0.7994 -0.8598
  127OSM    H3F13600   4.526   4.150   6.980  1.5895  0.9524 -0.3397
  127OSM    H3G13601   4.581   4.095   6.821 -2.3332  1.4689 -1.3448
  127OSM    C4F13602   4.649   3.998   7.023  0.3418 -0.0782 -0.4568
  127OSM    H4F13603   4.713   3.926   6.969  0.4404 -1.0882  0.9455
  127OSM    H4G13604   4.605   3.938   7.105 -2.3654 -0.8071 -2.3088
  127OSM    C5F13605   4.737   4.111   7.084 -0.0815  0.0319  0.5475
  127OSM    H5F13606   4.678   4.200   7.117  1.6138  0.7426  1.8096
  127OSM    H5G13607   4.814   4.140   7.010  0.8749 -0.3230  1.3809
  127OSM    C6F13608   4.824   4.074   7.205  0.7592  0.3781 -0.1916
  127OSM    H6F13609   4.756   4.021   7.275  0.6641 -0.5429 -0.9537
  127OSM    H6G13610   4.861   4.164   7.257  0.3859  1.3217 -1.5151
  127OSM    C7F13611   4.955   3.992   7.190  0.3656 -0.5156  0.0648
  127OSM    H7F13612   5.030   4.049   7.130  0.3219  0.7415  1.1460
  127OSM    H7G13613   4.922   3.900   7.138  1.0850 -0.8662  0.2189
  127OSM    C8F13614   5.010   3.953   7.327  0.1566  0.6229 -0.5325
  127OSM    H8F13615   4.926   3.903   7.380  0.1674 -1.5787 -2.3897
  127OSM    H8G13616   5.046   4.028   7.399 -1.8105 -0.5169  1.7734
  127OSM    C9F13617   5.122   3.854   7.310  0.5685  0.5784 -0.6211
  127OSM    H9F13618   5.206   3.886   7.247  0.6616  0.6340 -0.4711
  127OSM   C10F13619   5.134   3.730   7.361  0.5656  0.1492  0.1325
  127OSM   H10F13620   5.224   3.672   7.337  0.5516  1.3916 -3.5368
  127OSM   C11F13621   5.030   3.662   7.442  0.1223 -0.5133  0.1829
  127OSM   H11F13622   5.055   3.554   7.438  1.2908 -0.3785  2.5995
  127OSM   H11G13623   4.931   3.687   7.398  0.9217  0.0518 -1.3800
  127OSM   C12F13624   5.033   3.702   7.588 -0.4722 -0.2692  0.5885
  127OSM   H12F13625   5.031   3.812   7.609  0.9786 -0.3789  1.4272
  127OSM   H12G13626   5.128   3.667   7.633  0.1372  1.0871  0.4224
  127OSM   C13F13627   4.938   3.636   7.682  0.1952 -0.0979 -0.1194
  127OSM   H13F13628   4.941   3.525   7.679 -0.1941 -0.1023 -0.3359
  127OSM   H13G13629   4.832   3.661   7.662  0.0663 -0.6104 -0.1004
  127OSM   C14F13630   4.959   3.678   7.824  0.0206 -0.1851 -0.2930
  127OSM   H14F13631   4.952   3.789   7.821  1.3007  0.0497  2.4282
  127OSM   H14G13632   5.057   3.634   7.855  0.8538  1.2164 -0.8350
  127OSM   C15F13633   4.843   3.622   7.914  0.0085  0.0288 -0.2461
  127OSM   H15F13634   4.863   3.514   7.902 -2.7211 -0.8479  1.8329
  127OSM   H15G13635   4.750   3.643   7.857 -0.1869 -1.3312 -0.4398
  127OSM   C16F13636   4.826   3.664   8.059 -0.2302  0.1336 -0.6896
  127OSM   H16F13637   4.725   3.643   8.099 -0.0422  3.7323  2.2067
  127OSM   H16G13638   4.840   3.774   8.051  2.3311 -0.2363 -3.3008
  127OSM   C17F13639   4.943   3.603   8.141  0.2110 -0.4765 -0.6765
  127OSM   H17F13640   5.029   3.657   8.097 -0.6388  1.0017 -0.5847
  127OSM   H17G13641   4.967   3.495   8.131  0.5105 -0.2663 -2.7994
  127OSM   C18F13642   4.926   3.639   8.289  0.1454 -0.1394  0.5717
  127OSM   H18F13643   4.991   3.578   8.355 -0.3246 -3.2450 -1.6228
  127OSM   H18G13644   4.821   3.626   8.324 -0.1578  1.2865  0.2488
  127OSM   H18H13645   4.961   3.745   8.292  3.6160 -1.1512 -0.1627
  128OSM      N13646   3.775   0.298   6.396  0.1917  0.3406 -0.0234
  128OSM    C1513647   3.806   0.298   6.545  0.6682  0.2369 -0.2276
  128OSM   H15A13648   3.763   0.379   6.602  2.9980  3.2299 -2.4564
  128OSM   H15B13649   3.911   0.308   6.566  0.1649  2.4771  1.6366
  128OSM   H15C13650   3.773   0.200   6.579  0.7718 -0.4712 -2.0571
  128OSM    C1413651   3.839   0.180   6.327  0.7147  0.1548 -0.0168
  128OSM   H14A13652   3.794   0.182   6.229 -2.4449  2.2651  1.2914
  128OSM   H14B13653   3.811   0.082   6.363 -1.9333  0.4987 -0.8960
  128OSM   H14C13654   3.945   0.191   6.313  0.5880  0.6465 -0.6486
  128OSM    C1313655   3.619   0.279   6.380  0.1907  0.1257  0.7277
  128OSM   H13A13656   3.589   0.279   6.277 -1.7611 -0.3457  1.2475
  128OSM   H13B13657   3.569   0.363   6.427  1.6554  1.7415 -0.4474
  128OSM   H13C13658   3.587   0.183   6.418 -0.5888 -0.0842 -0.4185
  128OSM    C1213659   3.820   0.428   6.331 -0.2811 -1.0136  0.0404
  128OSM   H12A13660   3.745   0.498   6.363 -0.1332 -1.3485  1.1474
  128OSM   H12B13661   3.809   0.415   6.224  0.0958 -0.8317 -0.0221
  128OSM    C1113662   3.966   0.472   6.343  0.0453 -0.8095  0.3570
  128OSM   H11A13663   3.988   0.481   6.451  1.8288 -0.0208 -0.0375
  128OSM   H11B13664   3.974   0.571   6.293  1.9490 -0.2611  1.6273
  128OSM      P13665   4.201   0.374   6.298 -0.2795 -0.2497  0.2650
  128OSM    O1313666   4.262   0.245   6.263 -0.4899 -0.1229  0.0352
  128OSM    O1413667   4.246   0.488   6.212  0.7493  0.4728  0.1749
  128OSM    O1113668   4.219   0.408   6.449 -0.0880 -0.3977  0.3279
  128OSM    O1213669   4.044   0.366   6.282  0.1931  0.3517 -0.2318
  128OSM    C1S13670   4.195   0.324   6.556  0.2415 -0.0420 -0.4593
  128OSM    H1S13671   4.231   0.220   6.541  0.9169 -0.1571  1.7085
  128OSM    H1T13672   4.089   0.318   6.588  1.5701  0.1380  4.7913
  128OSM     NF13673   4.267   0.278   6.780  0.1827  0.3396  0.1006
  128OSM    HNF13674   4.197   0.301   6.847 -0.0862  0.8727 -0.3551
  128OSM    C2S13675   4.263   0.383   6.684  0.6398  0.6647 -0.9746
  128OSM    H2S13676   4.364   0.422   6.659  0.8386  0.4314 -0.5452
  128OSM    C3S13677   4.180   0.501   6.734  0.4764 -0.1753  0.0792
  128OSM    H3S13678   4.085   0.461   6.773  0.1208  0.6888  0.1295
  128OSM     O313679   4.146   0.594   6.626  0.1020  0.0811  0.2229
  128OSM    HO313680   4.179   0.540   6.554 -0.2381 -2.4454  1.8282
  128OSM    C4S13681   4.247   0.575   6.854  0.3646 -0.4032  0.7040
  128OSM    H4S13682   4.179   0.582   6.940  0.6532 -0.9143  0.9829
  128OSM    C5S13683   4.360   0.641   6.857 -0.5746  0.4904 -0.3358
  128OSM    H5S13684   4.425   0.635   6.769  0.5202 -1.9427  0.5547
  128OSM    C6S13685   4.418   0.715   6.980  0.0655  0.3195  0.5108
  128OSM    H6S13686   4.403   0.822   6.952  0.1710 -0.1250 -1.4109
  128OSM    H6T13687   4.527   0.697   6.991  0.5001  2.2579 -0.1867
  128OSM    C7S13688   4.358   0.681   7.113  0.7852  0.2200  0.8380
  128OSM    H7S13689   4.358   0.570   7.120 -1.9453 -0.0717 -1.8592
  128OSM    H7T13690   4.251   0.713   7.110  1.1286  1.3390 -1.4836
  128OSM    C8S13691   4.429   0.744   7.227 -0.0087  0.9286  0.1600
  128OSM    H8S13692   4.460   0.849   7.212  3.7590  0.2620  2.1660
  128OSM    H8T13693   4.523   0.685   7.221  0.3867  1.6023 -0.3039
  128OSM    C9S13694   4.363   0.716   7.359 -0.0029  0.2622  0.1745
  128OSM    H9S13695   4.339   0.608   7.368  2.9827 -0.5439 -0.5280
  128OSM    H9T13696   4.271   0.778   7.368 -0.1910 -0.0887  0.6981
  128OSM   C10S13697   4.453   0.750   7.480  0.3040  0.6581  0.6645
  128OSM   H10S13698   4.501   0.849   7.464 -0.2141  0.9405  0.8155
  128OSM   H10T13699   4.526   0.667   7.493  0.5872  0.3268 -2.2751
  128OSM   C11S13700   4.364   0.757   7.603 -0.2706  0.7733  0.3144
  128OSM   H11S13701   4.301   0.666   7.607  0.9051 -0.0372  0.8036
  128OSM   H11T13702   4.290   0.840   7.600 -1.7507 -0.4975  0.4372
  128OSM   C12S13703   4.451   0.760   7.723 -0.4393 -0.2206 -0.9556
  128OSM   H12S13704   4.510   0.855   7.719  0.4728 -0.6533  0.9118
  128OSM   H12T13705   4.533   0.686   7.731  0.2154  0.4737 -1.0223
  128OSM   C13S13706   4.377   0.761   7.853  0.5492  0.1009 -0.2363
  128OSM   H13S13707   4.319   0.666   7.845  0.8915 -0.1688  0.3768
  128OSM   H13T13708   4.311   0.851   7.856  2.5859  1.6310  1.2378
  128OSM   C14S13709   4.458   0.762   7.979 -0.1899 -0.7950 -0.3305
  128OSM   H14S13710   4.512   0.855   8.003 -1.6835 -0.5901  2.6732
  128OSM   H14T13711   4.536   0.683   7.971  0.1166 -0.4096 -1.3287
  128OSM   C15S13712   4.381   0.739   8.111  0.2727 -0.3732  0.6722
  128OSM   H15S13713   4.334   0.640   8.090 -2.0155  1.0152 -1.3497
  128OSM   H15T13714   4.305   0.819   8.126  0.3374 -0.6779  2.9833
  128OSM   C16S13715   4.484   0.748   8.220 -0.1957 -0.5082 -0.4935
  128OSM   H16S13716   4.583   0.746   8.169  0.3862 -1.6321  0.6298
  128OSM   H16T13717   4.466   0.662   8.288 -0.2793 -0.2062 -0.1272
  128OSM   C17S13718   4.473   0.864   8.318  0.0130 -0.2270  0.5953
  128OSM   H17S13719   4.466   0.963   8.268 -2.6038 -1.1071 -1.0166
  128OSM   H17T13720   4.555   0.851   8.392 -0.8961 -2.2481  1.3385
  128OSM   C18S13721   4.340   0.869   8.394  0.3314 -0.3043 -0.4289
  128OSM   H18S13722   4.311   0.770   8.435  2.0438 -0.9339 -0.6608
  128OSM   H18T13723   4.258   0.921   8.338  0.2027  0.8418  0.7700
  128OSM   H18U13724   4.358   0.926   8.487 -0.4340 -2.6126  1.2239
  128OSM    C1F13725   4.344   0.167   6.779  0.1497 -0.3285 -0.3425
  128OSM     OF13726   4.426   0.162   6.695  0.0147  0.2853  0.1658
  128OSM    C2F13727   4.326   0.059   6.884  0.0640  0.1150 -0.3833
  128OSM    H2F13728   4.247   0.105   6.946 -0.1641 -0.3785 -0.2968
  128OSM    H2G13729   4.410   0.052   6.958 -0.7128 -0.4261  0.4742
  128OSM    C3F13730   4.287  -0.075   6.830  0.5729  0.2193  0.0069
  128OSM    H3F13731   4.375  -0.132   6.795  0.9041 -0.4427  1.8361
  128OSM    H3G13732   4.216  -0.062   6.745  1.3657 -0.7270 -0.8203
  128OSM    C4F13733   4.200  -0.152   6.938 -0.0479 -0.2842 -0.2505
  128OSM    H4F13734   4.151  -0.242   6.894  0.9704 -0.9896  0.0203
  128OSM    H4G13735   4.111  -0.095   6.974  2.1280  1.0136  3.7070
  128OSM    C5F13736   4.281  -0.193   7.056 -0.4545 -0.3388 -0.2702
  128OSM    H5F13737   4.331  -0.108   7.108 -0.5536 -0.5679  0.2091
  128OSM    H5G13738   4.367  -0.257   7.026 -0.6006 -1.4778  1.5499
  128OSM    C6F13739   4.191  -0.264   7.163 -0.6914  0.6715 -0.1214
  128OSM    H6F13740   4.151  -0.356   7.116 -0.8462  1.1800 -1.0048
  128OSM    H6G13741   4.109  -0.192   7.183 -0.1232  1.9648 -2.1789
  128OSM    C7F13742   4.265  -0.322   7.289 -1.4563  0.6560  0.2508
  128OSM    H7F13743   4.315  -0.241   7.347 -0.7966  0.6513 -0.2971
  128OSM    H7G13744   4.352  -0.375   7.246 -1.3146  1.3185 -0.2987
  128OSM    C8F13745   4.174  -0.405   7.374 -0.1295  0.6943  0.2159
  128OSM    H8F13746   4.152  -0.492   7.309  0.1785  0.0404  0.9788
  128OSM    H8G13747   4.077  -0.358   7.402 -1.0183 -1.5797  1.2121
  128OSM    C9F13748   4.252  -0.458   7.492 -0.1245 -0.3845  0.1911
  128OSM    H9F13749   4.327  -0.536   7.472 -1.9658 -1.7584 -1.6990
  128OSM   C10F13750   4.239  -0.420   7.620 -0.0879 -0.7096  0.4282
  128OSM   H10F13751   4.317  -0.459   7.688  0.6152 -0.4829 -0.2325
  128OSM   C11F13752   4.142  -0.312   7.672  0.1094 -0.3243  1.0338
  128OSM   H11F13753   4.052  -0.309   7.608  0.9374  0.1871 -0.1598
  128OSM   H11G13754   4.180  -0.207   7.670 -3.0022  0.9337 -1.9281
  128OSM   C12F13755   4.078  -0.339   7.807 -0.0398 -0.2739 -0.5421
  128OSM   H12F13756   4.016  -0.429   7.823 -2.1845  1.5384  2.3017
  128OSM   H12G13757   3.995  -0.265   7.819  0.8469  0.6629 -0.0308
  128OSM   C13F13758   4.181  -0.338   7.919  0.2709  0.2523  0.5662
  128OSM   H13F13759   4.251  -0.254   7.897  3.0669 -2.5268 -2.0551
  128OSM   H13G13760   4.231  -0.437   7.925 -1.0302 -0.3529  1.9663
  128OSM   C14F13761   4.120  -0.328   8.057  0.4847  0.2779  0.0834
  128OSM   H14F13762   4.062  -0.421   8.075  0.8689 -0.1805 -0.9442
  128OSM   H14G13763   4.052  -0.240   8.056 -0.3379 -0.3343 -1.5303
  128OSM   C15F13764   4.222  -0.316   8.167  0.0550  0.5644 -0.1263
  128OSM   H15F13765   4.278  -0.222   8.148  1.5024 -0.0445  0.9113
  128OSM   H15G13766   4.299  -0.397   8.168 -1.7077 -1.1833  0.9476
  128OSM   C16F13767   4.163  -0.302   8.309 -0.0670 -0.2673  0.4808
  128OSM   H16F13768   4.053  -0.314   8.310 -0.4358  2.2240 -1.0283
  128OSM   H16G13769   4.179  -0.198   8.343 -2.4156  0.2417  0.1512
  128OSM   C17F13770   4.219  -0.395   8.413  0.6659  0.6821 -0.2228
  128OSM   H17F13771   4.176  -0.364   8.511  2.5349  1.3263  0.4424
  128OSM   H17G13772   4.329  -0.393   8.427  0.7130 -1.9066  0.0896
  128OSM   C18F13773   4.174  -0.546   8.393  0.0945 -0.3556  0.3431
  128OSM   H18F13774   4.235  -0.585   8.308 -2.4061  0.3962 -1.9282
  128OSM   H18G13775   4.069  -0.542   8.356  0.4099 -0.0795 -0.5513
  128OSM   H18H13776   4.186  -0.604   8.487 -1.6307  0.6911  1.2566
  129OSM      N13777   1.784   1.570   5.935 -0.2598  0.0393  0.2637
  129OSM    C1513778   1.665   1.549   6.018  0.1316 -0.4662 -0.2450
  129OSM   H15A13779   1.680   1.478   6.098  0.4092 -0.4933 -0.3213
  129OSM   H15B13780   1.587   1.497   5.964 -2.2537  0.0461  2.4077
  129OSM   H15C13781   1.621   1.642   6.051 -1.6781 -0.9978 -0.9957
  129OSM    C1413782   1.858   1.448   5.896 -0.6297  0.1681  0.2774
  129OSM   H14A13783   1.902   1.400   5.982  1.1091  0.0324 -0.6339
  129OSM   H14B13784   1.942   1.469   5.831  0.3286 -1.6849  0.8321
  129OSM   H14C13785   1.793   1.383   5.839 -0.1867 -1.4899  1.5840
  129OSM    C1313786   1.745   1.652   5.811  0.7916  0.5656  0.1767
  129OSM   H13A13787   1.683   1.584   5.755 -1.5757  0.6406  2.5354
  129OSM   H13B13788   1.839   1.676   5.763  0.7300  0.2950 -0.0762
  129OSM   H13C13789   1.689   1.742   5.830 -2.4990 -1.3173  0.0779
  129OSM    C1213790   1.878   1.658   6.012 -0.0446  0.4090  0.5553
  129OSM   H12A13791   1.956   1.696   5.947 -1.5185  0.0891 -1.4952
  129OSM   H12B13792   1.935   1.596   6.081 -0.8384 -0.1511  0.7179
  129OSM    C1113793   1.823   1.765   6.111 -0.2944 -0.1407 -0.1910
  129OSM   H11A13794   1.912   1.822   6.142 -0.2988  0.1775 -0.7429
  129OSM   H11B13795   1.776   1.713   6.198  1.5522  0.2665  1.0936
  129OSM      P13796   1.780   2.013   6.027 -0.1184 -0.3171  0.2863
  129OSM    O1313797   1.902   2.023   5.947  0.5653  0.0758 -0.2195
  129OSM    O1413798   1.667   2.083   5.963  0.0007  0.3486  0.9822
  129OSM    O1113799   1.814   2.074   6.167 -0.6605  0.2300  0.5052
  129OSM    O1213800   1.735   1.861   6.055  0.5384 -0.1100  0.6206
  129OSM    C1S13801   1.746   2.037   6.288  0.1398  0.7042 -0.1234
  129OSM    H1S13802   1.711   1.932   6.293  2.4428 -0.2459 -1.7479
  129OSM    H1T13803   1.667   2.113   6.300 -1.8914 -1.4134  0.6315
  129OSM     NF13804   1.761   2.029   6.535 -0.2456  0.3453 -0.2066
  129OSM    HNF13805   1.755   2.104   6.600 -1.5933  1.0916 -1.1385
  129OSM    C2S13806   1.841   2.045   6.410  0.4390 -0.2803 -0.1096
  129OSM    H2S13807   1.918   1.965   6.403 -0.3069 -0.9888 -0.3748
  129OSM    C3S13808   1.936   2.176   6.410 -0.1708 -0.4255 -0.6546
  129OSM    H3S13809   1.875   2.268   6.424 -1.0760 -0.8049 -1.9660
  129OSM     O313810   2.018   2.199   6.293 -0.2340  0.5300  0.3337
  129OSM    HO313811   1.974   2.137   6.234 -2.9751  1.9984  0.6567
  129OSM    C4S13812   2.029   2.168   6.531  0.1628 -0.7395 -0.6629
  129OSM    H4S13813   2.087   2.075   6.543 -1.2779 -1.6368 -0.3258
  129OSM    C5S13814   2.047   2.259   6.622  0.1991 -0.1227  0.4466
  129OSM    H5S13815   1.993   2.349   6.590 -3.1863 -2.2867 -0.3887
  129OSM    C6S13816   2.129   2.244   6.752  0.3366  0.0381 -0.0996
  129OSM    H6S13817   2.099   2.336   6.806 -3.4743 -1.3125  0.3596
  129OSM    H6T13818   2.240   2.236   6.743  0.0802 -2.9798 -2.1393
  129OSM    C7S13819   2.077   2.125   6.833  0.1921 -0.3926 -0.4014
  129OSM    H7S13820   2.108   2.035   6.775 -0.3339  0.2043 -1.6508
  129OSM    H7T13821   1.966   2.124   6.832  0.1952 -0.5940 -0.6579
  129OSM    C8S13822   2.126   2.123   6.983  0.0756 -0.5439 -0.0324
  129OSM    H8S13823   2.236   2.106   6.975 -0.0556 -0.8191 -1.5643
  129OSM    H8T13824   2.076   2.034   7.026  0.8695  0.3452  2.9682
  129OSM    C9S13825   2.103   2.238   7.078  0.3261 -0.0358 -0.0999
  129OSM    H9S13826   2.002   2.284   7.076 -0.9837 -2.6619  1.1502
  129OSM    H9T13827   2.177   2.312   7.040  2.6913 -2.5882 -0.7996
  129OSM   C10S13828   2.105   2.195   7.228  0.4828  0.3434  0.0053
  129OSM   H10S13829   2.102   2.289   7.287 -1.8921 -1.4242  3.0410
  129OSM   H10T13830   2.196   2.136   7.255  0.1132  0.2106  1.0074
  129OSM   C11S13831   1.981   2.106   7.262  0.3936 -0.5772 -0.1415
  129OSM   H11S13832   2.000   2.001   7.233  3.6872  0.1215 -0.9818
  129OSM   H11T13833   1.894   2.147   7.207  0.7785  0.0391 -0.3053
  129OSM   C12S13834   1.960   2.099   7.414 -0.2052  0.2126 -0.5621
  129OSM   H12S13835   1.872   2.033   7.430 -0.0605  0.1815  0.1147
  129OSM   H12T13836   1.918   2.187   7.465 -0.9897 -0.8043  0.6099
  129OSM   C13S13837   2.085   2.045   7.484 -0.1498  0.0055 -0.9026
  129OSM   H13S13838   2.177   2.108   7.477  0.3924 -0.8763 -1.9721
  129OSM   H13T13839   2.109   1.950   7.433  0.0175 -1.2907  1.4630
  129OSM   C14S13840   2.071   2.026   7.643 -0.8306  0.3079 -0.1747
  129OSM   H14S13841   2.014   1.938   7.677 -1.8520  0.8802 -0.3796
  129OSM   H14T13842   2.034   2.123   7.682  1.3248  2.2539 -2.5883
  129OSM   C15S13843   2.212   2.003   7.714 -0.0549 -0.1074  0.0490
  129OSM   H15S13844   2.290   2.071   7.674 -1.2501  1.5316  0.4183
  129OSM   H15T13845   2.240   1.905   7.669  0.0565 -0.5567  1.0640
  129OSM   C16S13846   2.201   1.998   7.867 -0.5398 -0.6378  0.4614
  129OSM   H16S13847   2.092   1.998   7.884 -0.5881  0.9919  0.3312
  129OSM   H16T13848   2.256   2.088   7.903 -3.0220 -0.0681  3.2081
  129OSM   C17S13849   2.271   1.877   7.928  0.5826  0.2666  0.0306
  129OSM   H17S13850   2.377   1.885   7.897 -0.1042  0.7828 -2.3972
  129OSM   H17T13851   2.223   1.792   7.874  0.4341  0.8597 -0.7952
  129OSM   C18S13852   2.235   1.852   8.071 -0.8748  0.5161  0.1732
  129OSM   H18S13853   2.270   1.753   8.107  0.6154  0.3608 -1.6071
  129OSM   H18T13854   2.125   1.853   8.089 -0.4366  0.5560  3.5126
  129OSM   H18U13855   2.285   1.933   8.129 -0.8004  1.2584 -0.9137
  129OSM    C1F13856   1.697   1.913   6.564  0.8742 -0.2709 -0.1807
  129OSM     OF13857   1.724   1.810   6.503 -0.0961 -0.2057 -0.1320
  129OSM    C2F13858   1.600   1.917   6.679  0.2788 -0.1676  0.6875
  129OSM    H2F13859   1.506   1.865   6.653  0.5174  1.4563 -4.4070
  129OSM    H2G13860   1.580   2.025   6.698 -1.7228 -0.2452 -0.7518
  129OSM    C3F13861   1.669   1.869   6.805 -0.0268  0.0333 -0.3597
  129OSM    H3F13862   1.750   1.934   6.844 -1.5459  1.0453  1.2108
  129OSM    H3G13863   1.716   1.769   6.791 -1.4223 -0.6157 -0.5109
  129OSM    C4F13864   1.572   1.838   6.919 -0.4954 -0.0343  0.1856
  129OSM    H4F13865   1.484   1.777   6.886 -0.3322 -1.8597  2.8204
  129OSM    H4G13866   1.519   1.929   6.954 -0.5948  0.0463 -0.1679
  129OSM    C5F13867   1.627   1.755   7.035  0.3162 -0.6411 -0.7639
  129OSM    H5F13868   1.721   1.803   7.069  0.7273 -2.1677  0.3864
  129OSM    H5G13869   1.661   1.652   7.013  2.0498 -0.8648  2.3219
  129OSM    C6F13870   1.531   1.738   7.155 -0.2310 -0.5961  0.4754
  129OSM    H6F13871   1.563   1.662   7.229 -0.5456  0.0054  1.2433
  129OSM    H6G13872   1.426   1.721   7.125 -0.0174  0.5266 -1.0169
  129OSM    C7F13873   1.519   1.869   7.242 -0.7606  0.0887  0.0092
  129OSM    H7F13874   1.422   1.874   7.296 -0.6174  1.8148  0.1725
  129OSM    H7G13875   1.528   1.956   7.173  0.4774 -0.9538 -1.2051
  129OSM    C8F13876   1.633   1.896   7.344  0.2381  0.4823 -0.6157
  129OSM    H8F13877   1.618   1.993   7.397  1.2473  1.0552 -1.3116
  129OSM    H8G13878   1.727   1.909   7.285  1.0795 -0.7413  0.3987
  129OSM    C9F13879   1.649   1.786   7.450  0.0523 -0.5503 -0.2566
  129OSM    H9F13880   1.734   1.718   7.433 -0.7639 -0.8897 -3.7273
  129OSM   C10F13881   1.571   1.766   7.560 -0.0079  0.6654  0.2581
  129OSM   H10F13882   1.578   1.669   7.612  0.4364  1.3134  1.4166
  129OSM   C11F13883   1.459   1.851   7.600 -0.6937 -0.1650 -0.1415
  129OSM   H11F13884   1.367   1.790   7.615 -0.3691 -0.5245  0.3875
  129OSM   H11G13885   1.427   1.914   7.514  1.3746  1.2656  0.0685
  129OSM   C12F13886   1.491   1.947   7.713 -0.6856  0.5317  0.0187
  129OSM   H12F13887   1.537   1.888   7.795  1.1690 -0.9107 -1.9301
  129OSM   H12G13888   1.399   1.999   7.745 -1.7097 -1.1113 -0.1306
  129OSM   C13F13889   1.600   2.054   7.683 -0.0177  0.2996 -0.1692
  129OSM   H13F13890   1.562   2.106   7.592  1.5199  0.4120 -0.7741
  129OSM   H13G13891   1.701   2.011   7.667 -0.1765  0.4030 -1.5856
  129OSM   C14F13892   1.604   2.159   7.801  0.8780  0.5503 -0.8926
  129OSM   H14F13893   1.503   2.190   7.836  1.3010  0.6877  0.2708
  129OSM   H14G13894   1.648   2.247   7.749 -1.7250  1.7059 -1.3280
  129OSM   C15F13895   1.695   2.103   7.916  0.7143  0.0100  0.1096
  129OSM   H15F13896   1.792   2.073   7.870  0.2592  0.2953 -1.0835
  129OSM   H15G13897   1.644   2.012   7.955 -0.1270 -0.9522 -2.9539
  129OSM   C16F13898   1.718   2.206   8.031 -0.2902  0.0136 -0.4824
  129OSM   H16F13899   1.739   2.147   8.124  0.9152  0.7462 -0.2667
  129OSM   H16G13900   1.625   2.259   8.063  0.0110  0.2838 -0.0377
  129OSM   C17F13901   1.816   2.314   7.996 -0.1703 -0.3975  0.7757
  129OSM   H17F13902   1.808   2.396   8.071  0.0859  0.6575 -0.3118
  129OSM   H17G13903   1.790   2.360   7.899 -0.0025 -2.0123 -0.0654
  129OSM   C18F13904   1.966   2.266   8.003 -0.3390 -0.2403  0.7907
  129OSM   H18F13905   1.991   2.191   7.925 -1.4868 -0.6568  0.8057
  129OSM   H18G13906   1.999   2.235   8.105  2.6478 -0.5619 -0.1761
  129OSM   H18H13907   2.026   2.352   7.966 -0.1553 -0.3989  0.7180
  130OSM      N13908   2.928   5.689   6.045 -0.1934  0.7627  0.2612
  130OSM    C1513909   2.880   5.568   5.968  0.4920 -0.0264 -0.3528
  130OSM   H15A13910   2.833   5.502   6.039 -1.4414  1.3420 -0.2987
  130OSM   H15B13911   2.955   5.510   5.915 -0.7915 -1.8529 -0.2593
  130OSM   H15C13912   2.815   5.592   5.885  0.0781 -0.6299 -0.2098
  130OSM    C1413913   2.956   5.790   5.946 -0.1420 -0.2595 -0.1680
  130OSM   H14A13914   2.870   5.824   5.890 -1.1795  0.7072  1.9368
  130OSM   H14B13915   3.038   5.748   5.890 -0.3405 -2.3121  0.9956
  130OSM   H14C13916   3.003   5.877   5.989 -3.0545  2.2299 -1.6306
  130OSM    C1313917   2.828   5.726   6.149 -0.1818  0.3584 -0.6051
  130OSM   H13A13918   2.872   5.809   6.203 -1.1992  0.2411  0.4386
  130OSM   H13B13919   2.801   5.655   6.226 -0.6202  2.8200  1.6656
  130OSM   H13C13920   2.736   5.765   6.108  0.1994  0.6921 -1.1588
  130OSM    C1213921   3.058   5.658   6.114  0.8122  0.2073  1.0141
  130OSM   H12A13922   3.133   5.634   6.041 -0.3045 -0.6712  0.1312
  130OSM   H12B13923   3.035   5.565   6.164  1.7536 -0.4312  0.2794
  130OSM    C1113924   3.118   5.758   6.220  0.3349 -0.4160  0.3747
  130OSM   H11A13925   3.212   5.721   6.265 -0.0178  0.8008  2.2422
  130OSM   H11B13926   3.043   5.756   6.302  1.2834 -0.0841  1.2587
  130OSM      P13927   3.059   6.022   6.216 -0.1033 -0.2657 -0.2130
  130OSM    O1313928   3.141   6.087   6.324  0.1969 -0.1948  0.3665
  130OSM    O1413929   3.021   6.103   6.104  0.4794  0.6334  0.5431
  130OSM    O1113930   2.926   5.971   6.284 -0.3951 -0.2194 -0.1284
  130OSM    O1213931   3.131   5.891   6.174 -0.4841  0.3190 -0.1460
  130OSM    C1S13932   2.886   6.008   6.419 -0.3566  0.7658 -0.3098
  130OSM    H1S13933   2.971   6.036   6.485  0.2154 -3.0457  0.8188
  130OSM    H1T13934   2.844   5.919   6.471  1.1783  0.3257  0.2320
  130OSM     NF13935   2.746   6.134   6.574 -0.6581  0.3967  0.0271
  130OSM    HNF13936   2.689   6.064   6.616  0.8814  0.0856  1.7206
  130OSM    C2S13937   2.779   6.120   6.433 -0.5123 -0.3283  0.4980
  130OSM    H2S13938   2.831   6.214   6.404  1.5276 -1.3644  0.5684
  130OSM    C3S13939   2.652   6.080   6.347 -1.2097  0.4972 -0.2378
  130OSM    H3S13940   2.621   5.986   6.398  4.1112  0.1559  3.0741
  130OSM     O313941   2.682   6.046   6.208 -0.1779 -0.1147  0.0891
  130OSM    HO313942   2.777   6.040   6.205 -0.1833 -0.2147 -2.7034
  130OSM    C4S13943   2.547   6.181   6.350  0.0995  0.4425 -0.3988
  130OSM    H4S13944   2.577   6.273   6.297  6.0464 -0.6978  0.3086
  130OSM    C5S13945   2.420   6.159   6.404 -0.1328  0.1977  0.1063
  130OSM    H5S13946   2.400   6.068   6.461 -1.8635  0.3223 -0.2549
  130OSM    C6S13947   2.317   6.273   6.403  0.4112  0.5188 -0.1759
  130OSM    H6S13948   2.217   6.225   6.402  0.5342 -0.0391  2.9401
  130OSM    H6T13949   2.331   6.340   6.315 -0.7387  0.6145 -0.3031
  130OSM    C7S13950   2.327   6.352   6.532  0.4422 -0.2105  0.6997
  130OSM    H7S13951   2.333   6.296   6.628  2.3841  1.7043  1.7706
  130OSM    H7T13952   2.242   6.424   6.532  1.0379  0.5144  2.0365
  130OSM    C8S13953   2.449   6.448   6.528  0.0057  0.4452 -0.3987
  130OSM    H8S13954   2.452   6.498   6.429 -0.0545 -0.0676 -0.6573
  130OSM    H8T13955   2.545   6.393   6.540 -0.0363  0.6259  0.9546
  130OSM    C9S13956   2.436   6.556   6.645 -0.3658 -0.1559 -0.1886
  130OSM    H9S13957   2.340   6.608   6.622 -0.9657 -0.1082  2.1578
  130OSM    H9T13958   2.522   6.624   6.626  0.0261 -0.8297 -0.8847
  130OSM   C10S13959   2.433   6.500   6.785 -0.0795 -0.5067  0.1051
  130OSM   H10S13960   2.529   6.449   6.807 -2.0308 -3.7978  1.8719
  130OSM   H10T13961   2.347   6.434   6.811 -0.0428 -0.4415  0.4006
  130OSM   C11S13962   2.432   6.615   6.886 -0.2817 -0.0257  0.0213
  130OSM   H11S13963   2.364   6.694   6.848 -0.3315 -0.1804 -0.2105
  130OSM   H11T13964   2.532   6.663   6.889  0.2292 -0.5907 -3.6759
  130OSM   C12S13965   2.376   6.565   7.016 -0.2504 -0.5449  0.0730
  130OSM   H12S13966   2.412   6.460   7.028 -0.0186 -0.2668  2.5252
  130OSM   H12T13967   2.266   6.559   7.016 -0.2655 -0.6444  1.3619
  130OSM   C13S13968   2.429   6.647   7.134 -0.0709 -0.3731 -0.8798
  130OSM   H13S13969   2.378   6.745   7.144 -1.1981 -0.9327 -1.0522
  130OSM   H13T13970   2.538   6.665   7.122  0.0175 -0.7446 -0.6304
  130OSM   C14S13971   2.406   6.574   7.266 -0.5271  0.0493  0.4084
  130OSM   H14S13972   2.465   6.479   7.263 -2.4915 -1.2342  0.3540
  130OSM   H14T13973   2.301   6.539   7.272 -0.4991  0.0230  0.7683
  130OSM   C15S13974   2.424   6.651   7.401 -0.6143  0.0243  0.3972
  130OSM   H15S13975   2.343   6.723   7.425  0.9687  1.1234  2.8501
  130OSM   H15T13976   2.520   6.708   7.399 -0.1392 -0.7008  1.5123
  130OSM   C16S13977   2.425   6.564   7.523  0.7297 -0.5571 -0.3102
  130OSM   H16S13978   2.483   6.470   7.506  1.0633 -0.2439 -0.9202
  130OSM   H16T13979   2.323   6.524   7.540 -0.3952  1.7643 -1.2122
  130OSM   C17S13980   2.481   6.628   7.649 -0.3191 -0.2492  0.1323
  130OSM   H17S13981   2.419   6.716   7.676 -1.0067 -1.2579  2.0055
  130OSM   H17T13982   2.583   6.659   7.616 -0.5225 -0.2027 -0.4624
  130OSM   C18S13983   2.472   6.520   7.761 -0.6466  0.2999  0.2449
  130OSM   H18S13984   2.538   6.553   7.845 -0.2959  0.2769 -0.0196
  130OSM   H18T13985   2.501   6.423   7.715  0.1867  1.4025 -1.6630
  130OSM   H18U13986   2.368   6.512   7.799 -0.3051 -3.5461  0.8043
  130OSM    C1F13987   2.833   6.194   6.657  0.0496  0.2256 -0.1891
  130OSM     OF13988   2.939   6.241   6.612  0.8927  0.2635  0.3401
  130OSM    C2F13989   2.801   6.195   6.806  0.1379 -0.5802  0.3419
  130OSM    H2F13990   2.775   6.089   6.830  1.8275 -1.4789 -1.4548
  130OSM    H2G13991   2.715   6.261   6.828  0.9297  0.1616  1.3098
  130OSM    C3F13992   2.912   6.244   6.899 -0.1571  0.6696  0.6294
  130OSM    H3F13993   2.939   6.349   6.878  0.2793  0.2483 -1.1172
  130OSM    H3G13994   3.001   6.184   6.869 -1.7444 -0.5818 -1.9269
  130OSM    C4F13995   2.885   6.219   7.044  0.0920 -0.7798  0.2839
  130OSM    H4F13996   2.779   6.248   7.064 -0.8558 -3.1273 -0.9839
  130OSM    H4G13997   2.960   6.282   7.097 -0.0954  0.0955 -0.4685
  130OSM    C5F13998   2.907   6.072   7.081 -0.5081  0.2004 -0.0196
  130OSM    H5F13999   3.010   6.059   7.039 -0.3896  0.4080  0.2040
  130OSM    H5G14000   2.843   5.997   7.029 -0.3015  0.6502 -0.9476
  130OSM    C6F14001   2.919   6.038   7.230  0.5986 -0.2721  0.0024
  130OSM    H6F14002   3.016   6.071   7.273  0.6599  0.8938 -0.9576
  130OSM    H6G14003   2.915   5.928   7.243  0.1659 -0.1019  1.4432
  130OSM    C7F14004   2.789   6.087   7.299 -0.1075  0.9510  0.2605
  130OSM    H7F14005   2.698   6.047   7.249 -0.5760  1.2969  0.8352
  130OSM    H7G14006   2.782   6.197   7.285  2.4535  0.9136 -2.1819
  130OSM    C8F14007   2.787   6.044   7.449  0.2334 -0.2756  0.0967
  130OSM    H8F14008   2.857   5.958   7.456 -2.0748 -2.5683 -2.2625
  130OSM    H8G14009   2.686   5.998   7.462  0.3733 -0.4932  0.4296
  130OSM    C9F14010   2.829   6.162   7.538  0.3242 -0.2320 -0.5234
  130OSM    H9F14011   2.871   6.250   7.487  0.6748  1.5222  2.5740
  130OSM   C10F14012   2.829   6.170   7.675  0.5173 -0.1509 -0.1622
  130OSM   H10F14013   2.883   6.259   7.714  2.3638 -1.3794  0.2253
  130OSM   C11F14014   2.787   6.066   7.772  0.1191  0.2155  0.2320
  130OSM   H11F14015   2.734   5.980   7.725  2.0661 -0.7079 -0.3784
  130OSM   H11G14016   2.722   6.117   7.846  0.8113  1.8232 -0.2089
  130OSM   C12F14017   2.913   6.008   7.846  0.1351 -0.5464 -0.4530
  130OSM   H12F14018   3.000   6.076   7.862  0.6694 -1.3908  0.2988
  130OSM   H12G14019   2.950   5.918   7.792 -1.7956 -2.0285  0.5671
  130OSM   C13F14020   2.857   5.961   7.989  0.5733  0.4390 -0.0148
  130OSM   H13F14021   2.788   5.874   7.984  1.3594 -0.1534 -0.8154
  130OSM   H13G14022   2.804   6.048   8.033 -0.4264  0.3803 -1.0542
  130OSM   C14F14023   2.977   5.922   8.093  0.2606 -0.1333  0.4104
  130OSM   H14F14024   3.056   6.000   8.087  0.0043  0.0829 -0.2990
  130OSM   H14G14025   3.021   5.827   8.054 -0.1514  0.5750 -1.9256
  130OSM   C15F14026   2.917   5.893   8.232  0.1202 -0.1049  0.9051
  130OSM   H15F14027   2.847   5.807   8.228  1.3614 -1.1285 -0.2313
  130OSM   H15G14028   2.859   5.982   8.262 -3.6371 -2.3528  0.9398
  130OSM   C16F14029   3.029   5.852   8.331 -0.4703  0.2829 -0.1194
  130OSM   H16F14030   3.095   5.937   8.356  0.0669 -0.1257 -0.1326
  130OSM   H16G14031   3.097   5.781   8.279 -1.8503 -1.4167  0.2615
  130OSM   C17F14032   2.984   5.781   8.466  0.5992 -0.2052  0.1300
  130OSM   H17F14033   2.924   5.859   8.516  1.2191  0.5285 -0.2481
  130OSM   H17G14034   3.069   5.750   8.531  0.2277 -1.9708 -0.1705
  130OSM   C18F14035   2.901   5.647   8.457 -0.1899  0.2144 -0.3398
  130OSM   H18F14036   2.808   5.643   8.396 -1.1614  0.4657  1.0685
  130OSM   H18G14037   2.876   5.616   8.561  0.4643  1.1433  0.1043
  130OSM   H18H14038   2.978   5.573   8.429  0.1416  0.2973  0.3238
  131OSM      N14039   2.410   4.976   6.077  0.4830  0.1254 -0.0975
  131OSM    C1514040   2.499   4.944   5.960  0.0540 -0.6357 -0.2957
  131OSM   H15A14041   2.592   4.992   5.986  1.1921 -2.2324 -1.3161
  131OSM   H15B14042   2.447   4.986   5.875  0.9831  0.0782 -0.5237
  131OSM   H15C14043   2.516   4.838   5.959 -0.0035 -0.6826 -2.8491
  131OSM    C1414044   2.419   5.124   6.101 -0.0634  0.3322  0.2160
  131OSM   H14A14045   2.357   5.163   6.181  1.4165  2.0741  0.5789
  131OSM   H14B14046   2.398   5.173   6.007  1.1385 -1.2090 -0.8846
  131OSM   H14C14047   2.523   5.146   6.117  0.2310  0.3976 -1.6170
  131OSM    C1314048   2.270   4.945   6.051 -0.0921 -0.0392 -0.2926
  131OSM   H13A14049   2.223   4.989   5.964 -2.6165 -0.0329  1.0127
  131OSM   H13B14050   2.207   4.965   6.136 -0.8357  1.6033 -1.1739
  131OSM   H13C14051   2.257   4.838   6.054  0.7132 -0.1199  1.4987
  131OSM    C1214052   2.447   4.895   6.200 -0.4947 -0.3825  0.6868
  131OSM   H12A14053   2.427   4.791   6.176  1.4008 -0.0547 -3.0131
  131OSM   H12B14054   2.381   4.925   6.280 -1.4016  1.7500 -0.7676
  131OSM    C1114055   2.595   4.909   6.229  0.7338 -0.2398 -0.3325
  131OSM   H11A14056   2.595   4.889   6.338  1.9785 -1.7298 -0.5760
  131OSM   H11B14057   2.631   5.014   6.221  2.1989 -0.7591 -0.9984
  131OSM      P14058   2.695   4.673   6.167 -0.1945 -0.2688  0.2678
  131OSM    O1314059   2.560   4.617   6.140 -0.0449 -0.0170  0.5811
  131OSM    O1414060   2.808   4.621   6.089  0.7851 -0.7234 -0.7112
  131OSM    O1114061   2.733   4.654   6.320 -0.6211 -0.1177 -0.2136
  131OSM    O1214062   2.679   4.827   6.158 -0.7690 -0.3589  0.2252
  131OSM    C1S14063   2.850   4.722   6.367 -0.1722  0.6248  0.3356
  131OSM    H1S14064   2.864   4.811   6.303 -0.7355  0.1521 -0.4684
  131OSM    H1T14065   2.936   4.655   6.349 -1.9421 -2.0963  1.2660
  131OSM     NF14066   2.925   4.880   6.536 -0.2910  0.4431  0.1542
  131OSM    HNF14067   3.015   4.855   6.572 -1.0622  0.8597  2.5382
  131OSM    C2S14068   2.841   4.759   6.511  0.1342  0.5852  0.0318
  131OSM    H2S14069   2.734   4.776   6.535  0.3873 -1.2216  2.9924
  131OSM    C3S14070   2.878   4.629   6.596 -0.6203 -0.4092  0.5551
  131OSM    H3S14071   2.987   4.611   6.580 -0.9073 -0.0749 -2.3354
  131OSM     O314072   2.812   4.508   6.564 -0.3685 -0.0452 -0.4072
  131OSM    HO314073   2.765   4.529   6.483  2.5371 -3.2604 -3.3242
  131OSM    C4S14074   2.851   4.659   6.744 -0.5595 -0.0350  0.0347
  131OSM    H4S14075   2.746   4.666   6.776 -0.2609  1.3475  0.7885
  131OSM    C5S14076   2.945   4.663   6.842 -0.5499  0.2112  0.8052
  131OSM    H5S14077   3.049   4.643   6.812 -1.3069 -0.6490 -1.5084
  131OSM    C6S14078   2.915   4.688   6.986  0.7297 -0.0594  0.2191
  131OSM    H6S14079   2.926   4.593   7.044  2.1887  1.3134  2.3233
  131OSM    H6T14080   2.814   4.732   7.003  0.9304 -0.6955  3.9434
  131OSM    C7S14081   3.012   4.788   7.048 -0.3394  0.2372 -0.2136
  131OSM    H7S14082   3.007   4.885   6.995 -0.7021  1.5378  2.0701
  131OSM    H7T14083   3.116   4.749   7.039  0.1641  1.0998  1.4842
  131OSM    C8S14084   2.989   4.805   7.198  0.8142 -0.3650 -0.1931
  131OSM    H8S14085   3.038   4.722   7.253  0.4473 -0.9667 -0.7687
  131OSM    H8T14086   2.879   4.803   7.210  0.6692  1.8406 -0.7074
  131OSM    C9S14087   3.043   4.941   7.243 -0.6187 -0.3773  0.0644
  131OSM    H9S14088   3.008   5.025   7.179 -0.6561  0.8207  1.6001
  131OSM    H9T14089   3.154   4.934   7.239 -0.6610 -0.8146 -0.4070
  131OSM   C10S14090   2.989   4.987   7.382  0.0013 -0.2411 -0.0995
  131OSM   H10S14091   2.878   4.993   7.390  0.1638  1.2351  1.7115
  131OSM   H10T14092   3.032   5.081   7.422 -3.1975  1.2197  0.2467
  131OSM   C11S14093   3.021   4.883   7.493  0.7833  0.2779 -0.4004
  131OSM   H11S14094   3.132   4.872   7.501  0.8198 -0.1805 -1.3298
  131OSM   H11T14095   2.990   4.781   7.462  2.1121 -0.5939  0.9671
  131OSM   C12S14096   2.976   4.917   7.637  0.3877 -0.2568  0.3983
  131OSM   H12S14097   2.866   4.932   7.629  0.4491 -0.4850 -1.1341
  131OSM   H12T14098   3.024   5.011   7.672  0.9654 -0.5592  0.4248
  131OSM   C13S14099   3.019   4.812   7.742 -1.1157 -0.1879 -0.5885
  131OSM   H13S14100   3.130   4.812   7.746 -1.1064 -2.1420  1.1547
  131OSM   H13T14101   3.007   4.710   7.698  1.3899  0.0845 -2.1461
  131OSM   C14S14102   2.943   4.823   7.872 -0.0192  0.6546 -0.5874
  131OSM   H14S14103   2.910   4.724   7.908  0.1487  1.4624  1.9726
  131OSM   H14T14104   2.841   4.867   7.869 -0.3503  0.6624  3.9453
  131OSM   C15S14105   3.019   4.907   7.974 -0.9414  0.0705  0.2203
  131OSM   H15S14106   3.035   5.006   7.924  1.7148 -0.3898  0.0062
  131OSM   H15T14107   3.118   4.861   7.994 -1.1414 -0.0712  0.9296
  131OSM   C16S14108   2.957   4.948   8.113 -0.1031  0.2162 -0.8677
  131OSM   H16S14109   3.020   5.034   8.142  0.9606 -0.6751 -0.4865
  131OSM   H16T14110   2.963   4.863   8.183  1.6960  0.1852 -1.0146
  131OSM   C17S14111   2.821   5.020   8.101  0.1615 -0.2097  0.1187
  131OSM   H17S14112   2.763   5.004   8.195  1.5840  0.3702  1.1401
  131OSM   H17T14113   2.763   4.963   8.025  1.1201 -1.9854  0.6724
  131OSM   C18S14114   2.822   5.165   8.067  0.2861 -0.3837  0.5809
  131OSM   H18S14115   2.726   5.219   8.084  1.1224  1.6145 -0.7339
  131OSM   H18T14116   2.854   5.194   7.965  0.3492  0.8408  0.9335
  131OSM   H18U14117   2.887   5.227   8.132 -0.9204  0.7382  0.7572
  131OSM    C1F14118   2.903   5.004   6.508 -0.0238  0.3450 -0.1394
  131OSM     OF14119   2.789   5.031   6.463 -0.4332 -0.2346 -0.4853
  131OSM    C2F14120   3.013   5.102   6.507 -0.5328  0.1393  0.3309
  131OSM    H2F14121   2.979   5.197   6.461 -1.9638 -1.4201 -2.0439
  131OSM    H2G14122   3.088   5.066   6.433 -0.0876  0.6848  0.5098
  131OSM    C3F14123   3.077   5.118   6.648  0.2483 -0.4407  0.1448
  131OSM    H3F14124   3.172   5.174   6.642 -0.0772  0.0344 -0.6293
  131OSM    H3G14125   3.108   5.021   6.694  2.3966  0.3338  0.4254
  131OSM    C4F14126   3.000   5.204   6.748 -0.6652 -0.1541 -0.4836
  131OSM    H4F14127   2.911   5.139   6.766  0.1405 -0.5623  2.5446
  131OSM    H4G14128   2.973   5.299   6.698  0.4083  0.5786  0.3019
  131OSM    C5F14129   3.073   5.217   6.880 -0.0413  0.7010 -0.1132
  131OSM    H5F14130   3.107   5.119   6.921 -1.4625  0.1178 -0.2518
  131OSM    H5G14131   3.002   5.260   6.954  1.7264  0.1101  2.0499
  131OSM    C6F14132   3.189   5.312   6.874 -0.3981 -0.4582  0.3068
  131OSM    H6F14133   3.174   5.392   6.798  2.1384 -0.6862 -0.5335
  131OSM    H6G14134   3.276   5.253   6.837  0.0390  0.9033 -0.9320
  131OSM    C7F14135   3.236   5.383   7.005  1.0041 -0.2953  0.4209
  131OSM    H7F14136   3.148   5.416   7.065 -0.2646 -0.2459 -1.3700
  131OSM    H7G14137   3.284   5.479   6.979 -0.2500  0.0429 -0.8195
  131OSM    C8F14138   3.344   5.310   7.087  0.4966 -0.5137  0.5104
  131OSM    H8F14139   3.432   5.317   7.020 -0.0161 -1.1174 -0.2466
  131OSM    H8G14140   3.319   5.203   7.105  1.4947 -0.4413  2.6306
  131OSM    C9F14141   3.386   5.380   7.213 -0.4130  0.2034 -0.2618
  131OSM    H9F14142   3.438   5.476   7.199 -1.6818  1.2451  1.7034
  131OSM   C10F14143   3.369   5.333   7.336  0.1378  0.3535 -0.2407
  131OSM   H10F14144   3.413   5.391   7.419 -0.8262  0.2662  0.3390
  131OSM   C11F14145   3.305   5.197   7.377 -0.0043  0.1144  0.3430
  131OSM   H11F14146   3.229   5.177   7.298  0.6165  2.5058 -0.9483
  131OSM   H11G14147   3.252   5.217   7.472  0.4686 -0.1515  0.6714
  131OSM   C12F14148   3.395   5.070   7.379  0.0356 -0.5675  0.6500
  131OSM   H12F14149   3.471   5.078   7.298 -0.8562  2.0551 -0.0362
  131OSM   H12G14150   3.338   4.977   7.362  0.6026 -0.6637 -0.8854
  131OSM   C13F14151   3.476   5.045   7.506 -0.6101 -0.1266 -0.2633
  131OSM   H13F14152   3.394   4.994   7.562 -2.8879 -1.0684 -4.1213
  131OSM   H13G14153   3.526   5.132   7.555 -0.0719 -0.6119  0.0513
  131OSM   C14F14154   3.588   4.942   7.487  0.2837 -0.0333  0.5959
  131OSM   H14F14155   3.673   4.992   7.436  0.0165  2.1172  2.1634
  131OSM   H14G14156   3.550   4.867   7.413  1.1705 -0.3579  0.4582
  131OSM   C15F14157   3.643   4.888   7.615  0.4139 -0.4884 -0.4616
  131OSM   H15F14158   3.696   4.795   7.583 -0.1159 -0.4311 -1.5448
  131OSM   H15G14159   3.555   4.863   7.679  1.5106 -1.9163  0.5556
  131OSM   C16F14160   3.741   4.982   7.684  0.3691  0.3026 -0.2948
  131OSM   H16F14161   3.690   5.072   7.723  0.9257  0.5536 -0.1266
  131OSM   H16G14162   3.812   5.011   7.604  0.5900  1.0287  0.1504
  131OSM   C17F14163   3.832   4.923   7.793 -0.8407  0.7253 -0.4423
  131OSM   H17F14164   3.922   4.989   7.789 -0.6493  0.3913 -2.4934
  131OSM   H17G14165   3.857   4.822   7.755 -2.0030  1.2922 -2.9018
  131OSM   C18F14166   3.778   4.929   7.936  0.1383  0.0275  0.6857
  131OSM   H18F14167   3.678   4.888   7.960  0.8062 -0.3365  3.2407
  131OSM   H18G14168   3.757   5.036   7.957  2.0057  0.5374  0.1422
  131OSM   H18H14169   3.855   4.890   8.006 -0.1622  1.1389  1.6735
  132OSM      N14170   4.579   0.407   5.928  0.1418  0.5170 -0.9969
  132OSM    C1514171   4.580   0.379   5.784  0.9496 -0.5479  0.5738
  132OSM   H15A14172   4.543   0.287   5.742  0.2928  0.5463 -1.3469
  132OSM   H15B14173   4.684   0.373   5.754  0.2785 -1.8858 -1.7370
  132OSM   H15C14174   4.532   0.460   5.732 -0.2649 -2.8124 -2.0806
  132OSM    C1414175   4.621   0.551   5.946  0.2021  0.6491 -0.4371
  132OSM   H14A14176   4.544   0.617   5.909 -1.3100 -1.4554 -1.2563
  132OSM   H14B14177   4.718   0.575   5.903 -0.3187  0.9545 -1.4752
  132OSM   H14C14178   4.636   0.576   6.050 -2.3309  0.3243  0.0582
  132OSM    C1314179   4.433   0.386   5.975 -0.0589 -0.0827 -0.3278
  132OSM   H13A14180   4.429   0.386   6.083 -1.1317 -0.0920 -0.3572
  132OSM   H13B14181   4.401   0.284   5.956 -3.3162  0.9441 -0.9298
  132OSM   H13C14182   4.356   0.455   5.943  1.3142  1.8769  0.4232
  132OSM    C1214183   4.664   0.303   6.009 -0.2189 -0.4216 -0.1187
  132OSM   H12A14184   4.765   0.315   5.971 -0.6951 -1.2979 -1.7640
  132OSM   H12B14185   4.622   0.205   5.994 -1.5984 -0.1197  1.4600
  132OSM    C1114186   4.669   0.306   6.164 -0.1030  0.6840  0.2517
  132OSM   H11A14187   4.733   0.228   6.209  1.9506  2.2174  0.1568
  132OSM   H11B14188   4.566   0.283   6.197  0.2582  1.1925  1.8325
  132OSM      P14189   4.826   0.479   6.272  0.0804 -0.1017 -0.4020
  132OSM    O1314190   4.943   0.401   6.226  0.3582 -0.2716 -0.3661
  132OSM    O1414191   4.839   0.620   6.248  0.4182  0.0941 -0.0476
  132OSM    O1114192   4.810   0.451   6.425  0.2878 -0.4987 -0.2332
  132OSM    O1214193   4.691   0.435   6.211  0.0188  0.5359  0.7587
  132OSM    C1S14194   4.758   0.329   6.481  1.0766  0.1718 -0.1685
  132OSM    H1S14195   4.806   0.243   6.429  1.2728  0.4379 -0.4360
  132OSM    H1T14196   4.652   0.323   6.448  0.6369 -2.7127  1.4804
  132OSM     NF14197   4.702   0.173   6.664  0.5251 -0.2784  0.0765
  132OSM    HNF14198   4.608   0.174   6.697  0.3566 -2.6697 -0.2121
  132OSM    C2S14199   4.762   0.302   6.637 -0.4084  0.3705  0.1785
  132OSM    H2S14200   4.871   0.296   6.656 -0.6082 -2.3950  0.8056
  132OSM    C3S14201   4.701   0.417   6.721 -0.5458  0.2512 -0.2174
  132OSM    H3S14202   4.591   0.416   6.706 -0.5319 -0.2238 -0.3091
  132OSM     O314203   4.740   0.543   6.671 -0.4219 -0.5627  0.4128
  132OSM    HO314204   4.773   0.519   6.584 -0.7174 -1.2768  0.4926
  132OSM    C4S14205   4.721   0.415   6.863 -0.1412 -0.5534 -0.0974
  132OSM    H4S14206   4.826   0.425   6.895  0.1288 -4.6274  0.8472
  132OSM    C5S14207   4.618   0.402   6.956 -0.1602 -0.9059  0.1027
  132OSM    H5S14208   4.512   0.408   6.927 -0.0627 -2.9741 -0.8472
  132OSM    C6S14209   4.632   0.397   7.105  0.0588  0.3463  0.7682
  132OSM    H6S14210   4.585   0.484   7.154  2.6242  1.6731  1.0644
  132OSM    H6T14211   4.741   0.411   7.122  0.2321  0.0589 -0.0660
  132OSM    C7S14212   4.585   0.273   7.177  0.3105  0.4001  0.1349
  132OSM    H7S14213   4.604   0.187   7.108 -0.4326 -0.2685  0.7356
  132OSM    H7T14214   4.478   0.288   7.203 -0.1890 -0.5663 -1.2332
  132OSM    C8S14215   4.654   0.260   7.306 -0.4506 -0.0212  0.2195
  132OSM    H8S14216   4.750   0.316   7.305 -0.4229 -0.0428 -1.0489
  132OSM    H8T14217   4.689   0.155   7.314  1.3808  0.4607 -0.6984
  132OSM    C9S14218   4.573   0.302   7.427 -0.0285  0.4855 -0.2406
  132OSM    H9S14219   4.499   0.219   7.432 -0.9969  1.1242 -2.7497
  132OSM    H9T14220   4.512   0.393   7.411  1.3111  1.9090  2.1205
  132OSM   C10S14221   4.659   0.310   7.553  0.9838 -0.1248  0.9319
  132OSM   H10S14222   4.734   0.390   7.570  0.5183  0.0960  2.0600
  132OSM   H10T14223   4.706   0.210   7.562  0.6507 -0.1486  3.0938
  132OSM   C11S14224   4.568   0.325   7.671 -0.6536  0.3179  0.2337
  132OSM   H11S14225   4.479   0.259   7.674 -1.8672  1.8710 -0.0973
  132OSM   H11T14226   4.513   0.422   7.675 -0.0067  0.7742 -1.3086
  132OSM   C12S14227   4.652   0.310   7.798 -0.1472 -0.8494  0.3310
  132OSM   H12S14228   4.727   0.391   7.781 -1.2043 -0.1339 -1.0913
  132OSM   H12T14229   4.712   0.217   7.802  1.4734  0.0156 -1.7967
  132OSM   C13S14230   4.568   0.339   7.927 -0.0652 -0.6455  0.5383
  132OSM   H13S14231   4.481   0.270   7.929 -0.8990  0.3274  3.8762
  132OSM   H13T14232   4.521   0.438   7.909  0.4275 -0.4852  0.1070
  132OSM   C14S14233   4.637   0.354   8.056 -0.5187  0.1937 -0.4555
  132OSM   H14S14234   4.574   0.410   8.129 -1.3101 -0.5949 -0.5097
  132OSM   H14T14235   4.725   0.420   8.043 -1.0900  1.3791  1.2313
  132OSM   C15S14236   4.665   0.207   8.116  0.2575 -1.0533 -0.6870
  132OSM   H15S14237   4.764   0.168   8.082  0.8101 -0.9446  0.6968
  132OSM   H15T14238   4.584   0.145   8.074 -0.9495  0.3062 -0.4374
  132OSM   C16S14239   4.645   0.204   8.269  0.5132  0.0877 -0.2639
  132OSM   H16S14240   4.668   0.109   8.321  2.2221  0.4395 -0.3348
  132OSM   H16T14241   4.539   0.221   8.299  0.8099 -0.3773  1.1572
  132OSM   C17S14242   4.728   0.310   8.346 -0.5418  0.0419  0.6584
  132OSM   H17S14243   4.733   0.402   8.285 -3.2904  2.4253  3.6345
  132OSM   H17T14244   4.830   0.272   8.366 -0.5923  0.1540  1.1544
  132OSM   C18S14245   4.660   0.341   8.484 -0.0170 -0.1951 -0.8200
  132OSM   H18S14246   4.583   0.421   8.483  1.1048  0.9197 -1.3710
  132OSM   H18T14247   4.737   0.388   8.548 -0.7335  1.0091 -0.8006
  132OSM   H18U14248   4.631   0.246   8.534  1.1842 -0.2182 -0.1376
  132OSM    C1F14249   4.760   0.055   6.626 -0.3367  0.2191 -0.0500
  132OSM     OF14250   4.873   0.042   6.573  0.0786  0.2886 -0.0451
  132OSM    C2F14251   4.686  -0.070   6.642 -0.0354  0.1067 -0.0524
  132OSM    H2F14252   4.703  -0.135   6.553  1.6727 -0.3361  0.5540
  132OSM    H2G14253   4.576  -0.055   6.645  0.0833  0.8824  0.6714
  132OSM    C3F14254   4.740  -0.152   6.768 -0.1033 -0.4914  0.2343
  132OSM    H3F14255   4.851  -0.154   6.756 -0.0499 -0.5109  0.7324
  132OSM    H3G14256   4.698  -0.254   6.759  1.9694 -1.4188  0.5848
  132OSM    C4F14257   4.698  -0.078   6.898 -0.2725 -0.4607  0.4301
  132OSM    H4F14258   4.587  -0.079   6.897 -0.2833  0.2932 -0.2545
  132OSM    H4G14259   4.736   0.027   6.895 -0.9547 -0.2022  0.5216
  132OSM    C5F14260   4.758  -0.151   7.016 -0.1952 -0.8924  0.3854
  132OSM    H5F14261   4.868  -0.162   7.001 -0.1873 -1.1072  0.6018
  132OSM    H5G14262   4.716  -0.253   7.017  1.4157 -1.5866 -0.0421
  132OSM    C6F14263   4.759  -0.072   7.142  1.1720 -0.1054 -0.4451
  132OSM    H6F14264   4.653  -0.048   7.166  0.6998 -2.9321  0.6312
  132OSM    H6G14265   4.794   0.030   7.114 -1.2679  0.2960 -2.4118
  132OSM    C7F14266   4.833  -0.141   7.262  0.4999 -0.2775  0.0086
  132OSM    H7F14267   4.941  -0.114   7.255  0.3886 -0.3425 -2.5892
  132OSM    H7G14268   4.836  -0.249   7.239 -3.1497 -0.6453  0.6811
  132OSM    C8F14269   4.785  -0.111   7.408  0.4157  0.1953 -0.0369
  132OSM    H8F14270   4.786  -0.001   7.423 -2.0169  0.3771 -0.8759
  132OSM    H8G14271   4.850  -0.152   7.489  0.3563  1.5742  0.7371
  132OSM    C9F14272   4.639  -0.165   7.423 -0.5011  0.1319 -0.4826
  132OSM    H9F14273   4.601  -0.192   7.323  0.0155 -0.5914 -0.4883
  132OSM   C10F14274   4.552  -0.165   7.525  0.4207  0.3585 -0.3113
  132OSM   H10F14275   4.453  -0.212   7.516  0.7239 -0.7457  1.4916
  132OSM   C11F14276   4.577  -0.106   7.660  0.8477 -0.6697  0.7357
  132OSM   H11F14277   4.494  -0.039   7.689  0.5073  0.4446 -2.4436
  132OSM   H11G14278   4.658  -0.030   7.647 -2.0335  2.2877 -1.4482
  132OSM   C12F14279   4.591  -0.213   7.771 -0.1965 -0.7350 -0.3952
  132OSM   H12F14280   4.689  -0.258   7.744  0.6389  1.5700 -1.4980
  132OSM   H12G14281   4.507  -0.286   7.771  0.1514 -1.1506  0.8877
  132OSM   C13F14282   4.603  -0.145   7.904  0.4117 -0.3120  0.1891
  132OSM   H13F14283   4.524  -0.068   7.914  0.8321 -0.1543  3.2357
  132OSM   H13G14284   4.693  -0.090   7.938  0.1286 -0.9659  2.1221
  132OSM   C14F14285   4.578  -0.243   8.014 -0.1739 -0.0742 -0.4707
  132OSM   H14F14286   4.502  -0.323   7.997 -0.6850  0.4351 -0.5823
  132OSM   H14G14287   4.546  -0.185   8.103 -1.1202  0.1455 -0.9417
  132OSM   C15F14288   4.708  -0.309   8.071 -0.6246  0.1569  0.3721
  132OSM   H15F14289   4.779  -0.232   8.109 -1.2660  0.3586  1.1863
  132OSM   H15G14290   4.756  -0.362   7.985 -1.1084 -0.3278  0.3972
  132OSM   C16F14291   4.696  -0.413   8.187 -0.4533 -0.5395  0.0159
  132OSM   H16F14292   4.630  -0.497   8.158  2.7896 -2.4694 -2.5363
  132OSM   H16G14293   4.645  -0.353   8.266  0.2071 -0.6654  0.5496
  132OSM   C17F14294   4.836  -0.463   8.237  0.0133 -0.9045 -0.5975
  132OSM   H17F14295   4.910  -0.428   8.162  1.2873 -0.8710  0.6308
  132OSM   H17G14296   4.825  -0.574   8.242 -0.5470 -0.9344 -2.0920
  132OSM   C18F14297   4.881  -0.407   8.376 -0.2407 -0.3188 -0.4214
  132OSM   H18F14298   4.984  -0.438   8.402  0.1968  1.3107 -0.1385
  132OSM   H18G14299   4.809  -0.430   8.458 -0.0013 -2.5843 -0.7700
  132OSM   H18H14300   4.893  -0.297   8.376  0.4860 -0.3885 -1.0883
  133SAPE     N14301   0.971   5.589  10.664  0.0325 -0.1367 -1.0831
  133SAPE   HN114302   0.887   5.591  10.725  1.3002 -1.1763  0.8140
  133SAPE   HN214303   0.998   5.493  10.632 -0.1018 -0.3786 -0.4877
  133SAPE   HN314304   1.045   5.612  10.734 -2.0020  0.4116  1.0121
  133SAPE   C1214305   0.963   5.682  10.539 -0.1742 -0.5085  0.1936
  133SAPE  H12A14306   0.889   5.642  10.466  0.9747 -1.1390 -0.6646
  133SAPE  H12B14307   1.057   5.694  10.482 -1.4663  1.7454 -1.6314
  133SAPE   C1114308   0.923   5.817  10.586 -0.4332 -0.2172  0.0175
  133SAPE  H11A14309   0.900   5.881  10.498 -0.5605 -0.9794 -0.5194
  133SAPE  H11B14310   1.008   5.873  10.630 -0.6918  0.3603 -0.2111
  133SAPE     P14311   0.720   5.937  10.707  0.2251  0.3395  0.1432
  133SAPE   O1314312   0.594   5.895  10.774  0.0725  0.9845 -0.4223
  133SAPE   O1414313   0.804   6.040  10.770  0.4207 -0.0094  0.4424
  133SAPE   O1214314   0.814   5.807  10.670  0.2639 -0.0914  0.5036
  133SAPE   O1114315   0.688   6.002  10.563  0.2890 -0.7666 -0.3994
  133SAPE    C114316   0.567   5.979  10.498 -0.1971 -0.5081  0.0408
  133SAPE    HA14317   0.487   5.932  10.558  0.0829 -1.0423 -0.0013
  133SAPE    HB14318   0.516   6.075  10.474  1.2319  0.0765 -0.8175
  133SAPE    C214319   0.592   5.889  10.372 -0.3883  0.1908 -0.2534
  133SAPE    HS14320   0.613   5.787  10.412  0.3068  0.2924 -0.3417
  133SAPE   O2114321   0.712   5.940  10.299  0.0233 -0.3721 -0.1454
  133SAPE   C2114322   0.793   5.853  10.246  0.0711  0.4218  0.4684
  133SAPE   O2214323   0.796   5.731  10.269 -0.0484 -0.2466  0.0570
  133SAPE   C2214324   0.908   5.921  10.169  0.8037  0.1593  0.2773
  133SAPE   H2R14325   0.859   6.001  10.109 -1.7711 -1.7894 -0.4079
  133SAPE   H2S14326   0.972   5.978  10.240  1.2229 -1.5728  1.3375
  133SAPE    C314327   0.471   5.885  10.273  0.4164 -0.6662 -0.0191
  133SAPE    HX14328   0.450   5.993  10.256 -2.0428 -0.9545  0.8218
  133SAPE    HY14329   0.377   5.859  10.326  1.1236 -0.1900  1.5422
  133SAPE   O3114330   0.496   5.813  10.154  0.0931  0.4945 -0.1288
  133SAPE   C3114331   0.495   5.676  10.178  0.3813 -0.4618 -0.1977
  133SAPE   O3214332   0.453   5.629  10.281  0.4959 -0.5156 -0.4179
  133SAPE   C3214333   0.532   5.596  10.050  0.7732 -0.6961 -0.1486
  133SAPE   H2X14334   0.480   5.498  10.057 -0.2407 -0.2369 -1.1046
  133SAPE   H2Y14335   0.638   5.581  10.080  0.4401 -0.1921  1.3590
  133SAPE   C2314336   0.977   5.829  10.072 -0.3242 -0.3120  0.3345
  133SAPE   H3R14337   0.906   5.786   9.998  1.2008 -0.7549 -0.9354
  133SAPE   H3S14338   1.018   5.740  10.124  1.3614  0.7677  0.9166
  133SAPE   C2414339   1.092   5.888   9.987  0.0273  0.5624 -0.8692
  133SAPE   H4R14340   1.140   5.815   9.919 -0.2231 -1.8124  1.3228
  133SAPE   H4S14341   1.159   5.935  10.062 -2.3946  1.8612  0.6187
  133SAPE   C2514342   1.039   5.997   9.905  0.3318 -0.5976  0.1902
  133SAPE   H5R14343   0.991   6.081   9.958  1.1017  2.0898 -2.9954
  133SAPE   C2614344   1.032   6.017   9.765 -0.2804  0.0214  0.6361
  133SAPE   H6R14345   0.996   6.117   9.738 -0.0509  0.0186  0.3166
  133SAPE   C2714346   1.092   5.924   9.664  0.5830  1.0032  0.6350
  133SAPE   H7R14347   1.146   5.844   9.719 -1.6252 -1.4139 -0.4549
  133SAPE   H7S14348   1.172   5.973   9.604  0.3044  0.4166 -0.2442
  133SAPE   C2814349   0.989   5.853   9.566 -0.0796  0.6532  0.7240
  133SAPE   H8R14350   0.900   5.807   9.610  0.8191 -2.3949 -0.3697
  133SAPE   C2914351   1.005   5.847   9.429 -1.1246  0.2734 -0.0079
  133SAPE   H9R14352   0.923   5.816   9.363  0.6468 -0.8838 -1.7692
  133SAPE  C21014353   1.120   5.898   9.355 -1.1347  0.3594 -0.4065
  133SAPE  H10R14354   1.203   5.911   9.427 -1.4467  1.3112 -0.2072
  133SAPE  H10S14355   1.096   6.001   9.322  3.3490  1.7268  0.0882
  133SAPE  C21114356   1.153   5.798   9.242 -0.2590 -0.6453  0.0584
  133SAPE  H11R14357   1.223   5.718   9.269 -2.8066 -1.9052  3.6317
  133SAPE  C21214358   1.114   5.805   9.115 -0.2786 -0.1025 -0.0931
  133SAPE  H12R14359   1.137   5.723   9.046 -1.4460  0.1681 -0.8434
  133SAPE  C21314360   1.031   5.917   9.053  0.3413 -0.4350 -0.3632
  133SAPE  H13R14361   1.098   6.005   9.038 -1.3136  1.5118  2.7621
  133SAPE  H13S14362   0.956   5.963   9.120  0.7015  0.1436 -0.3467
  133SAPE  C21414363   0.965   5.882   8.923 -0.0769  0.0026 -0.1158
  133SAPE  H14R14364   0.855   5.890   8.928 -0.1450 -0.8371 -0.1775
  133SAPE  C21514365   1.022   5.857   8.806 -0.3354  1.1032 -0.7211
  133SAPE  H15R14366   0.948   5.833   8.728 -0.2531 -2.3715  0.0913
  133SAPE  C21614367   1.160   5.857   8.770 -0.2691 -0.4827 -0.4591
  133SAPE  H16R14368   1.224   5.839   8.859 -0.3477 -2.6121 -0.7754
  133SAPE  H16S14369   1.184   5.953   8.719  2.4142  0.4401  2.2025
  133SAPE  C21714370   1.198   5.749   8.665  0.0767  0.2139 -1.0457
  133SAPE  H17R14371   1.141   5.769   8.571 -0.1096  2.2398 -0.5485
  133SAPE  H17S14372   1.164   5.646   8.688  0.9221  0.0171 -0.6171
  133SAPE  C21814373   1.346   5.742   8.633 -0.3357  0.5527  0.1967
  133SAPE  H18R14374   1.391   5.693   8.722  1.5198  0.1241 -0.9072
  133SAPE  H18S14375   1.395   5.842   8.635 -0.4848  0.6196  1.3085
  133SAPE  C21914376   1.368   5.658   8.502  0.7448 -0.8323  0.2000
  133SAPE  H19R14377   1.298   5.699   8.426 -1.1836  0.2089  2.4186
  133SAPE  H19S14378   1.332   5.556   8.529 -1.0086 -0.2722  0.0874
  133SAPE  C22014379   1.509   5.650   8.447  0.0855  0.9678 -0.0642
  133SAPE  H20R14380   1.515   5.575   8.365 -1.0281  1.5469 -0.7008
  133SAPE  H20S14381   1.568   5.612   8.533 -3.3953 -2.5960  1.0555
  133SAPE  H20T14382   1.547   5.741   8.396 -1.2445  0.7203 -1.5807
  133SAPE   C3314383   0.519   5.662   9.913 -0.5719  0.1481 -0.0633
  133SAPE   H3X14384   0.583   5.753   9.918  0.1922 -0.4378  1.6470
  133SAPE   H3Y14385   0.412   5.684   9.894 -0.4895  1.8081  1.2490
  133SAPE   C3414386   0.574   5.561   9.801  0.7819 -0.3346 -0.1311
  133SAPE   H4X14387   0.503   5.476   9.805  0.9435 -0.4542  0.4467
  133SAPE   H4Y14388   0.672   5.515   9.831 -0.0480 -0.5205  2.5882
  133SAPE   C3514389   0.583   5.616   9.667 -0.5106 -1.0854 -0.4055
  133SAPE   H5X14390   0.645   5.708   9.677 -1.4391 -0.5058  0.1310
  133SAPE   H5Y14391   0.483   5.641   9.626 -0.4407 -2.3328 -1.3982
  133SAPE   C3614392   0.662   5.521   9.569  0.6440  0.3119  0.3955
  133SAPE   H6X14393   0.630   5.420   9.602 -2.8405  1.4512  0.9428
  133SAPE   H6Y14394   0.773   5.532   9.568  0.9410 -2.0845  1.4352
  133SAPE   C3714395   0.607   5.551   9.427  0.0524 -0.1248 -0.3328
  133SAPE   H7X14396   0.497   5.535   9.417  0.0244 -0.5447  0.5344
  133SAPE   H7Y14397   0.645   5.473   9.359 -0.9589  2.8306 -4.7127
  133SAPE   C3814398   0.657   5.685   9.365 -0.4623 -0.1445  0.3219
  133SAPE   H8X14399   0.767   5.697   9.375 -0.3364  0.3262 -1.2972
  133SAPE   H8Y14400   0.610   5.772   9.416 -0.0016 -0.5818  1.5156
  133SAPE   C3914401   0.644   5.680   9.203 -0.0811 -0.2747 -0.4608
  133SAPE   H9X14402   0.685   5.583   9.167  2.3973  0.1948  0.8936
  133SAPE   H9Y14403   0.707   5.764   9.168  2.8481 -1.5348  1.3295
  133SAPE  C31014404   0.503   5.666   9.156  0.6989  0.8096  0.0679
  133SAPE  H10X14405   0.442   5.753   9.190 -1.3871 -0.7529  0.4677
  133SAPE  H10Y14406   0.457   5.575   9.199  1.6757  0.1903 -0.1560
  133SAPE  C31114407   0.496   5.665   9.006  0.1021 -0.3415  0.7194
  133SAPE  H11X14408   0.540   5.573   8.961 -2.5777 -1.8023  0.8537
  133SAPE  H11Y14409   0.549   5.747   8.953 -0.8611 -0.1770 -0.0186
  133SAPE  C31214410   0.350   5.667   8.959 -0.4136  0.2182  0.2365
  133SAPE  H12X14411   0.307   5.761   9.002 -1.1040 -0.2717  0.6482
  133SAPE  H12Y14412   0.286   5.583   8.993  1.3221 -1.6481 -0.9222
  133SAPE  C31314413   0.336   5.676   8.801 -0.5563 -0.1091 -0.5305
  133SAPE  H13X14414   0.345   5.571   8.767  0.3304  0.3457 -1.7668
  133SAPE  H13Y14415   0.416   5.729   8.745 -0.2204 -1.3795 -1.2840
  133SAPE  C31414416   0.193   5.718   8.755  0.0945  0.2754  0.1341
  133SAPE  H14X14417   0.194   5.829   8.757 -0.9544  0.3260 -0.8822
  133SAPE  H14Y14418   0.109   5.701   8.825 -1.2529  1.5452 -1.0863
  133SAPE  C31514419   0.142   5.660   8.623  0.2295 -0.5584  0.3730
  133SAPE  H15X14420   0.104   5.555   8.631  1.3910 -1.1791 -1.5229
  133SAPE  H15Y14421   0.223   5.648   8.548 -2.1734 -3.3512 -2.0823
  133SAPE  C31614422   0.032   5.749   8.561 -0.4761  0.6180 -0.5614
  133SAPE  H16X14423   0.060   5.854   8.582 -2.3441  1.0618 -0.0701
  133SAPE  H16Y14424  -0.061   5.729   8.619 -1.2507  0.4854 -1.7974
  133SAPE  C31714425   0.007   5.724   8.416  0.0849  0.0491 -0.6784
  133SAPE  H17X14426  -0.022   5.619   8.397 -1.9854  0.2443  0.9828
  133SAPE  H17Y14427   0.083   5.772   8.351  1.5983 -0.2084  0.8460
  133SAPE  C31814428  -0.119   5.806   8.383  0.2802  0.4095  0.7150
  133SAPE  H18X14429  -0.187   5.812   8.471 -2.7814  3.0156 -1.5853
  133SAPE  H18Y14430  -0.174   5.771   8.294  1.3109 -0.0744  0.2557
  133SAPE  H18Z14431  -0.079   5.908   8.363 -0.8824  0.6464 -0.4846
  134SAPE     N14432   2.364   0.602  10.376 -0.2438  0.1685  0.4556
  134SAPE   HN114433   2.289   0.535  10.350  1.1622 -0.9362 -0.9189
  134SAPE   HN214434   2.321   0.667  10.445 -0.2021  1.4769 -0.7078
  134SAPE   HN314435   2.392   0.648  10.287 -1.6000 -0.3113 -0.2500
  134SAPE   C1214436   2.469   0.530  10.449  0.4601  0.7854 -0.4689
  134SAPE  H12A14437   2.426   0.475  10.535  1.6028  0.5998  0.0046
  134SAPE  H12B14438   2.538   0.608  10.488 -1.2085  1.8879  0.4543
  134SAPE   C1114439   2.548   0.426  10.362 -0.0126  0.2584  0.7349
  134SAPE  H11A14440   2.604   0.474  10.279  1.2149 -0.6092  1.0423
  134SAPE  H11B14441   2.472   0.364  10.310  1.4930 -0.0388 -1.2072
  134SAPE     P14442   2.585   0.210  10.510 -0.1263  0.2640 -0.3704
  134SAPE   O1314443   2.703   0.131  10.529 -0.4703 -0.6129 -0.5402
  134SAPE   O1414444   2.500   0.239  10.633 -0.2013 -0.0644 -0.1171
  134SAPE   O1214445   2.628   0.348  10.450  0.2669  0.4733  0.2750
  134SAPE   O1114446   2.488   0.150  10.404  0.5599 -0.2812  0.0742
  134SAPE    C114447   2.528   0.066  10.296 -0.0837  0.7024 -0.2957
  134SAPE    HA14448   2.630   0.027  10.315 -0.4551  1.0175  2.9148
  134SAPE    HB14449   2.454  -0.017  10.305  1.6445 -0.8275  0.4009
  134SAPE    C214450   2.493   0.116  10.154 -0.1692 -0.3695  0.4038
  134SAPE    HS14451   2.503   0.030  10.084 -0.9386 -0.2981  0.1916
  134SAPE   O2114452   2.578   0.228  10.112  0.1004 -0.0257 -0.9581
  134SAPE   C2114453   2.710   0.192  10.106  0.2979  0.9082  0.3038
  134SAPE   O2214454   2.747   0.074  10.100  0.6745 -0.0485  0.2366
  134SAPE   C2214455   2.801   0.313  10.119 -0.0648 -0.1388 -0.6609
  134SAPE   H2R14456   2.792   0.344  10.225 -1.7449 -0.4988 -0.6788
  134SAPE   H2S14457   2.907   0.286  10.099 -0.0752 -2.1753  1.6570
  134SAPE    C314458   2.345   0.168  10.147 -0.2449  0.0288 -0.0429
  134SAPE    HX14459   2.331   0.245  10.226  0.7808  0.9540 -0.7404
  134SAPE    HY14460   2.272   0.089  10.174  0.6940 -0.1913  2.1174
  134SAPE   O3114461   2.308   0.209  10.011  0.5686 -0.4083  0.3168
  134SAPE   C3114462   2.292   0.342   9.994  0.7592 -0.2491 -0.5179
  134SAPE   O3214463   2.302   0.425  10.081  0.2900  0.7713 -0.0212
  134SAPE   C3214464   2.265   0.371   9.845  0.5164  0.2029  0.8260
  134SAPE   H2X14465   2.161   0.403   9.826  0.4433 -1.0874 -1.1829
  134SAPE   H2Y14466   2.277   0.281   9.781 -0.4175  0.3410  0.4354
  134SAPE   C2314467   2.765   0.435  10.027  0.0246 -0.8469 -0.0557
  134SAPE   H3R14468   2.845   0.512  10.035  0.0737 -0.9109  0.0682
  134SAPE   H3S14469   2.670   0.480  10.062  1.2656  3.0069 -1.1834
  134SAPE   C2414470   2.730   0.397   9.873 -0.7126  0.1266 -0.0611
  134SAPE   H4R14471   2.699   0.487   9.817 -2.5011 -1.4221 -1.7130
  134SAPE   H4S14472   2.636   0.341   9.853 -1.8518  1.2957  1.7680
  134SAPE   C2514473   2.849   0.324   9.810 -0.1957 -0.4162  1.0240
  134SAPE   H5R14474   2.912   0.260   9.874  2.4464 -0.2516 -1.2509
  134SAPE   C2614475   2.872   0.318   9.674  0.1721 -0.0145 -0.5039
  134SAPE   H6R14476   2.960   0.258   9.643  0.3626 -0.5246  0.9683
  134SAPE   C2714477   2.791   0.383   9.564  0.1924 -0.1700 -0.7455
  134SAPE   H7R14478   2.833   0.485   9.556 -0.6813  0.1649 -1.1825
  134SAPE   H7S14479   2.692   0.403   9.611 -0.1134 -0.2345 -1.3602
  134SAPE   C2814480   2.771   0.310   9.436 -0.4222  0.0464 -0.5478
  134SAPE   H8R14481   2.674   0.260   9.425 -1.1765  1.5545 -0.9665
  134SAPE   C2914482   2.854   0.321   9.332  0.7851 -0.2171 -0.1563
  134SAPE   H9R14483   2.821   0.259   9.247 -2.6455  1.8140 -0.4941
  134SAPE  C21014484   2.988   0.396   9.323  0.4638 -0.2252 -0.4238
  134SAPE  H10R14485   3.040   0.368   9.229 -2.0026 -0.7433 -1.7391
  134SAPE  H10S14486   3.050   0.355   9.405 -0.3014 -0.4354  0.0605
  134SAPE  C21114487   2.972   0.554   9.323 -0.6098 -0.1060  0.4439
  134SAPE  H11R14488   2.890   0.592   9.385  1.2524  2.1354  1.7191
  134SAPE  C21214489   3.032   0.644   9.240  0.3790  0.0723 -0.1581
  134SAPE  H12R14490   3.000   0.749   9.240 -1.3398 -0.3796 -1.7891
  134SAPE  C21314491   3.123   0.612   9.123 -0.4592 -0.4970  0.0445
  134SAPE  H13R14492   3.185   0.523   9.148  1.2731  0.3813 -0.9609
  134SAPE  H13S14493   3.196   0.694   9.106 -1.7316  0.7624  0.5154
  134SAPE  C21414494   3.058   0.567   8.991  0.1844 -0.2572 -0.0395
  134SAPE  H14R14495   3.054   0.458   8.984  0.1325 -0.1621 -1.9272
  134SAPE  C21514496   3.015   0.649   8.894 -0.2548 -0.0018 -0.1078
  134SAPE  H15R14497   2.954   0.609   8.811 -0.6003 -0.7941  0.5128
  134SAPE  C21614498   3.017   0.801   8.881 -0.3609  0.1708  0.9248
  134SAPE  H16R14499   3.020   0.846   8.982 -0.0029  1.1022  0.5072
  134SAPE  H16S14500   2.925   0.836   8.830  0.1269  0.2383  0.0700
  134SAPE  C21714501   3.126   0.857   8.791  0.0391 -0.1059 -0.3985
  134SAPE  H17R14502   3.230   0.857   8.829 -0.2185  3.0503  0.6035
  134SAPE  H17S14503   3.108   0.967   8.794  1.5896  0.2558 -2.1287
  134SAPE  C21814504   3.111   0.809   8.648  0.1660  0.4824 -0.0497
  134SAPE  H18R14505   3.002   0.791   8.634  0.3356 -1.4737  0.7633
  134SAPE  H18S14506   3.161   0.710   8.647  0.0727  0.4375 -0.3988
  134SAPE  C21914507   3.161   0.908   8.541 -0.2835  0.6429 -0.2973
  134SAPE  H19R14508   3.267   0.931   8.564 -0.0226 -1.2538  0.6621
  134SAPE  H19S14509   3.100   0.999   8.557  1.2160  1.0479  4.5843
  134SAPE  C22014510   3.143   0.862   8.398 -0.9426 -0.2419 -0.1772
  134SAPE  H20R14511   3.173   0.757   8.376  2.5835  0.3127  1.1956
  134SAPE  H20S14512   3.200   0.926   8.327 -1.1186 -1.6783 -1.6753
  134SAPE  H20T14513   3.038   0.887   8.376 -1.4320 -1.1580  0.9690
  134SAPE   C3314514   2.358   0.478   9.783 -0.4173  0.0687  0.2655
  134SAPE   H3X14515   2.461   0.477   9.826 -0.3060  0.5197  0.0215
  134SAPE   H3Y14516   2.320   0.581   9.803 -1.9585 -0.3283 -0.4670
  134SAPE   C3414517   2.366   0.458   9.630 -0.6394 -0.1755  0.5141
  134SAPE   H4X14518   2.267   0.440   9.584 -1.2727  3.6170  0.1198
  134SAPE   H4Y14519   2.427   0.366   9.613 -1.0585 -0.4265  0.3593
  134SAPE   C3514520   2.440   0.580   9.567  0.2448 -0.0119  0.3839
  134SAPE   H5X14521   2.529   0.597   9.631  0.9021  1.6407 -0.8885
  134SAPE   H5Y14522   2.371   0.667   9.571 -0.4627 -0.4259 -1.5581
  134SAPE   C3614523   2.480   0.567   9.420 -0.3107  0.5643  0.2870
  134SAPE   H6X14524   2.530   0.470   9.399  3.9221  2.7881 -1.0694
  134SAPE   H6Y14525   2.560   0.640   9.394  0.0356 -0.0673 -0.4593
  134SAPE   C3714526   2.368   0.574   9.315 -0.7863 -0.3782  0.0709
  134SAPE   H7X14527   2.305   0.665   9.327  0.4213  0.4776  0.1688
  134SAPE   H7Y14528   2.300   0.488   9.333  3.1158 -3.4746  1.6263
  134SAPE   C3814529   2.419   0.575   9.167  0.2827 -0.0682 -0.7872
  134SAPE   H8X14530   2.465   0.477   9.143 -0.2574 -0.1240 -1.6499
  134SAPE   H8Y14531   2.498   0.653   9.162 -1.0988  1.4056 -0.3718
  134SAPE   C3914532   2.311   0.617   9.065  0.3017 -0.1453  0.2705
  134SAPE   H9X14533   2.294   0.725   9.082  0.9833 -0.2879  2.0312
  134SAPE   H9Y14534   2.219   0.557   9.077 -0.9106  1.3443 -1.0341
  134SAPE  C31014535   2.347   0.599   8.917  0.0333  0.0955  0.1696
  134SAPE  H10X14536   2.312   0.503   8.875  0.7532 -1.0932  2.1442
  134SAPE  H10Y14537   2.455   0.617   8.901  0.0449  0.0175  0.1641
  134SAPE  C31114538   2.266   0.708   8.836  0.1600  0.0536 -0.0546
  134SAPE  H11X14539   2.291   0.809   8.875 -0.9362 -0.9623  3.6572
  134SAPE  H11Y14540   2.156   0.701   8.847  0.3065 -0.3836  1.2601
  134SAPE  C31214541   2.282   0.695   8.690 -0.3118  0.4639 -0.2555
  134SAPE  H12X14542   2.236   0.597   8.666  1.2452 -0.9653  2.2238
  134SAPE  H12Y14543   2.392   0.689   8.672  0.3361  0.2833  3.1802
  134SAPE  C31314544   2.225   0.809   8.602 -0.1654 -0.5491 -0.6079
  134SAPE  H13X14545   2.262   0.910   8.630 -2.8748  0.9209 -1.9096
  134SAPE  H13Y14546   2.115   0.820   8.613 -0.1631 -0.3890 -0.7435
  134SAPE  C31414547   2.262   0.781   8.451  0.3934  0.0855 -0.4475
  134SAPE  H14X14548   2.205   0.859   8.396 -3.3998 -0.3087  2.5334
  134SAPE  H14Y14549   2.230   0.682   8.413 -0.6144  0.9969 -2.0589
  134SAPE  C31514550   2.416   0.788   8.418  0.9544  0.2058  0.5424
  134SAPE  H15X14551   2.457   0.686   8.402  1.6823  0.7204 -0.9830
  134SAPE  H15Y14552   2.475   0.831   8.502  0.5941 -0.0923  0.9544
  134SAPE  C31614553   2.444   0.865   8.281 -0.3068 -0.0769 -0.0552
  134SAPE  H16X14554   2.405   0.806   8.195 -0.4204 -0.7557  0.4570
  134SAPE  H16Y14555   2.555   0.860   8.275 -0.2513 -0.3301  1.0153
  134SAPE  C31714556   2.420   1.016   8.280  0.9589  0.6660 -0.1542
  134SAPE  H17X14557   2.438   1.051   8.385  1.7363 -1.4297  0.4613
  134SAPE  H17Y14558   2.311   1.029   8.271  1.0961  1.1579 -1.2485
  134SAPE  C31814559   2.492   1.100   8.175  0.0570  0.3588  0.0492
  134SAPE  H18X14560   2.488   1.209   8.197 -0.2224  0.6042 -1.1446
  134SAPE  H18Y14561   2.470   1.081   8.067  0.3351 -0.8359  0.1900
  134SAPE  H18Z14562   2.598   1.072   8.190  0.3995 -0.1105 -2.6214
  135SAPE     N14563   1.252   5.348  10.734 -0.2035  0.0200  0.3628
  135SAPE   HN114564   1.169   5.323  10.676  1.1119 -1.2504 -1.0725
  135SAPE   HN214565   1.262   5.274  10.805 -1.3554  1.7515  2.4562
  135SAPE   HN314566   1.222   5.437  10.780  0.3527  0.3570  0.0900
  135SAPE   C1214567   1.374   5.365  10.643  0.1340 -0.2155  0.4299
  135SAPE  H12A14568   1.408   5.267  10.605 -1.4162 -0.6484  0.1008
  135SAPE  H12B14569   1.457   5.408  10.703 -1.5621  1.9297  1.3928
  135SAPE   C1114570   1.343   5.473  10.532  0.8500  0.1399 -0.3497
  135SAPE  H11A14571   1.278   5.425  10.456  0.2602  0.4115 -0.0219
  135SAPE  H11B14572   1.437   5.499  10.479  0.5552  1.4834 -0.2609
  135SAPE     P14573   1.381   5.717  10.624 -0.1805 -0.0490 -0.2340
  135SAPE   O1314574   1.298   5.829  10.672 -0.1546  0.1950  0.3537
  135SAPE   O1414575   1.489   5.674  10.715  0.1840 -0.6838 -0.3823
  135SAPE   O1214576   1.285   5.591  10.589  0.3966 -0.6756 -0.1161
  135SAPE   O1114577   1.450   5.757  10.489  0.0392 -0.1044  0.2999
  135SAPE    C114578   1.375   5.764  10.368 -0.3702  0.1630 -0.3028
  135SAPE    HA14579   1.325   5.665  10.355  0.6100 -0.8111  2.4867
  135SAPE    HB14580   1.293   5.838  10.374 -1.4551 -0.9475 -0.9952
  135SAPE    C214581   1.464   5.792  10.239 -0.1917  0.0944  0.0262
  135SAPE    HS14582   1.401   5.767  10.151  0.2419  0.4593 -0.3926
  135SAPE   O2114583   1.581   5.709  10.239 -0.2402 -0.1559  0.8311
  135SAPE   C2114584   1.551   5.587  10.199  0.1969  0.5802 -0.6447
  135SAPE   O2214585   1.443   5.539  10.181  0.7376  0.2919 -0.2531
  135SAPE   C2214586   1.691   5.508  10.189  0.5238 -0.1425 -0.0128
  135SAPE   H2R14587   1.770   5.571  10.142  0.8378 -1.1465 -0.8845
  135SAPE   H2S14588   1.736   5.479  10.286 -0.0521  0.0211  0.3065
  135SAPE    C314589   1.511   5.940  10.238  0.3782  0.4918 -0.2841
  135SAPE    HX14590   1.596   5.961  10.306 -0.9030 -0.7249  1.7870
  135SAPE    HY14591   1.419   5.992  10.273  0.6661  1.7392 -1.3157
  135SAPE   O3114592   1.545   5.979  10.106 -0.5548  0.4538  0.0341
  135SAPE   C3114593   1.466   6.053  10.036  0.7026  0.3838  0.2158
  135SAPE   O3214594   1.362   6.105  10.070  0.5621 -0.0495  0.3031
  135SAPE   C3214595   1.530   6.085   9.895  0.2752  0.1357 -0.2486
  135SAPE   H2X14596   1.638   6.108   9.910  0.2772 -0.6366  1.0747
  135SAPE   H2Y14597   1.490   6.182   9.858  1.7960  1.9017  2.3703
  135SAPE   C2314598   1.669   5.390  10.089 -0.4063  0.6273 -0.3091
  135SAPE   H3R14599   1.593   5.326  10.139 -1.3098  2.8926  1.4385
  135SAPE   H3S14600   1.755   5.320  10.089 -2.0896 -1.5461  0.0370
  135SAPE   C2414601   1.609   5.428   9.949  0.2662  0.3277  0.4469
  135SAPE   H4R14602   1.516   5.489   9.940  0.3439  0.2136 -1.5752
  135SAPE   H4S14603   1.585   5.341   9.884  0.2809 -0.2320  1.1854
  135SAPE   C2514604   1.709   5.498   9.865 -0.2375 -0.1605  0.4485
  135SAPE   H5R14605   1.782   5.563   9.916  2.8550 -0.0168 -3.6302
  135SAPE   C2614606   1.730   5.481   9.732  0.5320  0.8276 -0.1447
  135SAPE   H6R14607   1.803   5.542   9.678 -0.1766 -0.7809 -3.1650
  135SAPE   C2714608   1.657   5.386   9.631  0.2225  0.1590  0.0144
  135SAPE   H7R14609   1.612   5.458   9.559 -3.3162  0.2508  2.0709
  135SAPE   H7S14610   1.570   5.330   9.671  0.0910 -0.5353 -1.1918
  135SAPE   C2814611   1.745   5.289   9.561 -0.0455  0.3345 -0.6073
  135SAPE   H8R14612   1.793   5.214   9.627  2.1106  2.0754 -0.0865
  135SAPE   C2914613   1.776   5.284   9.429 -0.0382 -0.7254  0.0670
  135SAPE   H9R14614   1.844   5.204   9.397 -0.3657 -0.9454 -0.0796
  135SAPE  C21014615   1.713   5.374   9.321 -0.1245 -0.4897  0.3597
  135SAPE  H10R14616   1.616   5.409   9.361 -0.4004  0.2180 -0.9008
  135SAPE  H10S14617   1.680   5.314   9.234 -1.1071  0.5290  0.0127
  135SAPE  C21114618   1.809   5.487   9.287  0.1683 -0.9355  0.3818
  135SAPE  H11R14619   1.801   5.573   9.355 -1.6048 -0.7022 -0.0735
  135SAPE  C21214620   1.904   5.487   9.192 -0.1714 -0.5615  0.2723
  135SAPE  H12R14621   1.969   5.575   9.184 -0.6403  0.0116  2.2114
  135SAPE  C21314622   1.937   5.376   9.091  0.2318 -0.1101 -0.0511
  135SAPE  H13R14623   1.884   5.280   9.107  0.0718  0.0478  0.3899
  135SAPE  H13S14624   2.046   5.354   9.094  0.2934  0.2457  1.6011
  135SAPE  C21414625   1.889   5.416   8.953  0.2186 -0.5225 -0.3483
  135SAPE  H14R14626   1.781   5.437   8.952 -0.0493 -1.8156 -0.3044
  135SAPE  C21514627   1.965   5.437   8.846 -0.1130  0.0944 -0.4166
  135SAPE  H15R14628   1.912   5.484   8.761  0.3722  1.8872  0.2314
  135SAPE  C21614629   2.116   5.414   8.825  1.0143 -0.5075 -0.3030
  135SAPE  H16R14630   2.164   5.434   8.924 -0.5712 -1.6406  0.7447
  135SAPE  H16S14631   2.173   5.471   8.749 -0.4197 -0.1007 -1.0965
  135SAPE  C21714632   2.134   5.274   8.783 -0.0056 -0.3393 -0.0456
  135SAPE  H17R14633   2.094   5.204   8.859  1.5842  0.0015  1.1472
  135SAPE  H17S14634   2.242   5.249   8.786  0.1605  0.1633 -1.2301
  135SAPE  C21814635   2.074   5.220   8.648  0.1727  0.3046  0.1706
  135SAPE  H18R14636   1.967   5.251   8.641  0.3184  0.7761 -0.0023
  135SAPE  H18S14637   2.076   5.110   8.634  0.8793 -0.3036  3.8850
  135SAPE  C21914638   2.126   5.288   8.526 -0.0808  0.3428 -0.8516
  135SAPE  H19R14639   2.229   5.247   8.518 -0.5355 -0.6003 -2.3239
  135SAPE  H19S14640   2.129   5.398   8.536  1.4017  0.2101  0.6225
  135SAPE  C22014641   2.057   5.246   8.393 -0.3189  0.3709  0.3175
  135SAPE  H20R14642   1.958   5.296   8.397 -1.2067 -1.0477 -1.7777
  135SAPE  H20S14643   2.026   5.141   8.408 -1.2451  0.6327  0.2539
  135SAPE  H20T14644   2.112   5.242   8.296 -0.9186 -1.6710  0.0180
  135SAPE   C3314645   1.509   5.966   9.796 -0.5628  0.1494  0.0712
  135SAPE   H3X14646   1.401   5.943   9.786 -0.1996 -1.5608 -0.3518
  135SAPE   H3Y14647   1.559   5.871   9.826 -0.1163  0.6879  1.0754
  135SAPE   C3414648   1.568   6.011   9.655  0.1061  0.6404  1.0286
  135SAPE   H4X14649   1.678   5.999   9.661  0.1576 -0.1970 -0.7213
  135SAPE   H4Y14650   1.543   6.114   9.620 -0.9545  0.4079  1.0816
  135SAPE   C3514651   1.508   5.922   9.549  0.4421 -0.2825  0.7622
  135SAPE   H5X14652   1.400   5.945   9.535  1.1125  1.3259 -3.3452
  135SAPE   H5Y14653   1.518   5.813   9.571  1.8890 -0.2539  0.3438
  135SAPE   C3614654   1.572   5.958   9.412  0.2108  0.2456 -0.6656
  135SAPE   H6X14655   1.677   5.924   9.420  0.4946  1.2022 -0.2244
  135SAPE   H6Y14656   1.578   6.068   9.403  1.2373  0.3347  0.7723
  135SAPE   C3714657   1.516   5.877   9.295  0.2228 -0.9896 -0.2287
  135SAPE   H7X14658   1.419   5.922   9.263  0.3463 -1.7402 -1.7958
  135SAPE   H7Y14659   1.484   5.776   9.327 -1.2421 -1.1369 -1.9853
  135SAPE   C3814660   1.620   5.873   9.180  0.6592 -0.2411  0.2139
  135SAPE   H8X14661   1.707   5.827   9.232  0.6223  1.4089  1.8193
  135SAPE   H8Y14662   1.650   5.976   9.154 -1.8952  0.0474 -1.9933
  135SAPE   C3914663   1.592   5.787   9.061  0.0199 -0.5452  0.6664
  135SAPE   H9X14664   1.502   5.814   9.002 -0.2814 -1.3992  0.7269
  135SAPE   H9Y14665   1.568   5.688   9.104  0.9304 -0.8387  0.5284
  135SAPE  C31014666   1.708   5.761   8.967  0.2341  0.1101 -0.0092
  135SAPE  H10X14667   1.670   5.691   8.889 -1.8124  3.3965 -2.2029
  135SAPE  H10Y14668   1.792   5.715   9.023 -0.7791 -1.7357  0.0917
  135SAPE  C31114669   1.764   5.883   8.893  0.5336  0.3787 -0.1263
  135SAPE  H11X14670   1.800   5.958   8.968  0.5622 -0.9562  1.2442
  135SAPE  H11Y14671   1.676   5.924   8.838 -0.4743 -0.8465  0.5225
  135SAPE  C31214672   1.865   5.847   8.784  0.1798 -0.2417  0.0755
  135SAPE  H12X14673   1.934   5.771   8.826  2.3622  1.7746  0.3424
  135SAPE  H12Y14674   1.929   5.935   8.762 -0.5904  0.0932 -0.9191
  135SAPE  C31314675   1.809   5.805   8.648 -0.2808  0.0230  0.0782
  135SAPE  H13X14676   1.777   5.899   8.598  2.9234 -0.2719 -2.9927
  135SAPE  H13Y14677   1.725   5.736   8.669 -2.2382  2.4670  0.7547
  135SAPE  C31414678   1.923   5.745   8.561  0.1374 -0.1608 -0.2544
  135SAPE  H14X14679   1.923   5.635   8.574 -0.8284  0.0503  2.0233
  135SAPE  H14Y14680   2.026   5.785   8.570 -0.4305  1.0755  1.1853
  135SAPE  C31514681   1.899   5.773   8.406  0.3738 -0.6079  0.1463
  135SAPE  H15X14682   1.892   5.883   8.393  0.0764 -0.7885 -1.4136
  135SAPE  H15Y14683   1.799   5.730   8.386  0.4038 -0.6678  0.1253
  135SAPE  C31614684   2.007   5.706   8.317  0.3575 -0.0441 -0.0382
  135SAPE  H16X14685   1.999   5.596   8.334 -0.9163  0.2384  1.5387
  135SAPE  H16Y14686   2.109   5.721   8.358  0.1774  0.6401  0.1637
  135SAPE  C31714687   2.008   5.748   8.173  0.6655  0.1725 -0.8018
  135SAPE  H17X14688   2.038   5.855   8.174  0.4398  0.2346 -0.8283
  135SAPE  H17Y14689   1.906   5.740   8.129  1.1471  0.2730 -1.9948
  135SAPE  C31814690   2.108   5.665   8.098 -0.7268 -0.6382  0.0916
  135SAPE  H18X14691   2.058   5.567   8.084 -3.9731  0.8412  0.2318
  135SAPE  H18Y14692   2.201   5.646   8.155  0.6740  0.5171 -1.6896
  135SAPE  H18Z14693   2.135   5.722   8.007 -0.1258  1.1570  1.3391
  136SAPE     N14694   5.919   4.384  10.992  0.7465  0.0060  0.1665
  136SAPE   HN114695   5.959   4.372  11.088 -0.1062  0.4437  0.5927
  136SAPE   HN214696   5.930   4.292  10.946  1.4229 -0.2745  0.8468
  136SAPE   HN314697   5.973   4.454  10.936 -3.0109 -0.1189 -4.1087
  136SAPE   C1214698   5.772   4.414  10.983  0.8208 -0.9477 -0.2125
  136SAPE  H12A14699   5.748   4.463  11.080 -1.4879  0.3718 -1.3442
  136SAPE  H12B14700   5.721   4.319  10.958 -1.4160  0.3448 -0.9014
  136SAPE   C1114701   5.745   4.520  10.875 -0.4474 -0.4415  0.4371
  136SAPE  H11A14702   5.634   4.517  10.867 -0.5437  0.2919  1.4223
  136SAPE  H11B14703   5.790   4.481  10.781  1.9800 -0.6024  1.5892
  136SAPE     P14704   5.914   4.718  10.875 -0.6907  0.2552 -0.1145
  136SAPE   O1314705   5.934   4.851  10.938  0.0145  0.1178  0.2354
  136SAPE   O1414706   6.032   4.620  10.891  0.1604  0.3603  0.0056
  136SAPE   O1214707   5.781   4.650  10.918 -0.5055 -0.0889 -0.7137
  136SAPE   O1114708   5.899   4.724  10.720 -0.5185 -0.2796  0.2708
  136SAPE    C114709   5.900   4.847  10.651  0.4958 -0.0095 -0.1575
  136SAPE    HA14710   5.831   4.915  10.705  0.6582 -0.2641  0.3716
  136SAPE    HB14711   6.005   4.884  10.661 -0.0096  0.9870  2.1083
  136SAPE    C214712   5.870   4.833  10.500 -0.3257 -1.5446  0.5926
  136SAPE    HS14713   5.808   4.916  10.458  1.5463 -0.5051 -0.2361
  136SAPE   O2114714   5.823   4.703  10.478 -0.7927  0.6819 -0.2845
  136SAPE   C2114715   5.699   4.681  10.509  0.1458 -0.1151  0.3881
  136SAPE   O2214716   5.618   4.760  10.554  0.2315  0.4600 -0.3217
  136SAPE   C2214717   5.670   4.536  10.483 -0.2947 -0.0669  0.2945
  136SAPE   H2R14718   5.759   4.485  10.440  1.5737  3.4670 -0.4837
  136SAPE   H2S14719   5.651   4.492  10.583  1.0198 -0.5626  0.3431
  136SAPE    C314720   5.998   4.846  10.416  0.8263 -0.3772 -0.5418
  136SAPE    HX14721   6.063   4.762  10.449  0.1647 -0.0715  1.7433
  136SAPE    HY14722   6.046   4.942  10.444  0.7070 -0.3607 -0.3898
  136SAPE   O3114723   5.975   4.841  10.274  0.2655 -1.1336 -0.2638
  136SAPE   C3114724   5.982   4.724  10.224 -1.2821 -0.0311  0.4461
  136SAPE   O3214725   6.005   4.614  10.276  0.3039  0.2962  0.7293
  136SAPE   C3214726   5.959   4.745  10.079 -0.8846  0.0497 -0.3536
  136SAPE   H2X14727   6.057   4.776  10.038  0.0900 -0.2515  1.6497
  136SAPE   H2Y14728   5.878   4.821  10.067  0.5440  1.9590  1.4881
  136SAPE   C2314729   5.546   4.520  10.392  0.4245  0.6649  0.4741
  136SAPE   H3R14730   5.459   4.563  10.446 -1.4356 -2.2570 -0.0120
  136SAPE   H3S14731   5.519   4.413  10.378  0.4120  0.7662 -0.3711
  136SAPE   C2414732   5.567   4.584  10.248 -0.1792 -0.0640 -0.1560
  136SAPE   H4R14733   5.642   4.527  10.188  1.8365  1.2188  1.0455
  136SAPE   H4S14734   5.616   4.683  10.258 -0.2027 -0.1131  0.4340
  136SAPE   C2514735   5.429   4.585  10.180  0.0493  0.1426  0.2189
  136SAPE   H5R14736   5.351   4.635  10.240 -0.3304 -0.7707  0.5027
  136SAPE   C2614737   5.407   4.548  10.052 -0.0458  0.0088 -0.1223
  136SAPE   H6R14738   5.307   4.569  10.011  0.4237  2.4370 -0.1727
  136SAPE   C2714739   5.508   4.507   9.948  0.1656 -0.4175  0.8508
  136SAPE   H7R14740   5.606   4.557   9.963 -1.1251  2.6570 -0.2722
  136SAPE   H7S14741   5.491   4.553   9.848  1.0878 -0.0663  0.8443
  136SAPE   C2814742   5.525   4.355   9.935 -0.9161  0.3277  0.4669
  136SAPE   H8R14743   5.537   4.302  10.031  5.2749  0.2945  0.0841
  136SAPE   C2914744   5.541   4.284   9.822  0.1314 -0.0802 -0.2149
  136SAPE   H9R14745   5.549   4.176   9.839 -0.6165  0.0818  1.2991
  136SAPE  C21014746   5.535   4.335   9.679 -1.3703  0.2595 -0.2904
  136SAPE  H10R14747   5.632   4.388   9.666 -1.8845  0.8283 -2.2145
  136SAPE  H10S14748   5.456   4.413   9.673 -2.1005 -0.4911 -0.4490
  136SAPE  C21114749   5.514   4.245   9.565 -1.0813 -0.2784  0.2215
  136SAPE  H11R14750   5.568   4.150   9.580 -0.4785  0.3049  1.9869
  136SAPE  C21214751   5.432   4.262   9.456 -0.0649 -0.0421 -0.1705
  136SAPE  H12R14752   5.458   4.195   9.373  2.4995  1.3191 -0.5767
  136SAPE  C21314753   5.349   4.385   9.423  0.2574 -0.1950 -0.1984
  136SAPE  H13R14754   5.346   4.409   9.314  1.8299  0.2158 -0.1661
  136SAPE  H13S14755   5.392   4.479   9.463  1.3976  0.4239 -2.6765
  136SAPE  C21414756   5.204   4.360   9.471  0.3544  0.1408 -0.1077
  136SAPE  H14R14757   5.164   4.257   9.464 -0.0321  0.3204 -0.5993
  136SAPE  C21514758   5.131   4.453   9.530 -0.0666 -0.4863  0.0253
  136SAPE  H15R14759   5.049   4.419   9.595 -0.8689  0.2778 -0.5557
  136SAPE  C21614760   5.147   4.600   9.561  0.1145  0.0470  0.0030
  136SAPE  H16R14761   5.243   4.633   9.518  1.6824 -0.8147  2.5876
  136SAPE  H16S14762   5.153   4.603   9.672 -0.0013 -0.3858  0.0241
  136SAPE  C21714763   5.030   4.681   9.511 -0.3072 -0.9071  0.7025
  136SAPE  H17R14764   5.042   4.777   9.565  1.0864 -1.2474  1.0421
  136SAPE  H17S14765   4.932   4.634   9.536 -0.3473 -0.8368  0.6776
  136SAPE  C21814766   5.033   4.701   9.351 -0.5173 -0.1693  0.1956
  136SAPE  H18R14767   4.931   4.724   9.313 -0.4930  0.8468  0.7167
  136SAPE  H18S14768   5.063   4.603   9.307  2.1311  0.2003  1.0480
  136SAPE  C21914769   5.129   4.816   9.300 -0.6411 -0.3424 -0.4227
  136SAPE  H19R14770   5.235   4.794   9.326 -0.8601  0.6912  1.5769
  136SAPE  H19S14771   5.122   4.912   9.357  0.5944 -0.9482  0.8433
  136SAPE  C22014772   5.131   4.818   9.152  0.8103 -0.9667  0.3436
  136SAPE  H20R14773   5.136   4.723   9.096  0.6470 -1.2563  0.8138
  136SAPE  H20S14774   5.213   4.881   9.109 -0.8501  1.1394  0.0741
  136SAPE  H20T14775   5.048   4.875   9.106  2.3570  1.8758  0.7715
  136SAPE   C3314776   5.922   4.609  10.017 -0.1801  0.3525  0.7545
  136SAPE   H3X14777   5.829   4.565  10.059 -0.4365 -0.0299 -0.1864
  136SAPE   H3Y14778   6.013   4.550  10.038 -0.6556 -0.1735  1.3648
  136SAPE   C3414779   5.929   4.616   9.857 -0.4894 -0.4215 -0.4430
  136SAPE   H4X14780   5.929   4.510   9.822 -2.4408 -0.4989 -0.3668
  136SAPE   H4Y14781   6.025   4.663   9.827 -2.0952  2.3127 -1.7846
  136SAPE   C3514782   5.818   4.679   9.774  0.0111  1.1306  0.7376
  136SAPE   H5X14783   5.805   4.780   9.818  0.1504  1.0203  1.0316
  136SAPE   H5Y14784   5.732   4.611   9.791  1.3488 -0.7721  0.1831
  136SAPE   C3614785   5.849   4.674   9.620  0.0956 -0.3948 -0.3860
  136SAPE   H6X14786   5.903   4.578   9.604  2.9524  1.4504 -2.7657
  136SAPE   H6Y14787   5.912   4.755   9.579  1.5781 -1.5619 -0.5182
  136SAPE   C3714788   5.718   4.687   9.536  0.1580  0.4164 -0.0636
  136SAPE   H7X14789   5.690   4.780   9.589  1.1244  0.5604  0.2183
  136SAPE   H7Y14790   5.637   4.615   9.560 -0.2672  0.8145 -0.2988
  136SAPE   C3814791   5.732   4.703   9.390 -0.0146  0.1680 -0.7437
  136SAPE   H8X14792   5.750   4.599   9.354 -1.7377 -1.5992  3.0235
  136SAPE   H8Y14793   5.815   4.770   9.358 -0.5560  1.1137 -0.2205
  136SAPE   C3914794   5.611   4.766   9.322  0.2221 -0.4839 -0.1161
  136SAPE   H9X14795   5.525   4.696   9.324 -1.2433  1.2316  1.5087
  136SAPE   H9Y14796   5.644   4.771   9.216  1.5225 -2.6222  0.1446
  136SAPE  C31014797   5.582   4.911   9.372  0.7492  0.0786  0.1561
  136SAPE  H10X14798   5.682   4.957   9.374  1.7130 -1.8775 -0.2555
  136SAPE  H10Y14799   5.548   4.921   9.477  0.0937  1.2868 -0.1445
  136SAPE  C31114800   5.486   4.987   9.273 -0.0892  0.3928  0.7912
  136SAPE  H11X14801   5.392   4.931   9.257  0.1664  0.2557 -0.2754
  136SAPE  H11Y14802   5.533   4.986   9.172 -2.0064 -2.1110 -0.1689
  136SAPE  C31214803   5.441   5.127   9.322 -0.3638  0.1705  0.6993
  136SAPE  H12X14804   5.525   5.184   9.368 -0.6291  0.1136  1.2678
  136SAPE  H12Y14805   5.373   5.096   9.404 -1.6893 -1.7725 -1.0290
  136SAPE  C31314806   5.362   5.211   9.227  0.2768 -0.6791 -0.4281
  136SAPE  H13X14807   5.342   5.309   9.275  0.0394 -0.7304 -0.4214
  136SAPE  H13Y14808   5.269   5.151   9.216  0.1990 -1.4868  3.3061
  136SAPE  C31414809   5.428   5.220   9.085  0.4346 -0.5123 -0.6432
  136SAPE  H14X14810   5.454   5.123   9.037  1.5409  0.6214 -2.5010
  136SAPE  H14Y14811   5.527   5.270   9.094 -0.0522  0.3451  0.1518
  136SAPE  C31514812   5.334   5.303   8.980 -1.2665 -0.0754  0.3255
  136SAPE  H15X14813   5.398   5.368   8.917 -1.9106  0.2864  0.0364
  136SAPE  H15Y14814   5.272   5.364   9.048 -3.5509  0.5875 -2.1603
  136SAPE  C31614815   5.247   5.209   8.901 -0.3742  0.2922  0.9411
  136SAPE  H16X14816   5.171   5.158   8.964 -1.9156  1.6479  0.2523
  136SAPE  H16Y14817   5.310   5.133   8.850 -1.4641  0.7771 -1.2784
  136SAPE  C31714818   5.182   5.274   8.773 -0.3598 -0.4001  0.0277
  136SAPE  H17X14819   5.119   5.194   8.730  0.5057 -1.6312  0.9963
  136SAPE  H17Y14820   5.250   5.310   8.692  0.2126  2.8327  1.7545
  136SAPE  C31814821   5.081   5.380   8.823 -0.4074 -0.4720  0.1004
  136SAPE  H18X14822   4.993   5.332   8.870 -0.8980  1.0946  0.8767
  136SAPE  H18Y14823   5.045   5.443   8.739 -1.2640  0.2037  0.9482
  136SAPE  H18Z14824   5.139   5.448   8.889 -0.3561 -0.3600 -0.0564
  137SAPE     N14825   3.790   0.548  11.221  0.5036  0.1933  0.1459
  137SAPE   HN114826   3.747   0.641  11.239 -0.8814 -0.3154 -0.4183
  137SAPE   HN214827   3.723   0.473  11.247  0.7424  0.4447  1.5584
  137SAPE   HN314828   3.861   0.541  11.296 -0.3422  2.2897  1.2295
  137SAPE   C1214829   3.851   0.526  11.084  0.2040 -0.0860  1.2442
  137SAPE  H12A14830   3.889   0.422  11.071  0.7760  0.1136  1.3098
  137SAPE  H12B14831   3.926   0.607  11.075 -1.0397  0.9453 -0.7771
  137SAPE   C1114832   3.751   0.548  10.968 -0.3425 -0.5072  0.1630
  137SAPE  H11A14833   3.676   0.468  10.952  0.8084 -1.5486 -0.1426
  137SAPE  H11B14834   3.813   0.554  10.876  0.6054  0.2883  0.8313
  137SAPE     P14835   3.550   0.714  10.937 -0.0188  0.4166  0.0332
  137SAPE   O1314836   3.453   0.608  10.982 -0.0657  0.3039  0.3015
  137SAPE   O1414837   3.516   0.856  10.976 -0.4975  0.0960  0.2582
  137SAPE   O1214838   3.700   0.681  10.984 -0.0186  0.3818 -0.0775
  137SAPE   O1114839   3.549   0.715  10.769 -0.7423 -0.1929  0.1838
  137SAPE    C114840   3.618   0.834  10.718 -0.4937 -0.0239  0.3197
  137SAPE    HA14841   3.556   0.922  10.691  0.8327  0.4487 -1.3705
  137SAPE    HB14842   3.689   0.880  10.790 -1.9006 -0.6872  2.2121
  137SAPE    C214843   3.698   0.810  10.591 -0.3995 -0.2129 -0.7196
  137SAPE    HS14844   3.756   0.898  10.555  0.4493  0.7997  2.7691
  137SAPE   O2114845   3.607   0.755  10.494 -0.0026  0.0454 -0.6819
  137SAPE   C2114846   3.548   0.845  10.425  0.4920 -0.5293  0.2450
  137SAPE   O2214847   3.564   0.967  10.425  0.1458 -0.6461  0.2727
  137SAPE   C2214848   3.440   0.777  10.339 -0.2790  0.1816 -0.0230
  137SAPE   H2R14849   3.479   0.677  10.310 -0.0388  0.2732 -0.0215
  137SAPE   H2S14850   3.348   0.762  10.398  0.8372  3.0951  2.7043
  137SAPE    C314851   3.815   0.701  10.619  0.0844 -0.1294 -0.1765
  137SAPE    HX14852   3.758   0.612  10.655 -0.7747  0.8307  0.9200
  137SAPE    HY14853   3.890   0.733  10.694 -0.7342 -0.2928  0.7342
  137SAPE   O3114854   3.869   0.666  10.494  0.4090 -0.7286  0.0357
  137SAPE   C3114855   3.994   0.692  10.465 -0.6752  0.4284  0.4228
  137SAPE   O3214856   4.065   0.763  10.534  0.5778 -0.6106 -0.2002
  137SAPE   C3214857   4.033   0.624  10.343 -0.1139  0.3520 -0.1968
  137SAPE   H2X14858   3.956   0.575  10.279  0.6163 -0.4788 -0.4619
  137SAPE   H2Y14859   4.098   0.536  10.360 -0.9665 -0.3469 -0.4567
  137SAPE   C2314860   3.398   0.865  10.215 -0.4107 -0.2377 -0.6909
  137SAPE   H3R14861   3.481   0.894  10.147 -0.0552  2.5493  0.7905
  137SAPE   H3S14862   3.350   0.959  10.249  0.0491  0.1396 -1.0814
  137SAPE   C2414863   3.279   0.799  10.141  0.2345  0.1196  0.0675
  137SAPE   H4R14864   3.217   0.873  10.087 -1.4220  0.6425  2.5112
  137SAPE   H4S14865   3.207   0.754  10.213 -0.7016 -0.4293 -1.1614
  137SAPE   C2514866   3.318   0.684  10.056 -0.2523 -0.2186  0.3432
  137SAPE   H5R14867   3.374   0.601  10.101 -1.6750 -0.5422  1.5962
  137SAPE   C2614868   3.273   0.660   9.930  1.0294  0.0014  0.0200
  137SAPE   H6R14869   3.313   0.574   9.874 -0.5447  0.1673 -1.4239
  137SAPE   C2714870   3.183   0.752   9.856 -0.2753 -0.0250 -0.6276
  137SAPE   H7R14871   3.214   0.858   9.868 -1.9833  0.4042  0.3680
  137SAPE   H7S14872   3.083   0.757   9.904 -0.0437  0.3501 -0.1692
  137SAPE   C2814873   3.160   0.705   9.716 -0.2653  0.3337 -0.1925
  137SAPE   H8R14874   3.100   0.613   9.706  1.5858 -0.9481  0.0569
  137SAPE   C2914875   3.217   0.754   9.606 -0.0755 -0.1557 -1.2836
  137SAPE   H9R14876   3.183   0.719   9.508 -0.2993  0.2409 -1.3481
  137SAPE  C21014877   3.306   0.876   9.598 -0.1120  0.7681  0.6112
  137SAPE  H10R14878   3.377   0.868   9.513 -0.4533 -0.6289  0.4292
  137SAPE  H10S14879   3.370   0.892   9.687  1.6105 -0.9684 -0.2572
  137SAPE  C21114880   3.218   0.996   9.565  0.0642  0.2085  0.0530
  137SAPE  H11R14881   3.167   1.039   9.652 -1.4483  0.0733 -0.7422
  137SAPE  C21214882   3.203   1.075   9.457  0.4592 -0.4038 -0.3368
  137SAPE  H12R14883   3.130   1.158   9.457  0.7164 -0.1684 -1.5941
  137SAPE  C21314884   3.279   1.053   9.326  0.3325 -0.0908 -0.3989
  137SAPE  H13R14885   3.211   1.016   9.247 -1.3280  2.3605 -0.2199
  137SAPE  H13S14886   3.363   0.981   9.342  0.2130  0.1446  1.5465
  137SAPE  C21414887   3.336   1.185   9.284  0.3078 -1.1741  0.1397
  137SAPE  H14R14888   3.382   1.245   9.364  0.1717  0.8912 -1.2548
  137SAPE  C21514889   3.320   1.249   9.165 -0.5920  0.2037 -0.5503
  137SAPE  H15R14890   3.357   1.352   9.150  0.9654 -0.1288  0.7183
  137SAPE  C21614891   3.252   1.185   9.052  0.9773  0.5931  0.4149
  137SAPE  H16R14892   3.273   1.077   9.037 -2.2880 -0.0491 -0.3782
  137SAPE  H16S14893   3.268   1.240   8.956 -3.9201 -2.4140 -2.5801
  137SAPE  C21714894   3.090   1.191   9.065  0.6642  0.0034  0.9588
  137SAPE  H17R14895   3.060   1.194   9.172 -0.1029 -0.3864  0.7686
  137SAPE  H17S14896   3.057   1.094   9.021 -2.8884  0.8686  1.4099
  137SAPE  C21814897   3.031   1.316   8.990 -0.5579 -0.1449  0.2377
  137SAPE  H18R14898   3.065   1.316   8.884  1.5737  0.6265  0.8621
  137SAPE  H18S14899   3.079   1.411   9.023 -0.0956  0.4504 -1.9675
  137SAPE  C21914900   2.878   1.334   9.002  0.2975  0.1662 -0.3834
  137SAPE  H19R14901   2.854   1.359   9.108  2.0633 -0.4050  0.1898
  137SAPE  H19S14902   2.821   1.241   8.977 -0.3537  0.3933  0.2143
  137SAPE  C22014903   2.828   1.436   8.903  0.3205 -0.7321 -0.2084
  137SAPE  H20R14904   2.717   1.441   8.899  0.2074 -1.0467  1.7670
  137SAPE  H20S14905   2.865   1.412   8.801 -4.0079  1.2173 -2.5148
  137SAPE  H20T14906   2.867   1.538   8.926  1.2001 -1.0367 -0.3008
  137SAPE   C3314907   4.105   0.732  10.260 -0.4943 -0.1353 -0.1436
  137SAPE   H3X14908   4.176   0.679  10.192 -0.0802 -0.6205  0.6489
  137SAPE   H3Y14909   4.159   0.814  10.311 -1.8072  1.4100 -1.1755
  137SAPE   C3414910   4.015   0.819  10.173 -0.0727  0.3895  0.0187
  137SAPE   H4X14911   3.965   0.741  10.112  0.9756  0.2857 -0.7196
  137SAPE   H4Y14912   4.071   0.884  10.103 -0.1567  0.5221  0.0742
  137SAPE   C3514913   3.917   0.904  10.257 -0.0359 -0.1765 -0.4416
  137SAPE   H5X14914   3.971   0.957  10.338 -0.1732  0.4464 -0.7477
  137SAPE   H5Y14915   3.836   0.840  10.297  0.9291 -0.3935  1.2351
  137SAPE   C3614916   3.850   1.018  10.183 -0.8385 -0.5130 -0.6739
  137SAPE   H6X14917   3.922   1.093  10.145 -1.3164 -1.0720 -2.8064
  137SAPE   H6Y14918   3.774   1.069  10.245  1.2100  0.7386  0.9218
  137SAPE   C3714919   3.788   0.980  10.049  0.4440  0.3888 -0.2802
  137SAPE   H7X14920   3.738   0.881  10.059  0.1473  0.5081 -0.5771
  137SAPE   H7Y14921   3.871   0.970   9.976 -2.2585  0.8918 -3.6257
  137SAPE   C3814922   3.689   1.074   9.984  0.6664  0.5547  0.6188
  137SAPE   H8X14923   3.625   1.126  10.058  0.3969  1.2585 -0.0974
  137SAPE   H8Y14924   3.629   1.022   9.907  1.1793  1.2555 -0.2731
  137SAPE   C3914925   3.747   1.192   9.906 -0.0569  0.4036 -0.7945
  137SAPE   H9X14926   3.811   1.156   9.823  1.9668  1.1461  0.3594
  137SAPE   H9Y14927   3.798   1.254   9.983 -2.7659  1.0411  0.6168
  137SAPE  C31014928   3.633   1.280   9.842  0.0726  0.5710  0.5633
  137SAPE  H10X14929   3.558   1.310   9.919 -1.7596 -3.1838  0.5001
  137SAPE  H10Y14930   3.577   1.212   9.775  1.4457 -0.3427  0.3055
  137SAPE  C31114931   3.686   1.393   9.758 -0.1721  0.3087 -0.4323
  137SAPE  H11X14932   3.784   1.364   9.714 -1.5958 -0.5768 -3.2606
  137SAPE  H11Y14933   3.691   1.485   9.820  0.3004 -0.8859  1.3809
  137SAPE  C31214934   3.597   1.427   9.633 -0.3509 -0.1366  0.4607
  137SAPE  H12X14935   3.499   1.458   9.675 -0.8929 -0.4843 -0.5203
  137SAPE  H12Y14936   3.594   1.333   9.573 -0.5757 -1.2724  2.1826
  137SAPE  C31314937   3.650   1.539   9.539 -0.9705  0.4395 -0.3130
  137SAPE  H13X14938   3.746   1.510   9.491 -1.3168 -1.7275  0.1823
  137SAPE  H13Y14939   3.686   1.628   9.594 -1.2930 -0.8013  2.0165
  137SAPE  C31414940   3.552   1.571   9.425 -0.0782 -0.2698 -0.1569
  137SAPE  H14X14941   3.459   1.619   9.464 -1.2699 -0.4912 -2.5124
  137SAPE  H14Y14942   3.511   1.480   9.375 -0.6289 -1.1352  1.7987
  137SAPE  C31514943   3.611   1.669   9.324  0.2782  0.0587  0.5475
  137SAPE  H15X14944   3.701   1.628   9.274 -0.0842 -3.3465  2.3510
  137SAPE  H15Y14945   3.632   1.766   9.372 -1.5951  0.8551 -0.1550
  137SAPE  C31614946   3.505   1.709   9.219 -0.6405 -0.4996  0.0245
  137SAPE  H16X14947   3.408   1.748   9.259 -0.7244 -2.1545  1.5708
  137SAPE  H16Y14948   3.469   1.621   9.161  0.2514 -0.4234 -0.6640
  137SAPE  C31714949   3.570   1.806   9.115  0.4283 -1.2912 -0.4481
  137SAPE  H17X14950   3.661   1.752   9.080  0.2167 -0.9989 -1.4751
  137SAPE  H17Y14951   3.593   1.909   9.148 -3.4344 -0.2842 -0.5203
  137SAPE  C31814952   3.470   1.816   8.997  0.1474  0.6432  0.4554
  137SAPE  H18X14953   3.523   1.844   8.904 -1.7266 -0.3306 -0.9894
  137SAPE  H18Y14954   3.393   1.889   9.030 -0.9954 -0.2624 -0.1175
  137SAPE  H18Z14955   3.426   1.715   8.985  0.4365  0.3372  1.8425
  138SAPE     N14956   6.822   2.969  11.051 -0.9987  0.0900 -0.7345
  138SAPE   HN114957   6.807   2.917  11.140 -0.1677 -0.4662 -0.9104
  138SAPE   HN214958   6.918   3.010  11.053 -0.5725 -0.8048 -1.7163
  138SAPE   HN314959   6.757   3.050  11.042 -0.7260  0.2274 -1.5832
  138SAPE   C1214960   6.811   2.884  10.922 -0.3239 -0.7313  0.1367
  138SAPE  H12A14961   6.885   2.803  10.939  1.4410  0.8560  0.3711
  138SAPE  H12B14962   6.846   2.949  10.839  0.5161  0.6072  1.4703
  138SAPE   C1114963   6.664   2.844  10.903  0.6448  0.1156  0.3930
  138SAPE  H11A14964   6.625   2.770  10.976 -0.9627  2.1341  1.6936
  138SAPE  H11B14965   6.656   2.801  10.801  1.2890 -1.1168  0.8471
  138SAPE     P14966   6.540   3.052  10.800  0.1592  0.2539 -0.1755
  138SAPE   O1314967   6.430   3.146  10.832 -0.2470 -0.4693 -0.0612
  138SAPE   O1414968   6.666   3.112  10.750  0.3364  0.5709 -0.1501
  138SAPE   O1214969   6.574   2.960  10.923  0.0531 -0.3443 -0.1146
  138SAPE   O1114970   6.489   2.949  10.690  0.3776 -0.3402 -0.3046
  138SAPE    C114971   6.385   2.854  10.702 -0.3343  0.0560  0.0736
  138SAPE    HA14972   6.406   2.766  10.767 -2.7514 -0.2329  0.5343
  138SAPE    HB14973   6.295   2.900  10.746  0.8140  1.2437  1.2657
  138SAPE    C214974   6.358   2.791  10.559  0.3700  0.2259  0.0593
  138SAPE    HS14975   6.316   2.688  10.565 -0.0961  0.2698 -1.8249
  138SAPE   O2114976   6.473   2.780  10.472 -0.0862 -0.3399 -0.2304
  138SAPE   C2114977   6.560   2.695  10.509  0.8780 -0.2060 -0.3344
  138SAPE   O2214978   6.543   2.601  10.588  0.2420 -0.4945  0.0768
  138SAPE   C2214979   6.692   2.721  10.437 -1.5304  0.3591  0.2810
  138SAPE   H2R14980   6.679   2.754  10.332  0.3207 -0.3926 -0.2330
  138SAPE   H2S14981   6.736   2.809  10.489 -2.3893 -0.3575  2.3136
  138SAPE    C314982   6.254   2.886  10.486  0.2468  0.2387 -0.7430
  138SAPE    HX14983   6.312   2.981  10.483  1.2148 -0.2527  0.8323
  138SAPE    HY14984   6.172   2.906  10.557  0.6209  2.4529 -0.8740
  138SAPE   O3114985   6.212   2.830  10.356 -0.7408 -0.3696 -0.2633
  138SAPE   C3114986   6.159   2.921  10.277  0.3390 -0.2325 -0.8262
  138SAPE   O3214987   6.152   3.039  10.303 -0.1124  0.1622  0.1942
  138SAPE   C3214988   6.083   2.858  10.161 -0.6516 -0.8246  0.2149
  138SAPE   H2X14989   6.023   2.780  10.213 -1.8088  1.9697  3.4536
  138SAPE   H2Y14990   6.155   2.807  10.094  1.7841 -0.9026  2.6973
  138SAPE   C2314991   6.789   2.594  10.438  0.8987  0.3153 -0.4610
  138SAPE   H3R14992   6.738   2.500  10.407 -1.5358  0.4216  2.7820
  138SAPE   H3S14993   6.807   2.578  10.546  0.5190  1.7269 -0.1753
  138SAPE   C2414994   6.919   2.613  10.363  0.2566 -0.1053  0.6384
  138SAPE   H4R14995   7.005   2.560  10.411  1.1268 -0.8399 -1.5944
  138SAPE   H4S14996   6.932   2.723  10.373  0.2289 -0.1160  0.7996
  138SAPE   C2514997   6.905   2.575  10.219 -0.2768  0.2542  0.8610
  138SAPE   H5R14998   6.892   2.467  10.199 -1.3503  0.5787 -0.3388
  138SAPE   C2614999   6.910   2.644  10.103 -0.1984 -0.5357 -0.1007
  138SAPE   H6R15000   6.896   2.588  10.009  1.3174  0.3708 -0.9045
  138SAPE   C2715001   6.928   2.797  10.089  0.4604 -0.3802  0.0766
  138SAPE   H7R15002   6.952   2.855  10.180  3.9308  1.2569 -1.7019
  138SAPE   H7S15003   6.831   2.836  10.049 -0.3361 -0.2836  2.0029
  138SAPE   C2815004   7.040   2.822   9.994 -0.3854  1.3354  0.2705
  138SAPE   H8R15005   7.135   2.840  10.046  1.1642 -1.1648 -1.4492
  138SAPE   C2915006   7.036   2.826   9.859 -0.2880 -0.4501 -0.3484
  138SAPE   H9R15007   7.134   2.834   9.811  0.4589  4.0710  1.4047
  138SAPE  C21015008   6.917   2.795   9.768  0.5018 -0.2212 -0.7890
  138SAPE  H10R15009   6.893   2.895   9.728  0.2220 -0.4762 -1.2730
  138SAPE  H10S15010   6.830   2.761   9.829  1.3116 -0.4510  0.2761
  138SAPE  C21115011   6.951   2.692   9.664 -0.3672 -0.3930  0.3074
  138SAPE  H11R15012   6.999   2.600   9.699 -1.9714 -1.3322  0.1626
  138SAPE  C21215013   6.926   2.705   9.533 -0.9321  0.1200  0.7889
  138SAPE  H12R15014   6.980   2.637   9.466  0.4707  3.4163 -1.7522
  138SAPE  C21315015   6.886   2.830   9.465  0.7241 -0.7473  0.4093
  138SAPE  H13R15016   6.943   2.834   9.369 -1.8032 -0.2047 -1.1828
  138SAPE  H13S15017   6.912   2.924   9.519 -2.1364 -0.5433  1.5719
  138SAPE  C21415018   6.745   2.854   9.431  0.0069  1.0933 -0.0309
  138SAPE  H14R15019   6.677   2.849   9.518  0.5065  0.8961  0.3578
  138SAPE  C21515020   6.683   2.847   9.312  0.9729  0.7847 -0.1297
  138SAPE  H15R15021   6.573   2.842   9.309  1.0253 -0.8848 -0.2735
  138SAPE  C21615022   6.748   2.822   9.183 -0.3739 -0.1552  0.6234
  138SAPE  H16R15023   6.699   2.736   9.133  0.4765 -0.9028  1.0502
  138SAPE  H16S15024   6.856   2.795   9.191  0.3395  1.7944 -1.4241
  138SAPE  C21715025   6.737   2.958   9.103 -0.0718 -0.2713  0.4151
  138SAPE  H17R15026   6.802   2.950   9.013 -1.2188 -0.0727 -0.4709
  138SAPE  H17S15027   6.776   3.036   9.171  1.1933 -0.6848  0.1870
  138SAPE  C21815028   6.603   3.008   9.053  0.2583  0.0698 -0.5523
  138SAPE  H18R15029   6.627   3.106   9.007  1.7218 -1.1514 -2.5808
  138SAPE  H18S15030   6.526   3.000   9.133  0.1314 -2.3951 -0.8539
  138SAPE  C21915031   6.559   2.927   8.934 -0.0005 -0.0817  0.1495
  138SAPE  H19R15032   6.550   2.818   8.954 -0.8872  0.3902  2.7553
  138SAPE  H19S15033   6.649   2.929   8.869  1.0064  0.1474  1.5102
  138SAPE  C22015034   6.434   2.985   8.870  0.2336 -0.3159 -0.2613
  138SAPE  H20R15035   6.390   2.918   8.793  1.1286 -1.8891  0.5455
  138SAPE  H20S15036   6.455   3.087   8.830 -1.4049  0.1847  0.0873
  138SAPE  H20T15037   6.348   2.999   8.938  0.2928  0.1701 -0.2843
  138SAPE   C3315038   5.980   2.961  10.104  0.2519  0.9284  0.4401
  138SAPE   H3X15039   6.039   3.035  10.045  0.9649 -0.0577 -0.1219
  138SAPE   H3Y15040   5.922   3.010  10.185  1.3037  0.9387  1.2033
  138SAPE   C3415041   5.873   2.901  10.013 -0.1575  0.3268  0.3481
  138SAPE   H4X15042   5.800   2.984  10.000  0.6803  1.0550  0.1732
  138SAPE   H4Y15043   5.810   2.827  10.066 -1.5473  0.9259 -0.3941
  138SAPE   C3515044   5.921   2.868   9.871 -0.4797 -0.4617  0.2354
  138SAPE   H5X15045   5.991   2.782   9.860  1.8170  1.4268 -1.0083
  138SAPE   H5Y15046   5.987   2.953   9.843 -0.6720  0.1807  1.6098
  138SAPE   C3615047   5.821   2.848   9.764  0.8114 -0.2045  0.3932
  138SAPE   H6X15048   5.784   2.950   9.739 -1.5407 -1.3684 -1.2822
  138SAPE   H6Y15049   5.740   2.782   9.800  0.7893 -1.5257 -1.8781
  138SAPE   C3715050   5.871   2.795   9.626 -0.1917  0.6889  0.2551
  138SAPE   H7X15051   5.948   2.853   9.572 -1.1041 -2.1400 -4.6796
  138SAPE   H7Y15052   5.788   2.807   9.553 -1.8443 -2.0345  1.5440
  138SAPE   C3815053   5.909   2.646   9.617 -0.6050  0.7516 -0.1520
  138SAPE   H8X15054   5.840   2.580   9.674 -0.7996  0.1432 -1.0697
  138SAPE   H8Y15055   6.011   2.627   9.658  0.1812  1.5154 -1.6649
  138SAPE   C3915056   5.912   2.598   9.467  0.2690  0.0717 -0.6368
  138SAPE   H9X15057   5.982   2.663   9.412 -1.0690  1.1054 -1.1594
  138SAPE   H9Y15058   5.807   2.603   9.433 -0.4816 -0.5050  1.4225
  138SAPE  C31015059   5.945   2.446   9.452  0.8348  0.0436 -0.1941
  138SAPE  H10X15060   5.884   2.390   9.526  0.8192  0.1091 -0.1566
  138SAPE  H10Y15061   6.046   2.440   9.498  0.0269  0.3328  1.6954
  138SAPE  C31115062   5.927   2.387   9.316  0.4472 -0.6561  0.4393
  138SAPE  H11X15063   5.849   2.428   9.247 -0.8507 -0.9277  1.7065
  138SAPE  H11Y15064   5.881   2.288   9.336 -0.7248 -0.5395 -1.4386
  138SAPE  C31215065   6.059   2.365   9.244  0.1605  0.0864  0.0584
  138SAPE  H12X15066   6.130   2.324   9.320 -1.2888 -2.8435 -0.0196
  138SAPE  H12Y15067   6.115   2.446   9.192  1.7900  0.3230  2.0582
  138SAPE  C31315068   6.049   2.244   9.143 -0.6001 -0.3674  0.4248
  138SAPE  H13X15069   5.980   2.272   9.061 -0.6542  1.2549  0.9783
  138SAPE  H13Y15070   6.018   2.152   9.197  0.2894 -0.9116  0.0368
  138SAPE  C31415071   6.191   2.213   9.079  0.4140  0.0585  0.1791
  138SAPE  H14X15072   6.268   2.224   9.159 -0.4548  0.4060  0.9784
  138SAPE  H14Y15073   6.219   2.282   8.997 -0.9298  1.4485  0.8487
  138SAPE  C31515074   6.202   2.074   9.018 -0.2219  0.1476 -0.1692
  138SAPE  H15X15075   6.165   1.995   9.086 -1.7999  0.6925 -0.3673
  138SAPE  H15Y15076   6.311   2.075   8.994 -0.2308  2.7380 -0.4051
  138SAPE  C31615077   6.138   2.076   8.879 -0.5136 -0.4502 -0.9841
  138SAPE  H16X15078   6.209   2.134   8.816  0.2321 -1.9203 -1.5301
  138SAPE  H16Y15079   6.035   2.114   8.898 -1.3041 -2.8765  0.0047
  138SAPE  C31715080   6.114   1.942   8.814  0.2912 -0.0486  0.4255
  138SAPE  H17X15081   6.059   1.951   8.717  1.0851 -3.3840 -0.4662
  138SAPE  H17Y15082   6.042   1.887   8.879 -1.3237  1.1063 -0.3094
  138SAPE  C31815083   6.242   1.867   8.785 -0.0794 -0.0480  0.1775
  138SAPE  H18X15084   6.270   1.815   8.878  2.1821 -1.4996 -1.2353
  138SAPE  H18Y15085   6.315   1.936   8.736  0.1932 -1.2794 -1.2190
  138SAPE  H18Z15086   6.218   1.782   8.719 -0.1768  0.6600 -0.7260
  139SAPE     N15087   6.513   0.447  10.665 -0.1197  0.0474  0.2127
  139SAPE   HN115088   6.581   0.427  10.741  0.6484 -0.4303 -0.5804
  139SAPE   HN215089   6.508   0.549  10.651 -2.1842  0.0813  0.8216
  139SAPE   HN315090   6.418   0.421  10.700  0.1852  0.3338  1.2890
  139SAPE   C1215091   6.564   0.383  10.539  0.3277  0.2274  0.3492
  139SAPE  H12A15092   6.665   0.424  10.517  0.9566 -1.0582  0.7102
  139SAPE  H12B15093   6.505   0.415  10.451 -0.2328 -2.9654 -0.5630
  139SAPE   C1115094   6.562   0.230  10.541  0.1383 -0.0003  0.1605
  139SAPE  H11A15095   6.582   0.193  10.438 -0.3670 -2.1861  0.7892
  139SAPE  H11B15096   6.455   0.206  10.561 -0.2903  1.0052 -0.8237
  139SAPE     P15097   6.794   0.123  10.613  0.0566 -0.2911 -0.1297
  139SAPE   O1315098   6.887   0.233  10.601 -0.2521  0.1855  0.2103
  139SAPE   O1415099   6.829   0.027  10.720  0.7074 -0.3309 -0.1781
  139SAPE   O1215100   6.644   0.176  10.642 -0.3502  0.3777  0.0058
  139SAPE   O1115101   6.779   0.057  10.472 -0.1677 -0.7470  0.5266
  139SAPE    C115102   6.839  -0.065  10.437 -0.2142  0.3252  0.6664
  139SAPE    HA15103   6.887  -0.119  10.521 -1.4327 -2.6968 -0.4244
  139SAPE    HB15104   6.760  -0.128  10.388  0.3572  0.0124  0.1247
  139SAPE    C215105   6.939  -0.056  10.323 -0.2009  0.1140  0.0488
  139SAPE    HS15106   7.034  -0.027  10.372 -0.8503  0.8095  0.9171
  139SAPE   O2115107   6.893   0.028  10.220 -0.4335  0.1976  0.3273
  139SAPE   C2115108   6.979   0.121  10.184  0.6002  0.4965 -0.3710
  139SAPE   O2215109   7.092   0.135  10.223  0.5051  0.1806 -0.4900
  139SAPE   C2215110   6.911   0.206  10.072  0.1507  0.2187 -0.1795
  139SAPE   H2R15111   6.845   0.144  10.007 -1.8610  1.1452  0.8813
  139SAPE   H2S15112   6.837   0.276  10.117  1.6191  2.5330 -1.1934
  139SAPE    C315113   6.962  -0.198  10.249  0.2564  0.2398  0.7756
  139SAPE    HX15114   6.861  -0.226  10.212 -0.5737  1.0272  2.3279
  139SAPE    HY15115   6.991  -0.259  10.338 -0.3121 -1.9885 -0.4732
  139SAPE   O3115116   7.077  -0.202  10.156  0.0512 -0.7936 -1.1092
  139SAPE   C3115117   7.044  -0.255  10.040 -0.6071  0.7003  0.0322
  139SAPE   O3215118   6.939  -0.309  10.005  0.0722  0.5783  0.0324
  139SAPE   C3215119   7.159  -0.235   9.943  0.1938 -0.0569  0.0164
  139SAPE   H2X15120   7.258  -0.272   9.977 -0.4925 -0.7298  1.3432
  139SAPE   H2Y15121   7.165  -0.125   9.930  0.6589  0.0538  1.1046
  139SAPE   C2315122   7.023   0.272   9.996  1.3178 -0.6113  0.3942
  139SAPE   H3R15123   7.105   0.316  10.057 -0.4374  3.0519  0.4148
  139SAPE   H3S15124   6.979   0.353   9.934 -2.1266 -0.4200  2.7824
  139SAPE   C2415125   7.094   0.182   9.885 -0.3715  0.3808 -0.4836
  139SAPE   H4R15126   7.152   0.098   9.929 -1.4161  0.0240  0.2716
  139SAPE   H4S15127   7.177   0.243   9.844  2.0066 -1.6730  0.9885
  139SAPE   C2515128   7.014   0.117   9.781 -0.3417  0.4683  0.8138
  139SAPE   H5R15129   6.914   0.086   9.815  0.0516 -1.5018  0.3011
  139SAPE   C2615130   7.054   0.105   9.650  0.7318  0.1458  0.1780
  139SAPE   H6R15131   6.989   0.043   9.587 -0.9122 -0.1475  2.0677
  139SAPE   C2715132   7.190   0.150   9.598 -0.4753 -0.1291  0.2905
  139SAPE   H7R15133   7.215   0.077   9.517  3.3810  1.4183 -0.1536
  139SAPE   H7S15134   7.274   0.155   9.671  0.8936  1.5525 -1.3055
  139SAPE   C2815135   7.196   0.284   9.536 -0.0475 -0.4463  0.4880
  139SAPE   H8R15136   7.206   0.366   9.609  0.7667  0.0750 -0.1952
  139SAPE   C2915137   7.173   0.316   9.404  0.4514 -0.3675 -0.0788
  139SAPE   H9R15138   7.138   0.419   9.394  0.6327 -0.0830  1.7902
  139SAPE  C21015139   7.128   0.218   9.299  0.1825  0.3027 -0.3113
  139SAPE  H10R15140   7.033   0.171   9.331 -0.9003  3.2129  1.0667
  139SAPE  H10S15141   7.208   0.141   9.302  0.0486  0.1459  2.9437
  139SAPE  C21115142   7.118   0.289   9.160 -0.0380  0.8494  0.4525
  139SAPE  H11R15143   7.179   0.381   9.159 -0.0336  0.9481  2.8434
  139SAPE  C21215144   7.057   0.258   9.047 -0.0363  0.2373 -0.1086
  139SAPE  H12R15145   7.063   0.327   8.962 -0.9054  1.1091  0.5192
  139SAPE  C21315146   6.976   0.137   9.017  0.9013  0.2645  0.1805
  139SAPE  H13R15147   6.876   0.175   8.985 -0.0636 -1.0492  1.4901
  139SAPE  H13S15148   6.965   0.071   9.106 -0.3871 -1.5430 -1.2299
  139SAPE  C21415149   7.036   0.054   8.911 -0.3633  0.1328  0.3804
  139SAPE  H14R15150   7.121  -0.003   8.951 -0.5042  0.5437  1.2658
  139SAPE  C21515151   7.005   0.044   8.782  0.8248  1.7000 -0.5792
  139SAPE  H15R15152   7.052  -0.038   8.726 -1.2679  0.2809 -0.3698
  139SAPE  C21615153   6.894   0.107   8.703 -0.7522 -0.3307 -0.7166
  139SAPE  H16R15154   6.904   0.218   8.701  2.6817 -0.5181 -2.0537
  139SAPE  H16S15155   6.800   0.072   8.750 -0.3493  1.2071  1.4020
  139SAPE  C21715156   6.881   0.061   8.559  0.3354  0.5417 -0.5266
  139SAPE  H17R15157   6.883  -0.050   8.558  0.4270  0.5408 -1.4542
  139SAPE  H17S15158   6.976   0.093   8.512  0.0948  1.6948 -0.2814
  139SAPE  C21815159   6.749   0.112   8.489  0.4270  0.2638  0.4364
  139SAPE  H18R15160   6.765   0.220   8.467 -0.1927  0.2687  0.0031
  139SAPE  H18S15161   6.660   0.092   8.551  0.8396  0.0349  0.9603
  139SAPE  C21915162   6.732   0.044   8.348 -0.6531  0.7992 -0.8312
  139SAPE  H19R15163   6.679  -0.054   8.352 -1.2739  1.1348 -0.7023
  139SAPE  H19S15164   6.833   0.012   8.316 -1.1332 -0.7271 -0.8881
  139SAPE  C22015165   6.662   0.133   8.247  0.4109 -0.4667 -0.5005
  139SAPE  H20R15166   6.625   0.076   8.159  0.1566 -0.5877 -0.3181
  139SAPE  H20S15167   6.732   0.211   8.210  1.9781 -2.9511 -3.1840
  139SAPE  H20T15168   6.573   0.176   8.297 -1.2702 -2.7320 -1.3606
  139SAPE   C3315169   7.116  -0.297   9.807  0.1509 -1.1589  0.0206
  139SAPE   H3X15170   7.022  -0.245   9.776  2.3887  4.6063  1.5178
  139SAPE   H3Y15171   7.110  -0.407   9.810  0.3801 -1.1956 -0.6794
  139SAPE   C3415172   7.206  -0.249   9.682  0.3710 -0.3703  0.2151
  139SAPE   H4X15173   7.299  -0.309   9.680  0.8912  0.3849 -2.9868
  139SAPE   H4Y15174   7.220  -0.140   9.700 -3.4634  0.3927 -0.4314
  139SAPE   C3515175   7.136  -0.276   9.548 -0.5671  0.1586  0.9403
  139SAPE   H5X15176   7.045  -0.212   9.548 -0.8393 -0.1821 -0.9021
  139SAPE   H5Y15177   7.112  -0.385   9.541 -0.9414  0.2632  0.5535
  139SAPE   C3615178   7.214  -0.232   9.423 -0.3934 -0.5045  0.2371
  139SAPE   H6X15179   7.317  -0.275   9.430 -0.9775 -1.8011  1.3358
  139SAPE   H6Y15180   7.213  -0.122   9.406 -3.3666 -0.0263  2.7792
  139SAPE   C3715181   7.162  -0.296   9.292 -0.3840  0.1971  0.0243
  139SAPE   H7X15182   7.057  -0.260   9.299 -1.2237 -1.4302 -2.6800
  139SAPE   H7Y15183   7.156  -0.407   9.296  0.7255  0.1719  2.5245
  139SAPE   C3815184   7.228  -0.242   9.159  0.4870  0.2176 -0.6075
  139SAPE   H8X15185   7.337  -0.260   9.169  0.2259 -1.1113 -0.0571
  139SAPE   H8Y15186   7.210  -0.132   9.154  0.8665  0.2513 -1.4436
  139SAPE   C3915187   7.170  -0.323   9.046  0.3913 -0.0609  0.1808
  139SAPE   H9X15188   7.061  -0.307   9.035  0.3581 -0.6296 -0.4141
  139SAPE   H9Y15189   7.187  -0.430   9.070 -0.3876  0.0832  1.4386
  139SAPE  C31015190   7.224  -0.282   8.905 -0.3370  0.3887  0.7893
  139SAPE  H10X15191   7.334  -0.296   8.912 -0.4677 -1.1766  0.0927
  139SAPE  H10Y15192   7.193  -0.179   8.878  0.8077 -0.0234 -2.6091
  139SAPE  C31115193   7.159  -0.373   8.802  0.1641  0.1240  0.3150
  139SAPE  H11X15194   7.048  -0.361   8.807  0.1963  0.0624  1.9345
  139SAPE  H11Y15195   7.176  -0.480   8.828 -0.4433 -0.2883 -0.9031
  139SAPE  C31215196   7.212  -0.359   8.657 -0.5552 -0.2606  0.4801
  139SAPE  H12X15197   7.323  -0.358   8.658 -0.4351 -3.2030 -0.9864
  139SAPE  H12Y15198   7.183  -0.264   8.607  1.4251  0.2636  0.2093
  139SAPE  C31315199   7.186  -0.477   8.568 -0.0063  0.6916  0.4819
  139SAPE  H13X15200   7.091  -0.452   8.515  2.0671  0.2100 -3.8151
  139SAPE  H13Y15201   7.174  -0.567   8.632 -2.1064  0.1319 -0.5981
  139SAPE  C31415202   7.298  -0.509   8.460  0.6277  0.3018 -0.2288
  139SAPE  H14X15203   7.276  -0.603   8.404  0.5476  0.5483 -0.6084
  139SAPE  H14Y15204   7.391  -0.524   8.519  1.1437  0.7317 -0.9224
  139SAPE  C31515205   7.322  -0.393   8.365 -0.0086 -0.0595 -0.1955
  139SAPE  H15X15206   7.348  -0.291   8.400  1.4300  0.3347 -2.2443
  139SAPE  H15Y15207   7.227  -0.382   8.308  0.0324 -1.9882 -0.7080
  139SAPE  C31615208   7.429  -0.431   8.255  0.1797  0.0322  0.5757
  139SAPE  H16X15209   7.522  -0.462   8.308  0.3873 -1.0578 -0.3797
  139SAPE  H16Y15210   7.374  -0.505   8.193  1.5102 -0.6075  0.1226
  139SAPE  C31715211   7.461  -0.319   8.159 -0.7399 -0.1280  0.2299
  139SAPE  H17X15212   7.504  -0.236   8.220  2.5155 -1.0706 -0.5830
  139SAPE  H17Y15213   7.379  -0.284   8.092 -0.1503  1.0055  0.0662
  139SAPE  C31815214   7.573  -0.345   8.054 -0.7230  0.0741  0.6212
  139SAPE  H18X15215   7.675  -0.347   8.096 -1.0193  1.2115  1.4453
  139SAPE  H18Y15216   7.568  -0.262   7.980  1.1636 -0.3432 -0.0094
  139SAPE  H18Z15217   7.557  -0.443   8.006 -0.5670 -0.6067  1.9255
  140SAPE     N15218   2.151   5.199  10.706  0.6449 -0.2088 -0.9813
  140SAPE   HN115219   2.148   5.302  10.720 -0.2198 -0.3020 -0.3757
  140SAPE   HN215220   2.237   5.170  10.758 -0.6343  0.9472  2.0289
  140SAPE   HN315221   2.171   5.170  10.608 -1.6548  0.9340 -1.8622
  140SAPE   C1215222   2.020   5.129  10.750  0.2228 -0.1887 -0.2431
  140SAPE  H12A15223   1.969   5.079  10.665 -0.4522  2.0679 -1.2271
  140SAPE  H12B15224   1.956   5.209  10.793  0.0631 -0.7158  0.5198
  140SAPE   C1115225   2.048   5.023  10.861  0.2808  0.1053  0.0946
  140SAPE  H11A15226   1.950   4.976  10.883 -0.5763  1.4561 -0.6603
  140SAPE  H11B15227   2.088   5.077  10.950 -0.3910  2.2206 -0.8279
  140SAPE     P15228   2.167   4.811  10.918 -0.2397 -0.0641  0.1347
  140SAPE   O1315229   2.251   4.840  11.033  0.0860 -0.2124  0.5129
  140SAPE   O1415230   2.044   4.735  10.939 -0.2561 -0.2675  0.1756
  140SAPE   O1215231   2.141   4.931  10.814 -0.0722 -0.0095 -0.9966
  140SAPE   O1115232   2.264   4.720  10.832  0.3079  0.4505 -0.2555
  140SAPE    C115233   2.373   4.768  10.747 -0.2079 -1.4259 -0.2991
  140SAPE    HA15234   2.324   4.835  10.673 -0.1827 -1.0950 -0.0189
  140SAPE    HB15235   2.448   4.829  10.803 -0.2197 -2.8063  1.3088
  140SAPE    C215236   2.443   4.660  10.664  0.0717  0.5528  0.1604
  140SAPE    HS15237   2.466   4.575  10.732 -0.1502 -1.9264 -2.6276
  140SAPE   O2115238   2.552   4.709  10.585 -0.0497 -0.5434 -1.0052
  140SAPE   C2115239   2.666   4.734  10.649 -0.0729  0.5510  0.0177
  140SAPE   O2215240   2.677   4.710  10.767  0.2200 -0.0416  0.1762
  140SAPE   C2215241   2.768   4.781  10.556 -0.7372  0.1444  0.3937
  140SAPE   H2R15242   2.757   4.744  10.452  1.3548 -0.1257  0.2170
  140SAPE   H2S15243   2.770   4.892  10.556  2.0447  0.1886 -1.8271
  140SAPE    C315244   2.336   4.595  10.569  0.1618  0.2153  0.0813
  140SAPE    HX15245   2.312   4.677  10.498 -0.0735  0.1939  0.1355
  140SAPE    HY15246   2.241   4.573  10.624  1.0805  0.7170  1.9736
  140SAPE   O3115247   2.394   4.492  10.485  0.1972  0.0271 -0.1062
  140SAPE   C3115248   2.296   4.430  10.428 -0.9726 -0.2628 -0.8016
  140SAPE   O3215249   2.179   4.454  10.446 -0.3425  0.7195 -0.1779
  140SAPE   C3215250   2.356   4.337  10.326 -0.3007  0.6610  0.2162
  140SAPE   H2X15251   2.402   4.255  10.386 -2.5619 -0.2426  0.8067
  140SAPE   H2Y15252   2.442   4.385  10.274 -0.7066 -0.5837 -1.7061
  140SAPE   C2315253   2.915   4.730  10.590 -0.3956 -0.0365  0.0676
  140SAPE   H3R15254   2.923   4.621  10.572 -1.2645 -0.0402 -0.3154
  140SAPE   H3S15255   2.944   4.754  10.695  0.5464 -2.4625  0.4201
  140SAPE   C2415256   3.019   4.795  10.492 -0.1011  0.5777  0.5206
  140SAPE   H4R15257   2.972   4.787  10.392  0.6600 -0.4173  0.2361
  140SAPE   H4S15258   3.108   4.729  10.485 -0.2415  0.4920 -0.6600
  140SAPE   C2515259   3.068   4.937  10.515  1.0732 -0.0581  0.4254
  140SAPE   H5R15260   3.108   4.945  10.617 -0.2132 -1.3147  1.0665
  140SAPE   C2615261   3.066   5.043  10.431 -0.7101 -0.3562 -0.1983
  140SAPE   H6R15262   3.128   5.132  10.447  0.2237 -0.8918 -0.7553
  140SAPE   C2715263   3.026   5.038  10.289 -0.5067  0.6976  0.6725
  140SAPE   H7R15264   3.090   4.956  10.253 -0.9470  0.9172 -0.6795
  140SAPE   H7S15265   3.057   5.133  10.239 -1.6751  1.0672  0.6172
  140SAPE   C2815266   2.885   5.018  10.252  0.1345 -0.1132  0.1654
  140SAPE   H8R15267   2.817   4.968  10.322 -0.2730 -0.1281 -0.2325
  140SAPE   C2915268   2.827   5.054  10.133  0.1121  0.9702 -0.3014
  140SAPE   H9R15269   2.720   5.029  10.129  0.2063 -0.9887  3.8038
  140SAPE  C21015270   2.887   5.124  10.017 -0.1289 -0.1495  0.4110
  140SAPE  H10R15271   2.911   5.230  10.041 -0.1685  0.0896 -0.5440
  140SAPE  H10S15272   2.800   5.137   9.948 -0.1889  0.8233  0.6487
  140SAPE  C21115273   2.994   5.054   9.941 -0.2215 -0.0611 -0.2601
  140SAPE  H11R15274   3.065   5.008  10.012 -0.2315 -1.3800 -1.0807
  140SAPE  C21215275   3.027   5.053   9.809 -1.0444  0.3569 -0.0779
  140SAPE  H12R15276   3.107   4.991   9.766  0.3369  3.3883 -2.2139
  140SAPE  C21315277   2.955   5.134   9.695 -0.8084 -0.1485  0.2577
  140SAPE  H13R15278   2.865   5.179   9.741 -0.4707  1.6310 -0.7362
  140SAPE  H13S15279   2.909   5.067   9.619 -0.4788 -1.6289  1.3113
  140SAPE  C21415280   3.040   5.236   9.627 -0.4226  0.5127  0.3107
  140SAPE  H14R15281   3.074   5.323   9.686  0.5603  0.5236 -0.2397
  140SAPE  C21515282   3.083   5.239   9.498 -0.4844 -0.4357  0.3475
  140SAPE  H15R15283   3.149   5.323   9.471 -2.2741  0.8509 -0.1914
  140SAPE  C21615284   3.053   5.143   9.378 -0.2375 -0.4813 -0.0512
  140SAPE  H16R15285   2.943   5.158   9.365 -0.2746 -1.3973 -0.8935
  140SAPE  H16S15286   3.086   5.040   9.406  3.0245 -0.3747 -2.9008
  140SAPE  C21715287   3.121   5.183   9.246 -0.1659 -0.4772  0.2024
  140SAPE  H17R15288   3.231   5.192   9.257 -0.0313  1.4067 -1.9834
  140SAPE  H17S15289   3.079   5.284   9.226 -0.0490 -0.6094 -0.7220
  140SAPE  C21815290   3.087   5.102   9.125 -0.4887  0.0373  0.4517
  140SAPE  H18R15291   2.979   5.085   9.140 -0.4030 -0.1967  0.8204
  140SAPE  H18S15292   3.142   5.006   9.124  0.3548  0.5167 -0.3657
  140SAPE  C21915293   3.122   5.174   8.991  0.2136 -0.1311  0.1990
  140SAPE  H19R15294   3.226   5.210   9.005 -0.3247  1.2545  0.7717
  140SAPE  H19S15295   3.060   5.265   8.983  1.9952  1.0774 -0.5058
  140SAPE  C22015296   3.113   5.086   8.863 -0.0773  0.4497 -0.2282
  140SAPE  H20R15297   3.130   4.978   8.887 -0.0186  0.4506 -0.2659
  140SAPE  H20S15298   3.201   5.111   8.801  1.7962 -2.7053  0.9207
  140SAPE  H20T15299   3.013   5.094   8.814  0.3016  0.0452 -1.0728
  140SAPE   C3315300   2.246   4.295  10.229  0.3793 -0.5873 -0.3162
  140SAPE   H3X15301   2.184   4.383  10.201  1.7725  0.7161  0.5164
  140SAPE   H3Y15302   2.166   4.230  10.272 -0.7541  1.4069  0.7167
  140SAPE   C3415303   2.298   4.231  10.105 -0.1791 -1.1481  0.5073
  140SAPE   H4X15304   2.341   4.132  10.132  2.3708 -0.7994 -1.8497
  140SAPE   H4Y15305   2.383   4.291  10.066 -0.0617 -0.7995  1.2908
  140SAPE   C3515306   2.199   4.217   9.995 -0.5813 -0.4894  0.6861
  140SAPE   H5X15307   2.165   4.314   9.953  0.7528  0.1173  0.9228
  140SAPE   H5Y15308   2.108   4.163  10.028 -1.7022 -0.3504 -1.9840
  140SAPE   C3615309   2.257   4.144   9.871  0.1359 -0.2649 -0.5579
  140SAPE   H6X15310   2.307   4.051   9.906 -0.1619 -0.3672 -0.4023
  140SAPE   H6Y15311   2.337   4.204   9.823  0.0655  1.0484  0.8872
  140SAPE   C3715312   2.144   4.118   9.767  0.0201  0.1980  0.2079
  140SAPE   H7X15313   2.090   4.214   9.758 -3.2045 -1.4969 -0.1671
  140SAPE   H7Y15314   2.076   4.037   9.804  0.8739 -1.0942 -0.9576
  140SAPE   C3815315   2.197   4.087   9.627  0.3888 -0.6608  0.2613
  140SAPE   H8X15316   2.248   3.988   9.628  1.3192 -0.2411 -1.3907
  140SAPE   H8Y15317   2.265   4.166   9.590 -0.5634  0.2895  0.4786
  140SAPE   C3915318   2.088   4.069   9.515 -0.2658 -0.4244  0.4458
  140SAPE   H9X15319   2.028   4.162   9.504  1.3990  0.6970  0.4708
  140SAPE   H9Y15320   2.014   3.994   9.553  1.4944 -2.5538 -0.1082
  140SAPE  C31015321   2.136   4.019   9.377 -0.2103 -0.4018  0.6244
  140SAPE  H10X15322   2.060   4.026   9.296  0.0295 -1.1069  0.3209
  140SAPE  H10Y15323   2.155   3.909   9.375  1.1646 -0.1807 -0.9414
  140SAPE  C31115324   2.267   4.073   9.315  0.7049 -0.2807 -0.0337
  140SAPE  H11X15325   2.353   4.029   9.370 -0.0297 -2.8175 -0.8094
  140SAPE  H11Y15326   2.276   4.183   9.325  0.8696 -0.1947 -1.0498
  140SAPE  C31215327   2.280   4.034   9.161  0.2401  0.0700  0.1886
  140SAPE  H12X15328   2.253   3.926   9.161  2.0078 -0.4673  2.5219
  140SAPE  H12Y15329   2.382   4.058   9.125 -0.2364  1.7249 -0.1230
  140SAPE  C31315330   2.187   4.110   9.066 -0.2141  1.0155  0.2351
  140SAPE  H13X15331   2.222   4.215   9.054  2.2588  0.2968  0.5569
  140SAPE  H13Y15332   2.083   4.108   9.105  0.1005  0.3629  1.0576
  140SAPE  C31415333   2.183   4.050   8.923  0.0861 -0.1326  0.6524
  140SAPE  H14X15334   2.110   4.102   8.858 -1.3870 -3.0730 -0.2416
  140SAPE  H14Y15335   2.141   3.949   8.942 -0.4017 -0.1395 -0.4205
  140SAPE  C31515336   2.316   4.051   8.854  0.0654 -0.0807  0.2422
  140SAPE  H15X15337   2.313   3.991   8.761  0.0590 -1.3622  1.0499
  140SAPE  H15Y15338   2.395   4.010   8.921 -0.4784  0.7486  1.4337
  140SAPE  C31615339   2.362   4.190   8.800  0.1377  0.1336  0.2263
  140SAPE  H16X15340   2.380   4.255   8.888  0.2271  0.7459 -0.2331
  140SAPE  H16Y15341   2.286   4.252   8.746 -0.2625 -1.3068 -0.9186
  140SAPE  C31715342   2.492   4.180   8.724 -0.7365  0.0474  0.4556
  140SAPE  H17X15343   2.518   4.072   8.721  1.1542  0.4715 -1.5321
  140SAPE  H17Y15344   2.578   4.230   8.775  2.8896 -0.8302 -4.0684
  140SAPE  C31815345   2.472   4.224   8.580 -0.0664 -0.1760 -0.2577
  140SAPE  H18X15346   2.461   4.335   8.581  0.3393 -0.1363 -0.1962
  140SAPE  H18Y15347   2.388   4.183   8.519  0.3156  1.0665 -1.6825
  140SAPE  H18Z15348   2.566   4.196   8.529  1.5341  3.6591  0.2917
  141SAPE     N15349   3.299   5.664  11.080 -0.3169  0.7696  0.0937
  141SAPE   HN115350   3.357   5.690  11.162  1.7077  1.8628 -1.5599
  141SAPE   HN215351   3.213   5.612  11.106  0.4951 -0.7708 -0.1856
  141SAPE   HN315352   3.354   5.603  11.016  1.1040 -0.2751  2.2148
  141SAPE   C1215353   3.267   5.789  11.003  0.3084  0.8176  0.1870
  141SAPE  H12A15354   3.352   5.811  10.935 -0.4209  1.9324 -0.3814
  141SAPE  H12B15355   3.234   5.870  11.071  2.0411  0.7387  1.1737
  141SAPE   C1115356   3.141   5.756  10.925  0.4994 -0.1497 -0.3110
  141SAPE  H11A15357   3.168   5.682  10.847  1.0272  0.4021 -0.6584
  141SAPE  H11B15358   3.097   5.838  10.865 -0.8875 -0.6786 -0.0701
  141SAPE     P15359   2.893   5.679  10.968 -0.8386 -0.1996 -0.1258
  141SAPE   O1315360   2.855   5.551  11.029  0.4364  0.3453 -0.8134
  141SAPE   O1415361   2.824   5.801  11.006 -0.0304 -0.1235 -0.3782
  141SAPE   O1215362   3.045   5.707  11.019 -0.1787  0.3322  0.0801
  141SAPE   O1115363   2.904   5.664  10.807  0.4208 -0.1322  0.0620
  141SAPE    C115364   2.931   5.542  10.745 -1.0098  0.0762 -0.3652
  141SAPE    HA15365   3.004   5.481  10.802  1.3846  2.1724 -0.9962
  141SAPE    HB15366   2.846   5.480  10.710  0.0518 -1.4750 -0.2878
  141SAPE    C215367   2.998   5.582  10.608 -0.2223 -0.1855 -0.8810
  141SAPE    HS15368   3.079   5.656  10.628  0.6893 -1.2414 -0.5916
  141SAPE   O2115369   2.899   5.634  10.513  0.0448 -0.5493  0.0567
  141SAPE   C2115370   2.928   5.757  10.471  0.2908 -1.1819 -0.0663
  141SAPE   O2215371   2.989   5.848  10.525  0.1543  0.0782 -0.4548
  141SAPE   C2215372   2.867   5.773  10.332 -0.3912 -0.3931 -0.0442
  141SAPE   H2R15373   2.898   5.694  10.261  0.8311  0.1168 -0.0939
  141SAPE   H2S15374   2.756   5.772  10.344 -0.6487  2.4667 -1.4488
  141SAPE    C315375   3.076   5.474  10.532 -0.5508 -0.0415 -0.0040
  141SAPE    HX15376   3.011   5.388  10.503  2.5441 -2.3312 -0.6469
  141SAPE    HY15377   3.155   5.434  10.599 -0.8037 -0.8972 -0.1960
  141SAPE   O3115378   3.124   5.549  10.416 -0.2565 -0.0731 -0.6005
  141SAPE   C3115379   3.182   5.475  10.322 -0.6708 -0.3501 -0.3399
  141SAPE   O3215380   3.208   5.356  10.326  0.0134 -0.5453 -0.1859
  141SAPE   C3215381   3.215   5.572  10.204  0.2995  0.2331 -0.1880
  141SAPE   H2X15382   3.316   5.620  10.214  0.9156 -0.9290 -0.7151
  141SAPE   H2Y15383   3.139   5.653  10.208 -2.2906 -2.1110  0.4852
  141SAPE   C2315384   2.922   5.905  10.268  0.3764 -0.5964  0.1762
  141SAPE   H3R15385   3.032   5.912  10.256  0.2023  0.2820 -1.2520
  141SAPE   H3S15386   2.896   5.991  10.334  0.3657 -0.4345 -0.0355
  141SAPE   C2415387   2.860   5.927  10.132 -0.4275  0.5376 -0.4782
  141SAPE   H4R15388   2.751   5.920  10.154 -0.5281  3.2268  0.1858
  141SAPE   H4S15389   2.900   5.838  10.078  1.0325  0.0251  1.3577
  141SAPE   C2515390   2.892   6.054  10.074 -0.6878 -0.6504 -0.4887
  141SAPE   H5R15391   2.861   6.137  10.138 -2.9285 -0.4942 -1.6657
  141SAPE   C2615392   2.956   6.081   9.958  0.0962 -0.0299 -0.4806
  141SAPE   H6R15393   2.978   6.181   9.921 -1.8929  1.7900  2.7430
  141SAPE   C2715394   3.017   5.970   9.869  0.2121 -0.3396 -0.0722
  141SAPE   H7R15395   3.049   5.889   9.937  1.4085 -0.9741 -1.3631
  141SAPE   H7S15396   3.108   6.015   9.824  0.8993 -1.1902  0.4503
  141SAPE   C2815397   2.930   5.922   9.760  0.0573  0.1733 -0.1251
  141SAPE   H8R15398   2.841   5.864   9.788 -0.6421  0.4563 -1.6754
  141SAPE   C2915399   2.951   5.927   9.624  0.6615 -0.3419 -0.1434
  141SAPE   H9R15400   2.870   5.893   9.558  0.4135 -0.4345  0.2019
  141SAPE  C21015401   3.052   5.996   9.542 -1.2689  0.9521  0.3834
  141SAPE  H10R15402   3.126   5.924   9.499 -1.2351  0.7612  0.7613
  141SAPE  H10S15403   3.108   6.073   9.598 -0.1621 -0.1551  0.8440
  141SAPE  C21115404   2.989   6.081   9.434  0.4524 -0.5205  1.1723
  141SAPE  H11R15405   2.899   6.137   9.464  0.3639 -0.2560  0.4313
  141SAPE  C21215406   3.035   6.083   9.305  0.0863 -0.4622  0.4465
  141SAPE  H12R15407   2.989   6.154   9.235  2.4201  1.9043  1.1231
  141SAPE  C21315408   3.157   6.007   9.245  0.3732  0.2756 -0.1468
  141SAPE  H13R15409   3.152   5.977   9.138  2.0674  1.3229 -0.5697
  141SAPE  H13S15410   3.167   5.907   9.293 -1.0109  0.0083 -0.3892
  141SAPE  C21415411   3.278   6.097   9.275  0.5796  0.3113  0.5498
  141SAPE  H14R15412   3.272   6.127   9.381 -0.0437  2.3339 -0.0141
  141SAPE  C21515413   3.364   6.157   9.190 -0.1793  0.5774 -1.0887
  141SAPE  H15R15414   3.444   6.218   9.234 -0.9823 -0.0736  1.4234
  141SAPE  C21615415   3.374   6.138   9.040 -0.5025  0.6238 -0.4577
  141SAPE  H16R15416   3.340   6.231   8.992  0.5994  0.0237 -2.5374
  141SAPE  H16S15417   3.302   6.065   8.997  0.0124  1.3308 -2.6497
  141SAPE  C21715418   3.515   6.105   8.979  0.2108 -0.1363 -0.0670
  141SAPE  H17R15419   3.582   6.176   9.033  0.7155  0.3564 -1.3092
  141SAPE  H17S15420   3.514   6.134   8.872 -1.7047 -2.8852 -0.9084
  141SAPE  C21815421   3.582   5.971   9.004  0.5265 -0.3005  0.2423
  141SAPE  H18R15422   3.591   5.944   9.111 -0.5302  1.9897  0.9785
  141SAPE  H18S15423   3.687   5.978   8.969  1.4119 -3.6886  1.8195
  141SAPE  C21915424   3.503   5.869   8.919 -0.6205  0.1971  0.5005
  141SAPE  H19R15425   3.396   5.867   8.951 -0.8569  1.9158 -0.0553
  141SAPE  H19S15426   3.543   5.768   8.944 -0.7143  0.1177  0.3329
  141SAPE  C22015427   3.523   5.885   8.767  0.4595  0.0433  0.4384
  141SAPE  H20R15428   3.471   5.809   8.705 -1.9149 -0.3455  2.7219
  141SAPE  H20S15429   3.632   5.874   8.750  0.1061  0.8976 -3.0890
  141SAPE  H20T15430   3.488   5.985   8.732  3.1087  0.6230 -0.7858
  141SAPE   C3315431   3.221   5.511  10.061 -0.4264  0.6353  0.7012
  141SAPE   H3X15432   3.133   5.443  10.053  1.0081 -1.3350  1.0180
  141SAPE   H3Y15433   3.298   5.432  10.051 -0.3431  0.7828  0.1437
  141SAPE   C3415434   3.229   5.616   9.954 -0.5259 -0.3383  0.3427
  141SAPE   H4X15435   3.312   5.686   9.981  0.2790  0.2908 -3.3111
  141SAPE   H4Y15436   3.137   5.677   9.964 -0.5050 -0.4102  1.0795
  141SAPE   C3515437   3.253   5.568   9.807 -0.4382 -0.1128 -0.5184
  141SAPE   H5X15438   3.162   5.530   9.757 -0.8501 -2.0344  1.5200
  141SAPE   H5Y15439   3.317   5.477   9.813 -0.7032 -0.4387 -2.1836
  141SAPE   C3615440   3.308   5.671   9.713 -0.5674 -0.1493 -0.4638
  141SAPE   H6X15441   3.414   5.695   9.732 -0.5223  1.2918 -2.2900
  141SAPE   H6Y15442   3.253   5.767   9.709  0.9319  0.7700  0.2641
  141SAPE   C3715443   3.313   5.621   9.564  0.0330 -0.5253 -0.3569
  141SAPE   H7X15444   3.215   5.616   9.513  0.4913 -1.3903 -1.1772
  141SAPE   H7Y15445   3.360   5.520   9.555  0.2554 -0.2202 -4.2662
  141SAPE   C3815446   3.387   5.730   9.485 -0.6230  0.4507 -0.0220
  141SAPE   H8X15447   3.488   5.739   9.530 -0.8856 -0.2459  0.7273
  141SAPE   H8Y15448   3.342   5.829   9.509 -0.4495  0.5938 -0.2775
  141SAPE   C3915449   3.387   5.723   9.331  0.2016  0.0044  0.0978
  141SAPE   H9X15450   3.429   5.817   9.289 -1.3243  1.5416  1.8573
  141SAPE   H9Y15451   3.282   5.713   9.298 -0.1402 -0.5020  1.3109
  141SAPE  C31015452   3.453   5.599   9.279 -0.1120 -0.2311  0.0355
  141SAPE  H10X15453   3.441   5.514   9.350 -1.2187 -0.4343 -0.3877
  141SAPE  H10Y15454   3.563   5.615   9.273 -0.1197 -0.5635 -1.4869
  141SAPE  C31115455   3.401   5.558   9.140  0.1483 -0.0714  0.2101
  141SAPE  H11X15456   3.412   5.649   9.077  0.8398  0.8875  1.6485
  141SAPE  H11Y15457   3.291   5.544   9.151  0.1890 -0.4316  0.1509
  141SAPE  C31215458   3.476   5.444   9.069  0.3347 -0.2991 -0.6288
  141SAPE  H12X15459   3.416   5.351   9.080  1.7319 -1.5904 -3.0203
  141SAPE  H12Y15460   3.573   5.434   9.122 -0.3891  0.3768  0.8774
  141SAPE  C31315461   3.514   5.451   8.921  0.0405  0.4299 -0.0606
  141SAPE  H13X15462   3.561   5.358   8.883  0.9534  0.7144  0.3399
  141SAPE  H13Y15463   3.592   5.527   8.903  0.7182 -0.5049 -1.1883
  141SAPE  C31415464   3.392   5.462   8.838 -0.0366 -0.3607 -0.7495
  141SAPE  H14X15465   3.340   5.558   8.856 -0.8907 -1.4508  3.6325
  141SAPE  H14Y15466   3.322   5.384   8.875  0.6859 -0.9207 -0.5463
  141SAPE  C31515467   3.421   5.424   8.693 -0.2837  0.9385  0.1268
  141SAPE  H15X15468   3.439   5.315   8.694 -2.8366  0.4662  0.1811
  141SAPE  H15Y15469   3.521   5.467   8.667 -1.3250  3.0899 -0.6143
  141SAPE  C31615470   3.314   5.453   8.592 -0.1086 -0.4128  0.4396
  141SAPE  H16X15471   3.294   5.562   8.597  0.2609 -0.2800 -0.5747
  141SAPE  H16Y15472   3.217   5.402   8.613 -0.6739  0.0435 -0.9490
  141SAPE  C31715473   3.364   5.427   8.454 -0.2750  0.3290  0.1216
  141SAPE  H17X15474   3.395   5.321   8.445 -1.1931 -0.0000  0.6510
  141SAPE  H17Y15475   3.445   5.494   8.421 -2.1474  2.9522  0.5256
  141SAPE  C31815476   3.253   5.450   8.346 -0.2158 -0.6904 -0.6658
  141SAPE  H18X15477   3.161   5.389   8.357 -1.7691  1.4400 -1.3828
  141SAPE  H18Y15478   3.297   5.426   8.247  1.1608 -1.8704  0.1869
  141SAPE  H18Z15479   3.224   5.557   8.348  0.2138 -0.5154 -2.3237
  142SAPE     N15480   2.951   4.629  11.230 -0.1814 -0.0117 -0.0846
  142SAPE   HN115481   2.861   4.645  11.181  1.0953  2.2106 -1.8564
  142SAPE   HN215482   2.999   4.716  11.262 -1.0507  1.2837 -2.1372
  142SAPE   HN315483   3.024   4.600  11.161  0.4430  2.1666 -0.4049
  142SAPE   C1215484   2.936   4.548  11.351 -0.6958 -0.0491  0.5941
  142SAPE  H12A15485   2.842   4.586  11.397 -1.5825  1.7716 -2.4554
  142SAPE  H12B15486   3.022   4.564  11.420 -1.7228  0.9056  1.7245
  142SAPE   C1115487   2.919   4.401  11.312 -0.4225  0.7596 -0.2422
  142SAPE  H11A15488   2.896   4.347  11.407  2.3706  1.4574  0.9105
  142SAPE  H11B15489   3.010   4.354  11.270  0.1400  2.4344 -0.9720
  142SAPE     P15490   2.754   4.236  11.198  0.2079 -0.4146  0.2589
  142SAPE   O1315491   2.848   4.132  11.228 -0.6269 -0.3000  1.2099
  142SAPE   O1415492   2.623   4.235  11.276 -0.2034  0.1915 -0.3117
  142SAPE   O1215493   2.815   4.378  11.212 -0.7253  0.1021  0.4843
  142SAPE   O1115494   2.728   4.228  11.040  0.3362 -0.1948  0.4327
  142SAPE    C115495   2.682   4.343  10.961  0.0363  0.1644 -0.7250
  142SAPE    HA15496   2.584   4.323  10.913  0.0600 -0.0781 -0.6747
  142SAPE    HB15497   2.663   4.432  11.025 -0.2058  1.3315 -2.3418
  142SAPE    C215498   2.771   4.360  10.833  0.2046  0.6503 -0.4087
  142SAPE    HS15499   2.720   4.435  10.769 -0.3061  2.7528  2.2511
  142SAPE   O2115500   2.810   4.231  10.769 -0.0899  0.6803 -0.1614
  142SAPE   C2115501   2.717   4.183  10.687 -0.5483  0.5454  0.2788
  142SAPE   O2215502   2.601   4.220  10.684  0.0432  0.5123 -0.6528
  142SAPE   C2215503   2.769   4.076  10.585  0.5403 -0.2039 -0.5537
  142SAPE   H2R15504   2.877   4.064  10.605 -0.1191 -2.6122  2.0817
  142SAPE   H2S15505   2.714   3.987  10.621 -0.4158  1.0661  1.3406
  142SAPE    C315506   2.913   4.418  10.871 -0.0932 -0.2608 -0.9824
  142SAPE    HX15507   2.953   4.350  10.949 -2.6312 -2.1637 -1.2230
  142SAPE    HY15508   2.900   4.518  10.916 -0.0536 -0.7341  0.1083
  142SAPE   O3115509   2.984   4.429  10.748  0.9247 -0.4401 -0.3458
  142SAPE   C3115510   3.083   4.339  10.730 -0.0587 -0.4016 -0.6023
  142SAPE   O3215511   3.115   4.247  10.806  0.4474  0.0349 -0.2518
  142SAPE   C3215512   3.158   4.368  10.602 -0.2227 -0.7912  0.5192
  142SAPE   H2X15513   3.178   4.477  10.603  1.5668 -1.0969  0.5329
  142SAPE   H2Y15514   3.088   4.356  10.517  0.4332  2.4107 -0.6027
  142SAPE   C2315515   2.725   4.101  10.442  0.0620  0.1005  0.2642
  142SAPE   H3R15516   2.616   4.111  10.423  0.3842 -0.2161 -2.1773
  142SAPE   H3S15517   2.755   4.013  10.381  0.3438  0.7584 -0.5708
  142SAPE   C2415518   2.807   4.220  10.376 -0.0469  0.1505 -0.6216
  142SAPE   H4R15519   2.792   4.199  10.268 -0.3637 -0.8910 -0.3832
  142SAPE   H4S15520   2.914   4.218  10.407 -0.6273  0.5350  1.5689
  142SAPE   C2515521   2.754   4.356  10.413  0.3444 -0.2995 -0.8414
  142SAPE   H5R15522   2.729   4.382  10.516  4.8419  0.1159  0.3394
  142SAPE   C2615523   2.759   4.458  10.323  0.7564  0.3148 -0.0348
  142SAPE   H6R15524   2.721   4.555  10.360 -2.6676 -0.7291 -0.4832
  142SAPE   C2715525   2.796   4.452  10.173  0.4900  0.2766  0.1929
  142SAPE   H7R15526   2.707   4.469  10.110  0.6387  0.1749 -0.0426
  142SAPE   H7S15527   2.830   4.352  10.139 -3.1945 -1.3367  0.8060
  142SAPE   C2815528   2.892   4.571  10.157 -0.3501  0.2938  0.2741
  142SAPE   H8R15529   2.965   4.581  10.238  0.3866 -1.5844 -0.1042
  142SAPE   C2915530   2.899   4.659  10.055  0.1399 -0.8998  0.1121
  142SAPE   H9R15531   2.984   4.729  10.061  1.6829 -2.6539 -0.4025
  142SAPE  C21015532   2.827   4.663   9.923  0.3141 -0.8679  0.0372
  142SAPE  H10R15533   2.775   4.761   9.907  0.9606 -0.5739 -0.2922
  142SAPE  H10S15534   2.744   4.590   9.932 -0.1131 -0.4736 -0.5746
  142SAPE  C21115535   2.916   4.620   9.808  0.2328 -0.7393 -0.0160
  142SAPE  H11R15536   3.020   4.594   9.832  1.0247  0.1401 -2.2583
  142SAPE  C21215537   2.884   4.629   9.677  0.0980 -0.4763 -0.1908
  142SAPE  H12R15538   2.962   4.601   9.604  0.4604  0.6583 -0.2499
  142SAPE  C21315539   2.743   4.663   9.617 -0.9934 -0.0519  0.1514
  142SAPE  H13R15540   2.684   4.727   9.686 -1.3183 -0.1280 -0.0501
  142SAPE  H13S15541   2.688   4.568   9.600 -0.7396 -0.5112  1.7228
  142SAPE  C21415542   2.750   4.733   9.487  0.0641 -0.2098  1.1658
  142SAPE  H14R15543   2.716   4.837   9.490  0.8872  0.2534 -2.1449
  142SAPE  C21515544   2.784   4.694   9.363  0.3296 -0.5282  0.1882
  142SAPE  H15R15545   2.799   4.775   9.290  0.0610 -0.2739  0.4150
  142SAPE  C21615546   2.841   4.562   9.314  0.4754 -0.1183 -1.0876
  142SAPE  H16R15547   2.805   4.533   9.213 -1.0864 -0.2957 -0.4989
  142SAPE  H16S15548   2.825   4.476   9.382 -2.7278 -0.2246 -1.8211
  142SAPE  C21715549   2.994   4.569   9.295 -0.0456 -0.1195 -1.3816
  142SAPE  H17R15550   3.033   4.474   9.253 -1.8717 -0.2667 -2.8456
  142SAPE  H17S15551   3.037   4.586   9.397 -2.3219  2.0635 -0.6693
  142SAPE  C21815552   3.045   4.690   9.207  0.4190  0.6725 -0.2282
  142SAPE  H18R15553   3.155   4.683   9.194  0.8352 -2.8565  3.4214
  142SAPE  H18S15554   3.028   4.785   9.261  2.1624  0.8047  0.1515
  142SAPE  C21915555   2.981   4.713   9.072  0.6324  0.2557  0.0582
  142SAPE  H19R15556   2.979   4.821   9.043  0.4527  0.4369  0.7260
  142SAPE  H19S15557   2.870   4.708   9.072  0.5505  1.4297 -1.1327
  142SAPE  C22015558   3.024   4.610   8.974  0.1090  0.4467  0.1087
  142SAPE  H20R15559   2.959   4.620   8.884 -2.4295  0.5485  1.8492
  142SAPE  H20S15560   3.022   4.503   9.002 -1.5816  0.5715  0.5828
  142SAPE  H20T15561   3.131   4.613   8.947  0.2724 -2.6980  0.0715
  142SAPE   C3315562   3.275   4.274  10.587  0.0637  0.9322 -0.3097
  142SAPE   H3X15563   3.267   4.170  10.624 -1.3529  1.3280  0.5676
  142SAPE   H3Y15564   3.365   4.308  10.643  0.4962  1.5859 -1.3492
  142SAPE   C3415565   3.327   4.252  10.442 -0.1436 -0.2819  0.3534
  142SAPE   H4X15566   3.428   4.206  10.436  0.3525  0.6693  1.1146
  142SAPE   H4Y15567   3.340   4.346  10.385  1.8704  1.2662  3.1218
  142SAPE   C3515568   3.233   4.156  10.369 -1.3012 -0.0005  0.3802
  142SAPE   H5X15569   3.130   4.196  10.376 -0.5149  2.0645  0.9872
  142SAPE   H5Y15570   3.242   4.062  10.427  1.7845 -0.2497 -0.2978
  142SAPE   C3615571   3.273   4.156  10.218  0.0441  0.1070 -0.7160
  142SAPE   H6X15572   3.371   4.104  10.209  1.2120  2.2013 -0.8218
  142SAPE   H6Y15573   3.292   4.260  10.183 -1.8667  1.2480  1.3934
  142SAPE   C3715574   3.178   4.081  10.129  0.2614  0.4102  0.6926
  142SAPE   H7X15575   3.154   3.982  10.175 -0.6490  0.4155  0.2558
  142SAPE   H7Y15576   3.227   4.046  10.036  3.0902  1.3910  1.7168
  142SAPE   C3815577   3.045   4.159  10.101 -0.6662 -0.4984 -0.5513
  142SAPE   H8X15578   3.020   4.215  10.194  1.4723  1.8772 -1.2616
  142SAPE   H8Y15579   2.963   4.089  10.075 -0.6710 -1.1045  0.9626
  142SAPE   C3915580   3.067   4.269   9.994 -0.6158 -0.0036  0.6860
  142SAPE   H9X15581   3.144   4.333  10.043 -0.7453 -0.0427  0.9460
  142SAPE   H9Y15582   2.973   4.322   9.970 -1.5044 -1.8965 -0.2030
  142SAPE  C31015583   3.127   4.204   9.865  0.2473 -0.1655  0.3548
  142SAPE  H10X15584   3.070   4.114   9.832 -2.3008  1.6048 -0.4017
  142SAPE  H10Y15585   3.233   4.178   9.888  0.2333 -1.0782 -0.5480
  142SAPE  C31115586   3.135   4.289   9.739 -0.0592  0.4822 -0.9769
  142SAPE  H11X15587   3.197   4.381   9.746  1.2419 -0.4948  1.8010
  142SAPE  H11Y15588   3.035   4.314   9.698 -1.3423 -0.3979  1.4144
  142SAPE  C31215589   3.194   4.201   9.632  0.2318  0.3107  0.0756
  142SAPE  H12X15590   3.119   4.123   9.605 -0.1926  0.8343 -0.2976
  142SAPE  H12Y15591   3.283   4.150   9.676 -0.7580 -0.4313  1.2990
  142SAPE  C31315592   3.232   4.279   9.502 -0.3817 -0.3319 -0.5626
  142SAPE  H13X15593   3.316   4.346   9.531  1.8584 -2.9165 -0.6486
  142SAPE  H13Y15594   3.144   4.340   9.472 -2.6262 -1.0748  3.6068
  142SAPE  C31415595   3.287   4.198   9.391 -0.0460  0.2717  0.1190
  142SAPE  H14X15596   3.356   4.125   9.439 -1.7055  0.1226  2.4678
  142SAPE  H14Y15597   3.348   4.266   9.328  0.3623  1.5989  1.8820
  142SAPE  C31515598   3.164   4.127   9.323 -0.5012  0.5982  0.2504
  142SAPE  H15X15599   3.118   4.208   9.262 -1.0008  1.1242  1.2983
  142SAPE  H15Y15600   3.090   4.081   9.391  0.4498 -1.5291 -0.0802
  142SAPE  C31615601   3.219   4.007   9.243 -0.0543 -0.7531  0.3979
  142SAPE  H16X15602   3.137   3.977   9.174 -1.1114 -0.5929  1.5514
  142SAPE  H16Y15603   3.226   3.920   9.311 -0.9229 -0.6165  0.6767
  142SAPE  C31715604   3.352   4.041   9.157 -0.4872 -0.4668 -0.1310
  142SAPE  H17X15605   3.438   4.028   9.226 -0.1488  0.1420 -0.4203
  142SAPE  H17Y15606   3.350   4.142   9.110 -0.3479 -0.5268 -0.2687
  142SAPE  C31815607   3.377   3.950   9.034 -0.1105  0.1152  0.2832
  142SAPE  H18X15608   3.462   3.981   8.971 -0.0919  0.1908  0.3446
  142SAPE  H18Y15609   3.286   3.950   8.971 -0.7281 -0.3772  1.1468
  142SAPE  H18Z15610   3.381   3.844   9.066  4.8734  0.0021  0.0103
  143SAPE     N15611   3.719   2.655  11.043 -0.6129  0.1110  0.0004
  143SAPE   HN115612   3.752   2.700  11.131  0.0584 -0.1013 -0.1427
  143SAPE   HN215613   3.638   2.594  11.068  0.2645 -1.0635  0.0569
  143SAPE   HN315614   3.796   2.591  11.015 -0.3072  1.0947 -1.5007
  143SAPE   C1215615   3.691   2.764  10.944 -0.1969  0.6152 -0.4155
  143SAPE  H12A15616   3.608   2.830  10.977  1.1083  1.2489  1.8248
  143SAPE  H12B15617   3.664   2.715  10.848  0.1490 -0.4114  0.0024
  143SAPE   C1115618   3.815   2.851  10.926  0.7628  0.1509  0.6119
  143SAPE  H11A15619   3.809   2.910  10.832 -1.2910  1.0843  1.2734
  143SAPE  H11B15620   3.898   2.779  10.907  0.6757  0.1546  0.2216
  143SAPE     P15621   3.905   3.085  11.014 -0.3945 -0.3868  0.1190
  143SAPE   O1315622   3.810   3.184  11.072 -0.2706 -0.7209 -0.3753
  143SAPE   O1415623   4.044   3.071  11.065  0.0545 -0.0407 -0.0764
  143SAPE   O1215624   3.838   2.940  11.040 -0.1668 -0.6126 -1.0687
  143SAPE   O1115625   3.911   3.112  10.862  0.1710 -0.0937  0.0778
  143SAPE    C115626   3.993   3.213  10.801  1.1056  0.0884  0.2362
  143SAPE    HA15627   4.006   3.304  10.864  2.0326 -0.2286  0.5277
  143SAPE    HB15628   4.093   3.169  10.782  1.2647 -0.4785  2.1621
  143SAPE    C215629   3.918   3.265  10.672  0.0970 -0.7490 -0.7651
  143SAPE    HS15630   3.951   3.210  10.581  1.2750  0.4091 -1.0594
  143SAPE   O2115631   3.960   3.397  10.645 -0.0851  0.0748 -0.4104
  143SAPE   C2115632   4.081   3.428  10.602  0.4518 -0.5237 -0.4243
  143SAPE   O2215633   4.177   3.353  10.597 -0.5313 -0.2474  0.6527
  143SAPE   C2215634   4.089   3.579  10.575 -0.1428 -0.0533  0.3206
  143SAPE   H2R15635   4.001   3.616  10.519  0.3528 -1.7547 -1.7334
  143SAPE   H2S15636   4.086   3.630  10.674 -2.2074  0.1453  0.1920
  143SAPE    C315637   3.765   3.262  10.682  0.3452  0.2063 -0.2927
  143SAPE    HX15638   3.737   3.303  10.781  1.3889  3.1737 -1.1108
  143SAPE    HY15639   3.741   3.154  10.690 -0.6729  0.5318  1.4381
  143SAPE   O3115640   3.701   3.337  10.577  0.1098  0.6702  0.3966
  143SAPE   C3115641   3.697   3.284  10.459  0.3585  0.1168 -0.6059
  143SAPE   O3215642   3.729   3.167  10.433  0.1876  0.8772  0.2938
  143SAPE   C3215643   3.659   3.390  10.358  0.5772 -0.2138  0.2922
  143SAPE   H2X15644   3.565   3.447  10.376  0.2660  0.2153 -2.2357
  143SAPE   H2Y15645   3.629   3.338  10.264 -1.5089  1.6327 -0.1670
  143SAPE   C2315646   4.213   3.619  10.501 -0.0818 -0.2404 -0.2086
  143SAPE   H3R15647   4.300   3.554  10.525 -1.4253 -2.6253 -1.3123
  143SAPE   H3S15648   4.227   3.727  10.518 -1.7490  0.2410 -1.5510
  143SAPE   C2415649   4.206   3.597  10.350  0.0572 -0.5136  0.8702
  143SAPE   H4R15650   4.114   3.654  10.325  0.8638  0.8563  0.9251
  143SAPE   H4S15651   4.192   3.489  10.326 -1.0568  0.3028 -2.6854
  143SAPE   C2515652   4.329   3.634  10.273  0.1049  0.3798 -0.7127
  143SAPE   H5R15653   4.422   3.655  10.329 -0.9074  1.3195  0.7141
  143SAPE   C2615654   4.334   3.651  10.139  0.0264 -0.1096  0.7311
  143SAPE   H6R15655   4.426   3.687  10.092  0.0924 -2.9977 -1.5953
  143SAPE   C2715656   4.208   3.647  10.056 -0.8716  0.2702  0.3698
  143SAPE   H7R15657   4.199   3.736   9.989 -0.6034 -0.8174 -1.1747
  143SAPE   H7S15658   4.111   3.652  10.110 -2.3784 -0.1636 -2.1412
  143SAPE   C2815659   4.215   3.514   9.981 -0.4166  0.1177 -0.1648
  143SAPE   H8R15660   4.216   3.432  10.055 -0.3655  0.0215 -0.2727
  143SAPE   C2915661   4.203   3.496   9.849 -0.0317 -0.4385 -0.6253
  143SAPE   H9R15662   4.187   3.394   9.810 -2.5686  0.1101 -1.2007
  143SAPE  C21015663   4.189   3.601   9.744  0.5402  0.1908  0.9058
  143SAPE  H10R15664   4.219   3.570   9.641 -0.0222  2.3321  0.0461
  143SAPE  H10S15665   4.271   3.675   9.756 -0.8917  2.2731 -1.2415
  143SAPE  C21115666   4.063   3.682   9.736 -0.3893  0.2179 -0.2244
  143SAPE  H11R15667   4.014   3.693   9.834 -1.8490  0.9330 -1.0011
  143SAPE  C21215668   4.006   3.737   9.630  0.7062 -0.4158 -0.1117
  143SAPE  H12R15669   3.924   3.808   9.650  1.2712  0.1304  0.3125
  143SAPE  C21315670   4.053   3.727   9.494  0.5429 -0.8138  0.7447
  143SAPE  H13R15671   3.997   3.637   9.461 -0.8096  0.0577  0.5574
  143SAPE  H13S15672   4.160   3.697   9.488  0.0056 -2.8273  0.5098
  143SAPE  C21415673   4.036   3.852   9.410 -0.1527  0.1319 -0.4194
  143SAPE  H14R15674   4.111   3.930   9.430  1.3796 -1.4465  0.1781
  143SAPE  C21515675   3.955   3.865   9.304  0.6715  0.5540  0.3739
  143SAPE  H15R15676   3.943   3.963   9.255 -0.0409 -0.5201 -1.7300
  143SAPE  C21615677   3.864   3.751   9.262  0.7509 -0.4302  0.5357
  143SAPE  H16R15678   3.767   3.799   9.236  0.6371 -0.8221  0.2271
  143SAPE  H16S15679   3.846   3.673   9.338  0.6511 -1.3656 -0.4141
  143SAPE  C21715680   3.906   3.679   9.126  0.1013  0.5087  0.2208
  143SAPE  H17R15681   3.819   3.619   9.091  2.1401 -1.3977 -1.9711
  143SAPE  H17S15682   4.001   3.628   9.155  0.6477  1.4883  0.1725
  143SAPE  C21815683   3.927   3.784   9.013  0.4681 -0.4023 -0.0841
  143SAPE  H18R15684   3.983   3.874   9.045  0.4332 -1.0516  1.9181
  143SAPE  H18S15685   3.827   3.829   9.001  0.6013  0.2912  1.2250
  143SAPE  C21915686   3.989   3.714   8.887  0.5906  0.6744 -0.1106
  143SAPE  H19R15687   3.950   3.755   8.791  0.8334 -1.1600 -1.0247
  143SAPE  H19S15688   3.962   3.607   8.883 -0.1984  0.8933 -1.2893
  143SAPE  C22015689   4.140   3.731   8.876  0.0689 -0.2084 -0.0947
  143SAPE  H20R15690   4.147   3.838   8.850 -2.3982 -0.1446 -0.7352
  143SAPE  H20S15691   4.192   3.667   8.801  2.1728 -0.2581  1.3325
  143SAPE  H20T15692   4.193   3.715   8.972  1.9456  0.2983 -1.0041
  143SAPE   C3315693   3.768   3.486  10.329  0.7726  0.7809 -0.2453
  143SAPE   H3X15694   3.795   3.550  10.416  2.6470 -0.1559 -0.0835
  143SAPE   H3Y15695   3.738   3.570  10.263 -5.0813  0.3824  1.2876
  143SAPE   C3415696   3.904   3.424  10.283 -0.8218  0.4421 -0.6016
  143SAPE   H4X15697   3.951   3.362  10.363 -1.8382 -0.7896 -0.9259
  143SAPE   H4Y15698   3.966   3.512  10.259  1.3982 -1.3696 -1.8608
  143SAPE   C3515699   3.899   3.335  10.154 -0.1540  0.5510 -0.8256
  143SAPE   H5X15700   3.843   3.242  10.177  0.7675  0.2124  0.1095
  143SAPE   H5Y15701   4.001   3.296  10.134  1.2073  3.0474  0.6541
  143SAPE   C3615702   3.857   3.403  10.025 -0.1268  0.7342  0.1217
  143SAPE   H6X15703   3.917   3.494  10.004 -1.3582  1.3591 -0.7928
  143SAPE   H6Y15704   3.755   3.438  10.052  0.2885 -0.1358  3.1999
  143SAPE   C3715705   3.850   3.317   9.895  0.4377 -0.4474  0.4483
  143SAPE   H7X15706   3.803   3.221   9.924  0.1800 -0.5218 -0.1970
  143SAPE   H7Y15707   3.952   3.293   9.860  0.1840  0.4539 -0.9764
  143SAPE   C3815708   3.780   3.381   9.770  0.2349 -0.3054  0.0206
  143SAPE   H8X15709   3.803   3.489   9.756 -0.2718 -0.1956 -0.0091
  143SAPE   H8Y15710   3.672   3.388   9.794  0.5691  0.6866  1.3228
  143SAPE   C3915711   3.804   3.310   9.636 -0.4248  0.4773  0.1413
  143SAPE   H9X15712   3.704   3.316   9.588 -0.9306 -0.5973  1.0257
  143SAPE   H9Y15713   3.829   3.203   9.646 -1.5013  0.2586  0.7025
  143SAPE  C31015714   3.907   3.372   9.538  0.7575  0.3400  0.1379
  143SAPE  H10X15715   4.012   3.369   9.573  0.1808  0.4255  2.0270
  143SAPE  H10Y15716   3.872   3.476   9.517  0.1596  0.8538  3.1217
  143SAPE  C31115717   3.908   3.292   9.408 -0.0864  0.0824 -0.1650
  143SAPE  H11X15718   3.804   3.305   9.370 -0.0401 -1.0478 -0.7052
  143SAPE  H11Y15719   3.920   3.185   9.434  2.2482  0.9380  2.6898
  143SAPE  C31215720   4.005   3.343   9.306 -0.0234  0.2490  0.2144
  143SAPE  H12X15721   4.111   3.318   9.330  0.1420 -0.5187 -1.1492
  143SAPE  H12Y15722   4.006   3.454   9.300  2.7854  0.3322  0.6834
  143SAPE  C31315723   4.005   3.280   9.169 -0.0388 -0.0424 -0.1687
  143SAPE  H13X15724   3.916   3.322   9.117  0.2046 -0.0638 -0.6072
  143SAPE  H13Y15725   3.982   3.174   9.192  2.2837  0.1293  3.9173
  143SAPE  C31415726   4.126   3.284   9.074 -0.6686  0.1203  0.6368
  143SAPE  H14X15727   4.205   3.225   9.126 -1.5592 -1.4469  0.2942
  143SAPE  H14Y15728   4.153   3.390   9.056 -1.9799  0.7639  2.2834
  143SAPE  C31515729   4.100   3.201   8.945  0.1745  0.8133  0.0671
  143SAPE  H15X15730   4.052   3.102   8.962  1.7974 -0.2006 -0.9275
  143SAPE  H15Y15731   4.202   3.176   8.908 -0.2493 -1.0172  0.0362
  143SAPE  C31615732   4.032   3.292   8.840  0.3990  0.0741  0.0883
  143SAPE  H16X15733   4.074   3.395   8.839  1.4852 -0.3436  0.5556
  143SAPE  H16Y15734   3.926   3.295   8.872  1.6077 -0.2738  4.9479
  143SAPE  C31715735   4.027   3.236   8.698 -0.3092 -0.0615 -0.5148
  143SAPE  H17X15736   3.962   3.147   8.689  1.9858 -2.0237  0.9060
  143SAPE  H17Y15737   4.131   3.220   8.661 -0.0567  4.1359 -2.2048
  143SAPE  C31815738   3.967   3.339   8.601 -0.3801 -0.0126  0.2962
  143SAPE  H18X15739   4.040   3.423   8.598  1.9740 -1.9729 -0.8159
  143SAPE  H18Y15740   3.868   3.370   8.641 -0.5753 -0.7027  0.3565
  143SAPE  H18Z15741   3.956   3.290   8.502 -0.0993  0.8132 -0.1522
  144SAPE     N15742   6.702   2.303  10.971  0.0360 -0.3459  0.1555
  144SAPE   HN115743   6.698   2.405  10.953  2.7294 -0.1082  0.5575
  144SAPE   HN215744   6.600   2.283  10.963 -0.7935  3.4357 -0.4620
  144SAPE   HN315745   6.731   2.287  11.070 -0.5626  1.4830  0.6640
  144SAPE   C1215746   6.799   2.241  10.871  0.2327  0.0021 -0.0290
  144SAPE  H12A15747   6.899   2.285  10.887  0.2918 -0.2228  0.2232
  144SAPE  H12B15748   6.763   2.266  10.769 -0.3913 -0.0644  0.1695
  144SAPE   C1115749   6.812   2.087  10.892  0.2210  0.4818  0.1272
  144SAPE  H11A15750   6.723   2.035  10.851  0.2172  0.3824  0.2569
  144SAPE  H11B15751   6.824   2.062  11.000 -0.9578  0.0052  0.1673
  144SAPE     P15752   7.014   1.931  10.877  0.1778  0.1237 -0.2960
  144SAPE   O1315753   7.085   1.968  10.998 -0.0274 -0.3026  0.4400
  144SAPE   O1415754   6.931   1.803  10.890  0.2630  0.2428  0.0078
  144SAPE   O1215755   6.929   2.050  10.825 -0.5625  0.4144 -0.1731
  144SAPE   O1115756   7.110   1.916  10.749  0.8353  0.1453  0.3976
  144SAPE    C115757   7.179   2.027  10.689 -0.0622  0.5855 -0.4954
  144SAPE    HA15758   7.142   2.130  10.710  0.0132  0.7053 -0.9230
  144SAPE    HB15759   7.285   2.021  10.719 -0.5426  0.9457  1.3796
  144SAPE    C215760   7.179   2.004  10.535  0.1612  0.0249 -0.7781
  144SAPE    HS15761   7.244   2.082  10.489  0.9382  1.6967  2.8425
  144SAPE   O2115762   7.042   2.016  10.477  0.3145  0.3821 -0.2953
  144SAPE   C2115763   6.992   2.142  10.469  0.1574 -0.0646 -0.3224
  144SAPE   O2215764   7.031   2.244  10.516  0.2608  0.0587  0.2304
  144SAPE   C2215765   6.865   2.138  10.384  0.9400 -0.3123 -0.4079
  144SAPE   H2R15766   6.794   2.063  10.425  0.4913  1.2854  1.9454
  144SAPE   H2S15767   6.811   2.232  10.407 -1.4724 -1.4986 -0.9165
  144SAPE    C315768   7.252   1.874  10.489 -0.2505 -0.1484 -0.0063
  144SAPE    HX15769   7.207   1.793  10.551  0.2870  0.1253  0.7536
  144SAPE    HY15770   7.358   1.897  10.511 -1.1426  2.8342  1.6532
  144SAPE   O3115771   7.220   1.839  10.350  0.6250  0.5116 -0.6998
  144SAPE   C3115772   7.292   1.905  10.265 -0.0351 -0.9684  0.8690
  144SAPE   O3215773   7.379   1.985  10.291 -0.5418 -0.0473 -0.0336
  144SAPE   C3215774   7.259   1.861  10.120 -0.1276 -1.0079 -0.4809
  144SAPE   H2X15775   7.202   1.944  10.074 -1.4374 -1.2535  0.6425
  144SAPE   H2Y15776   7.207   1.763  10.128  2.5590 -2.4764  0.0990
  144SAPE   C2315777   6.875   2.129  10.234 -0.0496  0.4364 -0.6237
  144SAPE   H3R15778   6.932   2.213  10.189  1.6961 -1.0666 -1.3766
  144SAPE   H3S15779   6.776   2.143  10.187  0.1709  0.8995 -0.9529
  144SAPE   C2415780   6.931   2.002  10.168  0.1741 -0.0825  0.1524
  144SAPE   H4R15781   7.016   1.956  10.223  1.0311  1.6365  0.3246
  144SAPE   H4S15782   6.979   2.030  10.072  0.5412  0.5385  0.5117
  144SAPE   C2515783   6.830   1.898  10.134  0.5026 -0.2074 -0.0548
  144SAPE   H5R15784   6.762   1.876  10.218  0.6892 -0.0576  0.1369
  144SAPE   C2615785   6.835   1.815  10.025 -0.4489  0.2447 -0.8256
  144SAPE   H6R15786   6.761   1.735  10.011  0.1860 -0.5233  0.0798
  144SAPE   C2715787   6.941   1.827   9.917 -0.0431  0.7694  0.2633
  144SAPE   H7R15788   6.975   1.728   9.881  1.6232  0.7592  1.7200
  144SAPE   H7S15789   7.040   1.864   9.952  1.4543 -2.1088 -0.5864
  144SAPE   C2815790   6.888   1.909   9.808  0.5621 -0.7063  0.1051
  144SAPE   H8R15791   6.884   2.018   9.824 -3.1284 -0.1547 -3.0226
  144SAPE   C2915792   6.841   1.873   9.684 -0.4828  0.4524  0.0041
  144SAPE   H9R15793   6.821   1.947   9.606 -1.0350 -1.1778 -1.4488
  144SAPE  C21015794   6.834   1.729   9.632  0.1784  0.0098  0.5164
  144SAPE  H10R15795   6.749   1.728   9.560  0.7440  0.2032 -0.1631
  144SAPE  H10S15796   6.796   1.667   9.716 -0.5338  0.5808  0.6206
  144SAPE  C21115797   6.967   1.697   9.568 -0.0424  0.3000 -0.5185
  144SAPE  H11R15798   7.061   1.725   9.618 -0.0319 -0.8243  0.1327
  144SAPE  C21215799   6.991   1.650   9.443 -0.1657  0.5970 -0.1367
  144SAPE  H12R15800   7.095   1.630   9.413  0.0050 -0.8417  1.3235
  144SAPE  C21315801   6.884   1.619   9.342 -0.7041 -0.3937 -0.0693
  144SAPE  H13R15802   6.789   1.673   9.358  0.1057  0.4785  2.3870
  144SAPE  H13S15803   6.875   1.508   9.334 -4.3714 -0.2426  0.5241
  144SAPE  C21415804   6.938   1.663   9.207 -0.2530 -0.3191 -0.0868
  144SAPE  H14R15805   6.957   1.771   9.210 -0.5113 -0.2795  1.7926
  144SAPE  C21515806   6.951   1.592   9.096 -0.4432 -0.2570  0.4901
  144SAPE  H15R15807   6.995   1.643   9.009 -1.0158 -0.7349 -0.0976
  144SAPE  C21615808   6.916   1.444   9.067  0.5263 -1.0801  0.1932
  144SAPE  H16R15809   6.840   1.407   9.139  0.5700  0.2156  0.9429
  144SAPE  H16S15810   7.005   1.379   9.078  0.7870 -1.1048 -1.8003
  144SAPE  C21715811   6.858   1.432   8.928 -0.2878  0.1250  0.5204
  144SAPE  H17R15812   6.948   1.468   8.873  0.0328  0.1691  1.0712
  144SAPE  H17S15813   6.768   1.493   8.907 -2.2861 -3.1523 -1.3747
  144SAPE  C21815814   6.839   1.286   8.884  0.2587 -0.0173  0.7599
  144SAPE  H18R15815   6.760   1.293   8.805 -0.7723  1.2810  1.8583
  144SAPE  H18S15816   6.787   1.229   8.964 -1.0836 -1.9383 -1.3481
  144SAPE  C21915817   6.965   1.215   8.836  0.5614 -0.6524 -0.0902
  144SAPE  H19R15818   7.030   1.211   8.925  1.2520 -2.1258 -0.6272
  144SAPE  H19S15819   7.031   1.273   8.769  0.9795 -0.9429  0.0675
  144SAPE  C22015820   6.946   1.080   8.769 -0.3119 -0.5511 -0.2060
  144SAPE  H20R15821   6.911   1.100   8.665  2.4755  0.2073 -1.0651
  144SAPE  H20S15822   6.870   1.022   8.826  0.1283  0.2264  1.1886
  144SAPE  H20T15823   7.045   1.031   8.765 -0.0043 -0.1969  1.9599
  144SAPE   C3315824   7.387   1.842  10.031  0.6935 -0.3339 -0.5490
  144SAPE   H3X15825   7.457   1.768  10.076  0.6560 -0.3075 -0.4483
  144SAPE   H3Y15826   7.445   1.936  10.034  1.9990 -1.0493  3.9368
  144SAPE   C3415827   7.347   1.793   9.893 -0.1146  0.3060 -0.3112
  144SAPE   H4X15828   7.256   1.845   9.857 -1.8863 -2.0810  0.4705
  144SAPE   H4Y15829   7.318   1.687   9.905 -3.0500  1.0887  0.3006
  144SAPE   C3515830   7.455   1.798   9.782 -0.7960 -0.5147  0.1873
  144SAPE   H5X15831   7.526   1.714   9.793 -0.8969 -0.8781 -1.6509
  144SAPE   H5Y15832   7.502   1.898   9.784 -2.7743  0.4608  1.3294
  144SAPE   C3615833   7.395   1.791   9.644 -0.0300 -0.4972  0.0568
  144SAPE   H6X15834   7.353   1.891   9.622  1.6735  0.5602  1.3584
  144SAPE   H6Y15835   7.309   1.721   9.639  0.2201 -1.0954  2.8047
  144SAPE   C3715836   7.484   1.760   9.529 -0.5850  0.0148  0.5436
  144SAPE   H7X15837   7.535   1.663   9.542 -0.9297 -0.4409 -1.1610
  144SAPE   H7Y15838   7.565   1.836   9.519  1.1820 -1.7118  1.0824
  144SAPE   C3815839   7.419   1.730   9.389 -0.5126 -0.0477 -0.4729
  144SAPE   H8X15840   7.347   1.813   9.371  0.8402  0.9922 -1.3211
  144SAPE   H8Y15841   7.361   1.636   9.405 -1.1061  0.8231  3.5192
  144SAPE   C3915842   7.506   1.720   9.265  0.0876  0.5683 -0.2580
  144SAPE   H9X15843   7.582   1.640   9.281  0.6671  0.6543 -2.3352
  144SAPE   H9Y15844   7.566   1.813   9.254 -0.6708  1.1238  0.1957
  144SAPE  C31015845   7.425   1.702   9.141 -0.0780 -0.8459  1.2018
  144SAPE  H10X15846   7.383   1.804   9.130  1.3555 -0.3516 -0.0833
  144SAPE  H10Y15847   7.351   1.619   9.136 -2.7350  1.4145 -0.3405
  144SAPE  C31115848   7.511   1.696   9.018 -1.1950 -0.1016  0.5148
  144SAPE  H11X15849   7.575   1.786   9.019 -0.8826 -0.3212  0.4652
  144SAPE  H11Y15850   7.448   1.685   8.927 -1.3667 -0.0474  0.6259
  144SAPE  C31215851   7.612   1.575   9.020 -0.0134  0.3609  0.3229
  144SAPE  H12X15852   7.563   1.486   9.064  0.6952  0.6459  1.7161
  144SAPE  H12Y15853   7.698   1.601   9.085  0.7368  0.8773 -0.8478
  144SAPE  C31315854   7.670   1.548   8.882  1.0239 -0.1523 -0.6362
  144SAPE  H13X15855   7.671   1.642   8.824 -1.6557  2.6388  3.3344
  144SAPE  H13Y15856   7.593   1.488   8.828  1.2314  0.0286 -1.1303
  144SAPE  C31415857   7.799   1.466   8.882  0.0745 -0.2287  0.2447
  144SAPE  H14X15858   7.785   1.388   8.960  0.3811 -1.4171 -0.8644
  144SAPE  H14Y15859   7.887   1.530   8.908  0.8204 -0.0391 -2.4255
  144SAPE  C31515860   7.828   1.406   8.743 -0.5671  0.1458  0.5485
  144SAPE  H15X15861   7.847   1.490   8.673 -0.2757  1.1187  1.7568
  144SAPE  H15Y15862   7.737   1.354   8.708  0.2051 -0.6489 -0.3517
  144SAPE  C31615863   7.953   1.319   8.743 -0.0437  0.5705 -0.4771
  144SAPE  H16X15864   7.948   1.237   8.818  0.8722 -0.2408 -1.2717
  144SAPE  H16Y15865   8.040   1.382   8.774 -0.9595  1.9123 -0.5274
  144SAPE  C31715866   7.967   1.247   8.603  0.0661 -0.6518 -0.9043
  144SAPE  H17X15867   8.076   1.234   8.585 -0.0708 -1.3095 -1.2863
  144SAPE  H17Y15868   7.915   1.307   8.525  1.9561 -0.8203 -2.3884
  144SAPE  C31815869   7.902   1.104   8.619 -0.6896  0.0007 -0.2266
  144SAPE  H18X15870   7.948   1.052   8.706 -1.0429 -1.0870 -0.6766
  144SAPE  H18Y15871   7.936   1.040   8.535  0.6587  0.5863 -0.1603
  144SAPE  H18Z15872   7.791   1.101   8.613 -0.6452  0.5533 -1.6635
  145SAPE     N15873   3.112   3.721  11.398 -0.1615 -0.2118 -0.0012
  145SAPE   HN115874   3.166   3.634  11.382  1.6369  1.0474 -1.2307
  145SAPE   HN215875   3.043   3.709  11.475 -0.5342  0.0410 -0.2927
  145SAPE   HN315876   3.054   3.741  11.314  1.8205  0.6184 -1.2437
  145SAPE   C1215877   3.211   3.834  11.401 -0.1929  0.1785  0.5991
  145SAPE  H12A15878   3.254   3.847  11.503 -0.2006  0.4759  0.5653
  145SAPE  H12B15879   3.155   3.928  11.381  1.1833  0.7373 -0.8876
  145SAPE   C1115880   3.319   3.802  11.297 -0.1957  0.0975 -0.1764
  145SAPE  H11A15881   3.276   3.807  11.195  1.7604 -0.0370 -1.0443
  145SAPE  H11B15882   3.351   3.701  11.328  4.0472  1.8175  1.9547
  145SAPE     P15883   3.548   3.884  11.225 -0.2985  0.7536 -0.1848
  145SAPE   O1315884   3.621   4.005  11.252  0.2156  0.3844 -0.2399
  145SAPE   O1415885   3.622   3.762  11.254 -0.2232  0.2096 -0.1527
  145SAPE   O1215886   3.424   3.898  11.303 -0.2535 -0.1646 -0.4277
  145SAPE   O1115887   3.507   3.896  11.075  0.0389 -0.3045  0.3615
  145SAPE    C115888   3.438   4.013  11.029  0.4212 -0.1427 -0.0049
  145SAPE    HA15889   3.331   3.994  11.006 -0.1062  0.0255  2.0656
  145SAPE    HB15890   3.430   4.090  11.109  0.7259 -1.2584  1.1271
  145SAPE    C215891   3.505   4.080  10.911  0.3586 -0.2241  0.5279
  145SAPE    HS15892   3.439   4.158  10.867 -0.5316 -0.0320  2.1326
  145SAPE   O2115893   3.536   3.981  10.812 -0.2988 -0.3083 -0.4379
  145SAPE   C2115894   3.435   3.917  10.763  0.3963 -0.0900  1.0076
  145SAPE   O2215895   3.316   3.950  10.772 -0.4722  0.0584  0.1088
  145SAPE   C2215896   3.490   3.820  10.650  0.6476 -0.5737 -0.2174
  145SAPE   H2R15897   3.585   3.779  10.690  1.1090  0.7380  0.0661
  145SAPE   H2S15898   3.411   3.742  10.643 -3.2125  2.7898  1.6617
  145SAPE    C315899   3.637   4.154  10.955 -0.3530  0.3125 -0.6864
  145SAPE    HX15900   3.707   4.081  11.001  0.2866  2.7219  2.4884
  145SAPE    HY15901   3.609   4.231  11.030 -1.2125  0.9943 -1.6785
  145SAPE   O3115902   3.713   4.212  10.842 -0.2222  1.1190 -0.5136
  145SAPE   C3115903   3.667   4.326  10.799  0.8072  0.3337 -0.3231
  145SAPE   O3215904   3.563   4.374  10.839 -0.0271 -0.1060 -0.0329
  145SAPE   C3215905   3.760   4.404  10.704 -0.5055 -0.1290 -0.0848
  145SAPE   H2X15906   3.861   4.401  10.751 -0.6055 -1.0866  0.0920
  145SAPE   H2Y15907   3.725   4.509  10.709 -0.5089 -0.1864  3.3102
  145SAPE   C2315908   3.502   3.900  10.520 -1.2733 -0.5639  0.4773
  145SAPE   H3R15909   3.413   3.964  10.507 -3.0999 -2.1794  3.7009
  145SAPE   H3S15910   3.485   3.830  10.436  2.0024  0.2635 -1.0418
  145SAPE   C2415911   3.648   3.965  10.502  0.5492  0.3210 -0.1877
  145SAPE   H4R15912   3.676   4.023  10.592 -0.9562 -2.2118  2.0971
  145SAPE   H4S15913   3.632   4.037  10.419 -0.0182  0.0221 -0.3442
  145SAPE   C2515914   3.757   3.861  10.488  0.6792 -0.4960  0.2227
  145SAPE   H5R15915   3.756   3.789  10.571  0.1475  0.2410  0.8675
  145SAPE   C2615916   3.847   3.856  10.389 -0.2011 -0.5323  0.5001
  145SAPE   H6R15917   3.909   3.765  10.383  1.9447  0.9370 -1.5684
  145SAPE   C2715918   3.866   3.950  10.272 -0.1033  0.6959 -0.5406
  145SAPE   H7R15919   3.957   4.010  10.292 -0.5717  1.1246  0.3856
  145SAPE   H7S15920   3.779   4.020  10.273 -1.5647 -0.9214  2.7756
  145SAPE   C2815921   3.887   3.878  10.138 -0.2986  0.4418  0.4472
  145SAPE   H8R15922   3.994   3.866  10.118 -0.4224 -1.8415  0.8741
  145SAPE   C2915923   3.798   3.821  10.055  0.1017 -0.0881 -0.0979
  145SAPE   H9R15924   3.836   3.769   9.966 -1.8164 -0.6557 -0.6309
  145SAPE  C21015925   3.654   3.818  10.080  0.4655 -0.4121 -0.0296
  145SAPE  H10R15926   3.621   3.917  10.040 -0.5233 -0.6479  0.1861
  145SAPE  H10S15927   3.635   3.823  10.189 -1.7762 -0.4203 -0.3851
  145SAPE  C21115928   3.595   3.694  10.022 -0.3767  0.0885  1.2570
  145SAPE  H11R15929   3.594   3.612  10.096  0.0785 -0.6296  0.4853
  145SAPE  C21215930   3.557   3.674   9.894  0.3950 -0.2875  0.1509
  145SAPE  H12R15931   3.508   3.582   9.856 -0.7011  1.9263 -4.6213
  145SAPE  C21315932   3.581   3.780   9.791  0.1538 -0.1839  0.3299
  145SAPE  H13R15933   3.619   3.733   9.697 -1.6021 -0.0514 -0.4956
  145SAPE  H13S15934   3.650   3.864   9.814 -0.2529 -0.2222  1.7798
  145SAPE  C21415935   3.455   3.859   9.754 -0.3346 -0.1809  0.5150
  145SAPE  H14R15936   3.409   3.928   9.827 -2.5225 -0.0389 -0.8947
  145SAPE  C21515937   3.379   3.833   9.648 -0.6840 -0.2266 -0.3825
  145SAPE  H15R15938   3.289   3.896   9.644 -0.1855  0.6285  1.0017
  145SAPE  C21615939   3.395   3.731   9.540  0.0848  0.4880 -0.7593
  145SAPE  H16R15940   3.294   3.715   9.496 -1.6637 -0.4356  3.2001
  145SAPE  H16S15941   3.442   3.638   9.579 -0.3089  0.0891 -1.2208
  145SAPE  C21715942   3.491   3.779   9.432 -0.3151 -0.4884  0.2987
  145SAPE  H17R15943   3.593   3.789   9.474 -0.9075 -1.1443  1.9550
  145SAPE  H17S15944   3.457   3.881   9.403  1.8889  0.3448  0.4599
  145SAPE  C21815945   3.493   3.680   9.309 -0.1605  0.3704  0.3480
  145SAPE  H18R15946   3.544   3.729   9.223  3.1179  2.3181  3.1259
  145SAPE  H18S15947   3.386   3.663   9.284 -0.0206 -0.6550  0.4049
  145SAPE  C21915948   3.552   3.537   9.344 -0.3524 -0.5447 -0.5112
  145SAPE  H19R15949   3.491   3.501   9.430  0.2317 -1.0141 -0.2817
  145SAPE  H19S15950   3.659   3.552   9.367 -0.7905  1.6423  0.3176
  145SAPE  C22015951   3.551   3.428   9.232 -0.4199 -0.8024 -0.0861
  145SAPE  H20R15952   3.592   3.473   9.139 -0.6257 -1.2693 -0.4045
  145SAPE  H20S15953   3.444   3.409   9.207 -0.6442  1.5276 -1.1097
  145SAPE  H20T15954   3.609   3.338   9.262 -1.6826 -1.7644 -0.4331
  145SAPE   C3315955   3.775   4.354  10.561 -0.0130 -0.2710  0.2848
  145SAPE   H3X15956   3.806   4.248  10.557  0.2899 -0.1759  0.0256
  145SAPE   H3Y15957   3.860   4.414  10.521  0.8751 -2.1172 -0.6941
  145SAPE   C3415958   3.660   4.375  10.470 -0.2593  0.5051  0.7734
  145SAPE   H4X15959   3.613   4.476  10.473 -1.6275 -0.1043  3.3127
  145SAPE   H4Y15960   3.588   4.296  10.499  0.3735 -1.5557 -2.7504
  145SAPE   C3515961   3.704   4.359  10.325 -0.4939 -0.0536  0.6953
  145SAPE   H5X15962   3.766   4.268  10.317 -2.7313 -1.4642 -3.1874
  145SAPE   H5Y15963   3.776   4.440  10.303  0.2365 -1.4908 -2.8827
  145SAPE   C3615964   3.591   4.349  10.225 -0.4426 -0.6144  0.3522
  145SAPE   H6X15965   3.516   4.425  10.256 -1.6954 -1.8120  0.3644
  145SAPE   H6Y15966   3.541   4.252  10.243 -1.2068  0.0331  1.8859
  145SAPE   C3715967   3.637   4.341  10.073 -0.5096  0.8293  0.2045
  145SAPE   H7X15968   3.710   4.258  10.062 -0.9949  0.1106  2.0245
  145SAPE   H7Y15969   3.696   4.426  10.033  0.4614 -0.5996 -1.5354
  145SAPE   C3815970   3.531   4.295   9.971 -0.3756 -0.3657 -0.3933
  145SAPE   H8X15971   3.449   4.367   9.948 -1.0845 -0.9816  0.1514
  145SAPE   H8Y15972   3.479   4.210  10.020  0.3101  0.1680  1.3249
  145SAPE   C3915973   3.579   4.246   9.834 -0.0130 -0.0257 -0.1533
  145SAPE   H9X15974   3.487   4.206   9.786  1.0805 -0.0361 -2.3825
  145SAPE   H9Y15975   3.649   4.160   9.840  0.7917  0.6967  1.1122
  145SAPE  C31015976   3.638   4.359   9.751 -0.3631  0.1953  0.8454
  145SAPE  H10X15977   3.716   4.410   9.811 -0.3117 -0.8849  1.7286
  145SAPE  H10Y15978   3.564   4.440   9.733  0.8281  0.9397 -1.0236
  145SAPE  C31115979   3.705   4.296   9.626 -0.3030 -0.9029 -0.4839
  145SAPE  H11X15980   3.788   4.228   9.654  1.5866  1.9798  1.4569
  145SAPE  H11Y15981   3.748   4.377   9.565 -1.6919  1.5545  1.6043
  145SAPE  C31215982   3.610   4.230   9.533  0.1081  0.4125 -0.0302
  145SAPE  H12X15983   3.526   4.292   9.496 -0.3431 -0.2612 -0.1557
  145SAPE  H12Y15984   3.568   4.142   9.586  1.1219 -2.0329 -2.9485
  145SAPE  C31315985   3.684   4.172   9.410  0.1592  0.6747 -0.4784
  145SAPE  H13X15986   3.616   4.099   9.361 -0.0218 -0.2464  1.0684
  145SAPE  H13Y15987   3.776   4.114   9.432 -0.0328 -0.1520 -1.7842
  145SAPE  C31415988   3.705   4.281   9.306 -0.3711  0.1254  0.9305
  145SAPE  H14X15989   3.766   4.368   9.338 -1.8540  1.5749 -0.0394
  145SAPE  H14Y15990   3.605   4.323   9.283 -0.7482 -2.0872 -1.9207
  145SAPE  C31515991   3.773   4.231   9.176 -0.7209  0.6650  0.5657
  145SAPE  H15X15992   3.751   4.123   9.157  0.7912  0.6415 -1.3598
  145SAPE  H15Y15993   3.882   4.241   9.192 -0.6938 -0.0098  0.8625
  145SAPE  C31615994   3.724   4.291   9.042 -0.7057  0.0107 -0.3486
  145SAPE  H16X15995   3.736   4.401   9.058 -0.3940  0.3980 -2.8887
  145SAPE  H16Y15996   3.617   4.261   9.040 -0.3444 -1.2469 -1.5936
  145SAPE  C31715997   3.796   4.236   8.921  0.0325 -0.5736  0.0809
  145SAPE  H17X15998   3.904   4.252   8.939  0.6127 -4.0338  0.4680
  145SAPE  H17Y15999   3.769   4.295   8.831 -2.8995  0.4720  1.5083
  145SAPE  C31816000   3.776   4.083   8.901  0.3470 -0.6838 -0.5449
  145SAPE  H18X16001   3.680   4.052   8.946 -0.2514  0.4396 -1.0105
  145SAPE  H18Y16002   3.854   4.035   8.964  0.1632 -0.4896 -0.1648
  145SAPE  H18Z16003   3.795   4.054   8.795 -0.6245  0.7970 -1.1555
  146SAPE     N16004   1.703   2.952  10.612  0.4349 -0.7983  0.0032
  146SAPE   HN116005   1.663   3.043  10.581  0.6187 -0.6458  0.2115
  146SAPE   HN216006   1.694   2.876  10.542 -0.9796  0.0732 -0.8159
  146SAPE   HN316007   1.626   2.923  10.676  0.2464  1.8185  1.0914
  146SAPE   C1216008   1.827   2.950  10.687 -0.0474  0.1532  0.7549
  146SAPE  H12A16009   1.891   2.869  10.647  0.0258  0.1818  0.8144
  146SAPE  H12B16010   1.811   2.924  10.794 -0.8095 -1.4900  0.2609
  146SAPE   C1116011   1.903   3.077  10.666 -0.0686  0.2122  0.3516
  146SAPE  H11A16012   1.922   3.081  10.557 -2.6642 -2.5112 -0.3389
  146SAPE  H11B16013   2.001   3.071  10.718  0.3274  1.1995 -0.2576
  146SAPE     P16014   1.863   3.276  10.824  0.2085 -0.0828 -0.0284
  146SAPE   O1316015   1.771   3.219  10.926  0.2813  0.8529  0.0203
  146SAPE   O1416016   2.008   3.290  10.858  0.4657 -0.2226 -0.4116
  146SAPE   O1216017   1.829   3.190  10.696  0.1173 -0.1186 -0.1565
  146SAPE   O1116018   1.818   3.422  10.785 -0.1333 -0.3170  0.0919
  146SAPE    C116019   1.702   3.442  10.703  0.2931  0.4311 -1.0063
  146SAPE    HA16020   1.624   3.363  10.707 -0.2412  0.8052 -2.7607
  146SAPE    HB16021   1.667   3.543  10.733  2.6124  0.9368  0.2618
  146SAPE    C216022   1.739   3.446  10.555  0.3152  0.5399 -0.0639
  146SAPE    HS16023   1.755   3.341  10.523 -0.7132  0.9472 -2.0413
  146SAPE   O2116024   1.862   3.519  10.541 -0.3288  0.2242  0.2533
  146SAPE   C2116025   1.951   3.478  10.453  0.5058  0.2914  0.3740
  146SAPE   O2216026   1.941   3.375  10.381  0.1142 -0.2511 -0.3598
  146SAPE   C2216027   2.063   3.580  10.459  0.2259  0.1631 -0.5083
  146SAPE   H2R16028   2.023   3.683  10.447  0.4145  0.2516 -0.3749
  146SAPE   H2S16029   2.110   3.561  10.558  1.3994  0.3349 -1.0070
  146SAPE    C316030   1.623   3.511  10.464 -0.0092 -0.8298  0.0506
  146SAPE    HX16031   1.583   3.599  10.518 -0.5921 -0.8864 -0.2836
  146SAPE    HY16032   1.536   3.443  10.463 -0.5296 -0.1665 -0.5858
  146SAPE   O3116033   1.672   3.541  10.328  0.5167  1.3097  0.3707
  146SAPE   C3116034   1.659   3.670  10.294  0.0933  0.0995  0.6178
  146SAPE   O3216035   1.589   3.754  10.348  0.1401 -0.0967  0.1405
  146SAPE   C3216036   1.728   3.694  10.166  0.4486  0.8318  0.3898
  146SAPE   H2X16037   1.664   3.652  10.086 -0.4640 -0.2185  1.6267
  146SAPE   H2Y16038   1.817   3.628  10.167  1.9184  2.7039 -0.0584
  146SAPE   C2316039   2.170   3.545  10.343  0.3109 -0.1049 -0.7185
  146SAPE   H3R16040   2.193   3.437  10.332 -0.6604 -0.1264 -3.1544
  146SAPE   H3S16041   2.267   3.592  10.371 -0.3320  1.8373 -1.5727
  146SAPE   C2416042   2.125   3.584  10.200 -0.3991  0.0784  0.3427
  146SAPE   H4R16043   2.021   3.546  10.201 -0.2650 -0.4735  3.9663
  146SAPE   H4S16044   2.189   3.527  10.129 -0.9622 -0.5665  0.3467
  146SAPE   C2516045   2.140   3.732  10.160 -0.2119  0.1892  0.2666
  146SAPE   H5R16046   2.080   3.797  10.225 -0.8990  0.1899 -0.3630
  146SAPE   C2616047   2.208   3.783  10.059 -0.8447 -0.1086  0.3541
  146SAPE   H6R16048   2.208   3.892  10.044  0.7395  0.2081  2.1749
  146SAPE   C2716049   2.295   3.696   9.966 -0.6359 -0.4673  0.5835
  146SAPE   H7R16050   2.240   3.603   9.941  0.0119 -0.7111  0.0461
  146SAPE   H7S16051   2.390   3.673  10.018  0.1958 -1.4201 -1.2317
  146SAPE   C2816052   2.334   3.771   9.836 -0.1729 -0.2879  0.2455
  146SAPE   H8R16053   2.395   3.859   9.860 -1.9031  1.4439 -1.3265
  146SAPE   C2916054   2.311   3.737   9.709 -0.6678  0.3387 -0.6122
  146SAPE   H9R16055   2.343   3.803   9.626  0.6933  1.8593  1.0277
  146SAPE  C21016056   2.246   3.606   9.668  0.2352 -0.0841  0.6590
  146SAPE  H10R16057   2.251   3.529   9.749  1.2611  1.7683  2.4498
  146SAPE  H10S16058   2.305   3.564   9.584 -3.0891  0.9195 -2.4168
  146SAPE  C21116059   2.112   3.626   9.611  0.1302  0.5819 -0.5081
  146SAPE  H11R16060   2.033   3.663   9.677 -0.7482  0.3337 -1.3891
  146SAPE  C21216061   2.066   3.608   9.480 -0.1434  0.2412 -0.3296
  146SAPE  H12R16062   1.960   3.627   9.461  0.0033  2.2580  0.6877
  146SAPE  C21316063   2.155   3.573   9.365 -0.4440  0.4032  0.7158
  146SAPE  H13R16064   2.175   3.463   9.364  0.5949  0.5665 -1.2416
  146SAPE  H13S16065   2.259   3.610   9.371 -0.3914  0.6580 -1.1165
  146SAPE  C21416066   2.097   3.627   9.235 -0.3324  0.0994  0.4169
  146SAPE  H14R16067   2.063   3.731   9.245  1.4626  0.5911  1.9996
  146SAPE  C21516068   2.084   3.568   9.116  0.2601  0.8586  0.7617
  146SAPE  H15R16069   2.060   3.630   9.028  2.6726  0.7136 -0.0867
  146SAPE  C21616070   2.117   3.412   9.100 -1.0283 -1.3993 -0.6369
  146SAPE  H16R16071   2.108   3.360   9.198 -1.9897 -1.5516 -0.7985
  146SAPE  H16S16072   2.220   3.399   9.062  0.0582  2.5377  0.4412
  146SAPE  C21716073   2.013   3.334   9.017  0.0283 -0.8495 -0.3717
  146SAPE  H17R16074   1.916   3.343   9.070  0.9198  0.4036  1.1517
  146SAPE  H17S16075   2.036   3.228   9.042  0.6235 -0.6975 -0.2475
  146SAPE  C21816076   2.001   3.353   8.865  0.3766 -0.1175 -0.1729
  146SAPE  H18R16077   2.099   3.366   8.816  0.1505  1.6591 -0.2454
  146SAPE  H18S16078   1.946   3.438   8.819 -0.9752 -2.0448 -2.3129
  146SAPE  C21916079   1.940   3.234   8.801 -0.1444 -0.4662  0.1623
  146SAPE  H19R16080   1.897   3.253   8.701  2.9078 -0.3644 -1.2549
  146SAPE  H19S16081   1.866   3.187   8.870 -0.2070 -0.2988  0.2097
  146SAPE  C22016082   2.048   3.134   8.767 -0.6193 -0.9882  0.0660
  146SAPE  H20R16083   2.118   3.161   8.685 -3.1838 -0.8163 -2.2397
  146SAPE  H20S16084   2.003   3.037   8.736  0.1331 -1.4278  0.3296
  146SAPE  H20T16085   2.104   3.107   8.859  1.6588  0.5126 -0.7750
  146SAPE   C3316086   1.764   3.841  10.127 -0.0367 -0.1073  0.1939
  146SAPE   H3X16087   1.833   3.869  10.209 -1.3141 -1.2313  1.7215
  146SAPE   H3Y16088   1.675   3.906  10.119 -1.4894 -2.1359 -1.2594
  146SAPE   C3416089   1.828   3.856   9.992 -0.2059  0.0704  0.5305
  146SAPE   H4X16090   1.921   3.798   9.981  0.9099  0.5453  5.2675
  146SAPE   H4Y16091   1.853   3.964   9.991 -1.4203  0.3758 -0.4899
  146SAPE   C3516092   1.737   3.816   9.879 -0.3585  0.7848  0.7704
  146SAPE   H5X16093   1.639   3.869   9.880 -1.3959 -0.9695 -0.9813
  146SAPE   H5Y16094   1.720   3.707   9.891  0.8122  0.4981 -0.0145
  146SAPE   C3616095   1.794   3.849   9.744 -0.9840 -0.2844 -0.2841
  146SAPE   H6X16096   1.897   3.808   9.734 -0.9729 -1.1744  2.5187
  146SAPE   H6Y16097   1.805   3.960   9.752 -1.3905 -0.1901 -0.9924
  146SAPE   C3716098   1.696   3.814   9.632 -0.2614  0.2591  0.4737
  146SAPE   H7X16099   1.597   3.865   9.633 -0.2536  0.3791 -1.2651
  146SAPE   H7Y16100   1.668   3.706   9.630  1.2573 -0.1453 -0.8601
  146SAPE   C3816101   1.754   3.851   9.491 -0.7154 -0.1235 -0.9534
  146SAPE   H8X16102   1.857   3.810   9.482 -0.7638 -0.0640 -2.0055
  146SAPE   H8Y16103   1.759   3.962   9.481 -1.7639  0.0022 -0.2608
  146SAPE   C3916104   1.665   3.807   9.379 -0.0712  0.5458 -0.5130
  146SAPE   H9X16105   1.557   3.822   9.402  0.2682  0.6577  1.1694
  146SAPE   H9Y16106   1.675   3.697   9.391  0.5906  0.6377 -0.1600
  146SAPE  C31016107   1.711   3.854   9.246 -0.1864  0.2396 -0.5572
  146SAPE  H10X16108   1.821   3.840   9.252 -0.2802 -0.8749 -1.0696
  146SAPE  H10Y16109   1.686   3.961   9.232  0.6855  0.3868 -1.0389
  146SAPE  C31116110   1.656   3.781   9.125 -0.9068 -0.8346  0.1810
  146SAPE  H11X16111   1.546   3.779   9.110 -0.8369 -1.9134 -0.2665
  146SAPE  H11Y16112   1.688   3.677   9.147  1.2267 -0.2487  0.1323
  146SAPE  C31216113   1.729   3.826   8.994  0.2608 -0.6159  0.1419
  146SAPE  H12X16114   1.839   3.829   9.009  0.6783 -1.9904 -2.0967
  146SAPE  H12Y16115   1.693   3.926   8.961  1.3741 -0.9416 -2.3127
  146SAPE  C31316116   1.709   3.728   8.878  0.2716 -0.3515 -0.7519
  146SAPE  H13X16117   1.613   3.754   8.829 -0.1958  0.0801  0.3657
  146SAPE  H13Y16118   1.680   3.631   8.923  0.2256  0.7741  1.8364
  146SAPE  C31416119   1.828   3.714   8.787  0.6863 -0.4279  0.3687
  146SAPE  H14X16120   1.800   3.641   8.708 -0.7592 -0.2862  0.7162
  146SAPE  H14Y16121   1.914   3.674   8.846  1.4144 -0.0154 -0.3909
  146SAPE  C31516122   1.861   3.849   8.715  0.6226  0.4548  0.0573
  146SAPE  H15X16123   1.904   3.919   8.789  0.0174 -0.4792  1.3339
  146SAPE  H15Y16124   1.766   3.895   8.683  0.3321 -1.6078 -2.4041
  146SAPE  C31616125   1.951   3.848   8.593  0.6509  0.4249  0.2413
  146SAPE  H16X16126   1.927   3.748   8.550 -0.5227  0.7002  0.2074
  146SAPE  H16Y16127   2.052   3.868   8.633  0.5377 -0.4974  1.0478
  146SAPE  C31716128   1.911   3.955   8.499  0.0088  0.0769 -0.5100
  146SAPE  H17X16129   1.888   4.046   8.559 -1.1718  0.5048 -1.5827
  146SAPE  H17Y16130   1.815   3.936   8.447  0.0520  0.8918 -0.9010
  146SAPE  C31816131   2.033   3.972   8.403 -0.1644 -0.1914  0.8474
  146SAPE  H18X16132   2.038   3.889   8.329 -0.8623 -0.2377  0.8397
  146SAPE  H18Y16133   2.131   3.980   8.454  1.2628 -2.1837 -1.3688
  146SAPE  H18Z16134   2.020   4.068   8.349  0.3723 -0.3122  0.4927
  147SAPE     N16135   0.073   6.498   5.737 -0.0398  0.2667 -0.1129
  147SAPE   HN116136   0.037   6.542   5.650  0.3573  0.5337 -0.1491
  147SAPE   HN216137   0.175   6.476   5.734 -0.0173  0.0756  1.3115
  147SAPE   HN316138   0.015   6.417   5.765  0.1909  0.5627  1.2882
  147SAPE   C1216139   0.063   6.595   5.856  0.0242 -0.8240  0.7744
  147SAPE  H12A16140  -0.042   6.632   5.866  0.2953 -0.0024  0.6218
  147SAPE  H12B16141   0.136   6.672   5.825 -0.6482 -0.5047 -0.0681
  147SAPE   C1116142   0.103   6.534   5.990  0.1490  0.0196 -0.4135
  147SAPE  H11A16143   0.043   6.445   6.018  1.8154 -1.0474 -0.0435
  147SAPE  H11B16144   0.094   6.607   6.073  0.8611 -0.8705  0.4787
  147SAPE     P16145   0.357   6.562   6.055  0.3440  0.0742  0.2636
  147SAPE   O1316146   0.476   6.478   6.073 -0.1944 -0.0117  0.6523
  147SAPE   O1416147   0.367   6.689   5.989  0.1024 -0.4141 -0.2168
  147SAPE   O1216148   0.235   6.487   5.984  0.3301  0.5500  0.0931
  147SAPE   O1116149   0.309   6.594   6.207  0.8731  0.2594 -0.1447
  147SAPE    C116150   0.256   6.487   6.283  0.2368  0.2717  0.5087
  147SAPE    HA16151   0.146   6.488   6.270  0.3503  1.6309 -0.6169
  147SAPE    HB16152   0.299   6.392   6.246  0.3813  0.6762 -0.4035
  147SAPE    C216153   0.296   6.494   6.436  0.5844 -0.2091  0.0488
  147SAPE    HS16154   0.281   6.396   6.487 -1.5705  0.2060  0.2945
  147SAPE   O2116155   0.218   6.588   6.506 -1.0288 -0.5523  0.0118
  147SAPE   C2116156   0.095   6.563   6.533  0.2636 -0.2413  0.5258
  147SAPE   O2216157   0.038   6.457   6.504 -0.0862  0.1463  0.0909
  147SAPE   C2216158   0.031   6.680   6.605  0.0100 -0.0131 -0.1790
  147SAPE   H2R16159   0.087   6.773   6.582  1.7522 -0.7680  0.8257
  147SAPE   H2S16160  -0.075   6.700   6.578  0.8265  1.4130 -2.6401
  147SAPE    C316161   0.439   6.530   6.440 -0.2032  0.0742 -0.1174
  147SAPE    HX16162   0.454   6.632   6.399 -0.3496  0.1319 -0.0308
  147SAPE    HY16163   0.493   6.460   6.373  0.6284  0.4873  0.1063
  147SAPE   O3116164   0.492   6.507   6.573 -0.4957  0.7022  0.5654
  147SAPE   C3116165   0.606   6.580   6.574 -0.9254  0.0604 -1.2661
  147SAPE   O3216166   0.655   6.639   6.478  0.7572  0.3369  0.2079
  147SAPE   C3216167   0.669   6.575   6.715 -0.2194  0.4125 -0.0086
  147SAPE   H2X16168   0.615   6.500   6.776  0.5212 -1.5124 -1.5759
  147SAPE   H2Y16169   0.639   6.673   6.757 -2.2686 -1.1196  2.4170
  147SAPE   C2316170   0.034   6.661   6.763 -0.2999  0.0282  0.1841
  147SAPE   H3R16171   0.031   6.551   6.782 -2.7846  0.3059  1.8008
  147SAPE   H3S16172  -0.064   6.695   6.800  0.5941  1.3632  1.4061
  147SAPE   C2416173   0.141   6.736   6.841  1.0200  0.0917 -0.5781
  147SAPE   H4R16174   0.118   6.734   6.950 -0.9063 -1.0543 -0.9690
  147SAPE   H4S16175   0.142   6.842   6.809 -0.7336  0.5911  0.8342
  147SAPE   C2516176   0.278   6.676   6.817 -0.6025 -0.5925  0.2108
  147SAPE   H5R16177   0.289   6.627   6.720  0.0432 -1.1032  0.5304
  147SAPE   C2616178   0.373   6.662   6.905 -0.0901 -0.2860  0.8306
  147SAPE   H6R16179   0.466   6.609   6.878 -1.2474 -1.9647 -0.0317
  147SAPE   C2716180   0.364   6.710   7.047  0.3641  0.5321 -0.4768
  147SAPE   H7R16181   0.367   6.620   7.112  1.3437  0.1590 -1.0157
  147SAPE   H7S16182   0.273   6.765   7.081 -1.7807 -3.1874  0.3337
  147SAPE   C2816183   0.481   6.787   7.077 -0.4233  0.6600  0.1021
  147SAPE   H8R16184   0.480   6.896   7.069  3.0479  1.0722  2.7323
  147SAPE   C2916185   0.598   6.745   7.124  0.5996 -0.5765 -0.3738
  147SAPE   H9R16186   0.672   6.824   7.147 -0.6268  0.1547  1.2310
  147SAPE  C21016187   0.642   6.607   7.157 -0.1338 -0.2966  0.6424
  147SAPE  H10R16188   0.602   6.534   7.083 -0.2656 -0.2263  0.6447
  147SAPE  H10S16189   0.586   6.578   7.249  0.2286 -2.8647  0.1224
  147SAPE  C21116190   0.797   6.595   7.150 -0.0753 -0.2704 -0.2326
  147SAPE  H11R16191   0.839   6.568   7.052  0.4908 -2.3055  0.5142
  147SAPE  C21216192   0.886   6.611   7.251  0.0843  0.0153 -0.0019
  147SAPE  H12R16193   0.991   6.594   7.224  0.0083  1.0634 -1.0316
  147SAPE  C21316194   0.858   6.651   7.398 -1.1328  0.2475  0.6197
  147SAPE  H13R16195   0.855   6.560   7.462  2.1351  0.7798  1.6952
  147SAPE  H13S16196   0.754   6.688   7.411 -1.8792 -2.0687  1.8454
  147SAPE  C21416197   0.950   6.774   7.437 -0.7461 -0.8125  0.1794
  147SAPE  H14R16198   0.961   6.858   7.366  2.8304  1.5533  3.1787
  147SAPE  C21516199   1.014   6.792   7.552 -0.4944 -0.4448  0.3723
  147SAPE  H15R16200   1.073   6.884   7.563  0.3348 -1.0165  0.7740
  147SAPE  C21616201   1.004   6.705   7.673 -0.1500 -0.6587  0.0380
  147SAPE  H16R16202   0.948   6.612   7.650 -1.2229  0.2059 -0.9909
  147SAPE  H16S16203   0.934   6.756   7.742  1.0197  2.3805 -0.8440
  147SAPE  C21716204   1.133   6.686   7.756 -0.0757 -0.4830  0.5291
  147SAPE  H17R16205   1.142   6.783   7.809 -2.3801  1.1771 -1.8901
  147SAPE  H17S16206   1.214   6.667   7.682 -0.5496  1.6207 -0.6144
  147SAPE  C21816207   1.133   6.572   7.858  0.0938  0.7900 -0.2693
  147SAPE  H18R16208   1.131   6.479   7.797  1.2939  0.6179 -0.0707
  147SAPE  H18S16209   1.043   6.567   7.923  0.2342 -2.1285 -0.1861
  147SAPE  C21916210   1.256   6.592   7.957  0.5446  0.0648 -0.0969
  147SAPE  H19R16211   1.357   6.598   7.911  0.4809 -2.9642 -0.8580
  147SAPE  H19S16212   1.259   6.493   8.008  0.1941 -0.4457 -1.0453
  147SAPE  C22016213   1.239   6.697   8.064  0.6791 -0.5099 -0.8187
  147SAPE  H20R16214   1.342   6.707   8.105  0.6513 -1.9577 -0.3469
  147SAPE  H20S16215   1.171   6.658   8.142 -1.2375  1.4305 -1.4199
  147SAPE  H20T16216   1.201   6.794   8.024 -0.8956 -0.3611  0.9448
  147SAPE   C3316217   0.824   6.552   6.714  0.3867  0.5785 -0.2532
  147SAPE   H3X16218   0.860   6.561   6.818  1.1925 -2.0193 -0.2364
  147SAPE   H3Y16219   0.854   6.641   6.655 -0.6274  1.3511  0.3741
  147SAPE   C3416220   0.860   6.423   6.650  0.0203  1.0836  0.6151
  147SAPE   H4X16221   0.968   6.421   6.622 -0.0806 -0.1004  0.2816
  147SAPE   H4Y16222   0.803   6.423   6.555  1.4305 -1.4482 -0.3143
  147SAPE   C3516223   0.827   6.291   6.724 -0.1521  0.0199 -0.4814
  147SAPE   H5X16224   0.819   6.203   6.656 -1.1020  0.5700 -1.1177
  147SAPE   H5Y16225   0.722   6.295   6.761 -0.3272 -2.2218 -0.6417
  147SAPE   C3616226   0.920   6.265   6.834 -1.1385  0.0605 -0.3532
  147SAPE   H6X16227   0.927   6.354   6.899  1.8714 -0.8479  0.7430
  147SAPE   H6Y16228   1.019   6.234   6.794 -1.5960 -1.1879 -0.5620
  147SAPE   C3716229   0.857   6.160   6.930  0.2344 -0.0004  0.3348
  147SAPE   H7X16230   0.846   6.065   6.875 -0.3047  0.1926  0.1026
  147SAPE   H7Y16231   0.757   6.201   6.958  0.6459  1.6442 -0.4541
  147SAPE   C3816232   0.950   6.128   7.054  0.3080 -0.7025 -0.3486
  147SAPE   H8X16233   0.945   6.222   7.112  1.4099 -0.4557 -0.6462
  147SAPE   H8Y16234   1.049   6.108   7.008  0.3634 -2.3967  0.4206
  147SAPE   C3916235   0.921   6.019   7.155  1.1831  0.7762  0.1160
  147SAPE   H9X16236   0.952   5.918   7.120  1.6813  0.4808  1.3482
  147SAPE   H9Y16237   0.817   6.013   7.192  0.9613 -2.2103 -0.7574
  147SAPE  C31016238   1.009   6.046   7.281 -0.0816 -0.3964 -0.0627
  147SAPE  H10X16239   1.003   6.154   7.307 -0.3201 -0.2822 -0.5836
  147SAPE  H10Y16240   1.114   6.033   7.250  0.3242 -1.3092  1.5957
  147SAPE  C31116241   0.975   5.953   7.395 -0.5096  0.5618 -0.2580
  147SAPE  H11X16242   0.985   5.850   7.355 -0.9763  0.0050  1.0306
  147SAPE  H11Y16243   0.868   5.966   7.421 -0.4349  1.0270 -0.1702
  147SAPE  C31216244   1.066   5.977   7.521 -0.1558  0.1231  0.1853
  147SAPE  H12X16245   1.062   6.087   7.534  0.0521  0.0880  0.5660
  147SAPE  H12Y16246   1.170   5.941   7.502  0.1969  1.7407 -1.1957
  147SAPE  C31316247   1.015   5.905   7.646 -0.1985  0.3773  0.1823
  147SAPE  H13X16248   0.993   5.803   7.608 -0.4304  0.5114 -0.0446
  147SAPE  H13Y16249   0.919   5.957   7.668  0.1371  1.2267 -0.3224
  147SAPE  C31416250   1.104   5.900   7.775  0.1776 -0.4055  0.3308
  147SAPE  H14X16251   1.200   5.861   7.736  1.6788  2.6952  0.6183
  147SAPE  H14Y16252   1.049   5.845   7.855  0.3104  0.8082  1.2825
  147SAPE  C31516253   1.140   6.032   7.843 -0.5534 -0.9511  0.4627
  147SAPE  H15X16254   1.048   6.078   7.884 -1.0361 -0.6215 -0.9292
  147SAPE  H15Y16255   1.181   6.108   7.773  0.1732 -0.2634  1.5981
  147SAPE  C31616256   1.240   6.007   7.959  0.2724 -0.3498  0.5590
  147SAPE  H16X16257   1.338   5.981   7.912  1.6394  0.0932  2.9930
  147SAPE  H16Y16258   1.207   5.923   8.023  0.5978 -0.2163  0.9020
  147SAPE  C31716259   1.271   6.139   8.027  0.0710 -0.0990 -0.5669
  147SAPE  H17X16260   1.248   6.228   7.963  1.6010 -1.4439 -3.1337
  147SAPE  H17Y16261   1.379   6.153   8.045 -0.0015  0.1632 -0.3278
  147SAPE  C31816262   1.209   6.159   8.162  0.2103 -0.0322 -0.1165
  147SAPE  H18X16263   1.267   6.239   8.212 -0.3019  0.9718 -1.1015
  147SAPE  H18Y16264   1.226   6.058   8.206  2.7750 -0.1202 -1.1385
  147SAPE  H18Z16265   1.102   6.187   8.161  0.1219 -0.3282  0.4120
  148SAPE     N16266   0.965   5.166   6.216 -0.0237 -0.5260  0.2605
  148SAPE   HN116267   0.875   5.122   6.188  0.6108 -1.8443  0.2177
  148SAPE   HN216268   0.975   5.263   6.180 -1.1250  0.3212  2.0552
  148SAPE   HN316269   1.043   5.107   6.182 -0.3337  0.4332 -2.2716
  148SAPE   C1216270   0.963   5.192   6.356  0.4933  0.4232  0.6048
  148SAPE  H12A16271   1.035   5.272   6.382 -1.4280  1.7355  2.1545
  148SAPE  H12B16272   0.988   5.102   6.415 -0.3017  0.7453  1.4577
  148SAPE   C1116273   0.816   5.241   6.377  0.4074 -0.0419  0.2177
  148SAPE  H11A16274   0.804   5.333   6.315  0.1150 -0.2109  0.0239
  148SAPE  H11B16275   0.812   5.268   6.484  0.9712  1.6385 -0.1420
  148SAPE     P16276   0.642   5.051   6.433 -0.1698  0.3494 -0.0677
  148SAPE   O1316277   0.499   5.069   6.426 -0.0060 -0.0835 -0.1314
  148SAPE   O1416278   0.703   4.922   6.399 -1.2700 -0.5216  0.4536
  148SAPE   O1216279   0.714   5.148   6.336  0.1628 -0.7343 -0.2201
  148SAPE   O1116280   0.697   5.094   6.575 -0.4583  0.1356 -0.1121
  148SAPE    C116281   0.746   5.000   6.675  0.0760  0.6285  0.4627
  148SAPE    HA16282   0.786   4.902   6.641 -2.7920 -1.0257  1.5201
  148SAPE    HB16283   0.826   5.049   6.736 -0.3804 -1.2342  2.7235
  148SAPE    C216284   0.624   4.963   6.767 -0.2834  0.0479 -0.0817
  148SAPE    HS16285   0.537   4.948   6.700 -2.4304  1.3539  2.2792
  148SAPE   O2116286   0.608   5.080   6.848 -0.3685  0.1914 -0.0318
  148SAPE   C2116287   0.485   5.078   6.902 -0.3708  0.3868  0.2903
  148SAPE   O2216288   0.397   5.000   6.877  0.6263  0.4232  0.3048
  148SAPE   C2216289   0.478   5.192   6.992  0.9371 -0.0379 -0.0308
  148SAPE   H2R16290   0.577   5.228   7.027  0.0755  1.6647  0.8055
  148SAPE   H2S16291   0.432   5.272   6.931  1.3957  1.1825  1.1605
  148SAPE    C316292   0.651   4.834   6.845 -0.5424  0.1729 -0.2657
  148SAPE    HX16293   0.662   4.757   6.766 -0.1011  2.7064 -2.8418
  148SAPE    HY16294   0.566   4.812   6.912 -0.3312  1.9180  0.6254
  148SAPE   O3116295   0.776   4.851   6.923  0.7888 -0.2066 -0.4198
  148SAPE   C3116296   0.865   4.761   6.914 -0.2134 -1.1144  0.5141
  148SAPE   O3216297   0.868   4.666   6.835  0.0034  0.1321 -0.3443
  148SAPE   C3216298   0.977   4.797   7.009 -0.4015  0.1216  0.0264
  148SAPE   H2X16299   0.991   4.908   7.010  2.4151 -0.1544  0.4159
  148SAPE   H2Y16300   1.074   4.757   6.972  1.7776  1.5583  3.5822
  148SAPE   C2316301   0.382   5.158   7.111  0.6272 -0.5907  0.4920
  148SAPE   H3R16302   0.404   5.060   7.158  3.0086  0.3533  1.4879
  148SAPE   H3S16303   0.277   5.154   7.076  0.5307 -0.6920  0.7872
  148SAPE   C2416304   0.380   5.264   7.230  0.2589  0.4739  0.1408
  148SAPE   H4R16305   0.300   5.241   7.304 -2.4940  2.3807 -2.0087
  148SAPE   H4S16306   0.366   5.366   7.189 -1.2973 -0.1431 -0.9340
  148SAPE   C2516307   0.524   5.265   7.293  0.3372  0.2922  0.0481
  148SAPE   H5R16308   0.582   5.355   7.270 -2.1806  1.2532 -3.2052
  148SAPE   C2616309   0.576   5.171   7.374 -0.3654 -0.1805 -0.1869
  148SAPE   H6R16310   0.669   5.190   7.429 -0.0926  1.4535 -1.1288
  148SAPE   C2716311   0.494   5.053   7.418 -0.1819  0.0800 -0.4695
  148SAPE   H7R16312   0.397   5.043   7.365 -0.9677 -1.1741  1.0873
  148SAPE   H7S16313   0.473   5.060   7.527  2.2894 -1.6544  0.1987
  148SAPE   C2816314   0.555   4.908   7.404 -0.7812 -0.0356  0.1172
  148SAPE   H8R16315   0.535   4.854   7.311 -1.3910  1.3437 -0.5779
  148SAPE   C2916316   0.645   4.846   7.488  0.3725 -0.3220  0.1017
  148SAPE   H9R16317   0.671   4.740   7.478 -2.0460 -0.9215 -0.2609
  148SAPE  C21016318   0.702   4.903   7.621  0.2560 -0.5549 -0.7664
  148SAPE  H10R16319   0.716   4.819   7.694 -0.2276 -0.2967 -0.3683
  148SAPE  H10S16320   0.637   4.970   7.681 -2.0403 -0.6439 -3.0039
  148SAPE  C21116321   0.828   4.979   7.589  1.0837 -0.7365  0.0840
  148SAPE  H11R16322   0.837   5.012   7.484 -1.4997  0.4986  0.1632
  148SAPE  C21216323   0.927   5.017   7.674 -0.0267  0.0096 -0.4241
  148SAPE  H12R16324   1.003   5.093   7.650 -0.9469  0.0681 -3.5882
  148SAPE  C21316325   0.920   4.990   7.822  0.4478  0.2234 -0.3646
  148SAPE  H13R16326   1.006   4.926   7.852 -1.2411 -1.0417  2.1318
  148SAPE  H13S16327   0.833   4.929   7.856  0.8141 -0.7671 -1.1405
  148SAPE  C21416328   0.928   5.121   7.896 -0.1505  0.6434  0.4231
  148SAPE  H14R16329   1.002   5.196   7.866  2.7489 -1.8796  0.8206
  148SAPE  C21516330   0.856   5.135   8.012 -0.3473 -0.2460 -0.5518
  148SAPE  H15R16331   0.869   5.233   8.061 -1.9042 -0.0486 -0.4871
  148SAPE  C21616332   0.761   5.033   8.082  0.1081 -0.1700  0.7380
  148SAPE  H16R16333   0.818   4.941   8.106  2.4061  1.1923  0.7931
  148SAPE  H16S16334   0.684   4.993   8.012  0.7970 -0.6714  0.2420
  148SAPE  C21716335   0.707   5.091   8.206  0.1279 -0.7740  0.3710
  148SAPE  H17R16336   0.667   5.194   8.196 -1.2672 -1.3471 -0.0947
  148SAPE  H17S16337   0.797   5.109   8.269  0.8020  0.6201 -0.9052
  148SAPE  C21816338   0.597   5.009   8.279 -0.1114  0.5735  0.2937
  148SAPE  H18R16339   0.638   4.918   8.327 -1.1366 -0.2383 -0.3121
  148SAPE  H18S16340   0.519   4.969   8.211  0.5852 -0.7216  0.2326
  148SAPE  C21916341   0.517   5.081   8.392  0.2969  0.6414 -0.5346
  148SAPE  H19R16342   0.450   5.153   8.341 -1.2364 -1.9340 -2.4225
  148SAPE  H19S16343   0.582   5.142   8.458 -2.9802  2.5957  1.1358
  148SAPE  C22016344   0.441   4.976   8.471 -0.5232  0.0262  0.2911
  148SAPE  H20R16345   0.366   5.023   8.539 -1.9141  1.2374 -1.9433
  148SAPE  H20S16346   0.506   4.896   8.512 -0.9788 -1.0067 -0.9092
  148SAPE  H20T16347   0.378   4.922   8.397  0.1674 -0.4166  0.0208
  148SAPE   C3316348   0.943   4.754   7.159  0.4607  0.6426  0.2560
  148SAPE   H3X16349   0.924   4.646   7.146 -2.7868  1.1257  0.0290
  148SAPE   H3Y16350   0.846   4.803   7.183 -1.4296 -1.7599 -1.8287
  148SAPE   C3416351   1.049   4.789   7.260  0.3790  0.7698 -0.2984
  148SAPE   H4X16352   1.036   4.898   7.279 -0.8076  0.2490  2.2716
  148SAPE   H4Y16353   1.151   4.768   7.220  0.6492  0.4963  0.5119
  148SAPE   C3516354   1.016   4.717   7.398  0.2216  0.3869  0.7776
  148SAPE   H5X16355   1.027   4.606   7.400 -1.6332  0.1711  1.0721
  148SAPE   H5Y16356   0.910   4.749   7.412  0.9009  3.1438  0.2418
  148SAPE   C3616357   1.108   4.770   7.517  0.8053  0.3657 -0.2964
  148SAPE   H6X16358   1.060   4.734   7.610  0.6002  1.8012  0.1848
  148SAPE   H6Y16359   1.111   4.881   7.513 -1.2413  0.4250 -1.5307
  148SAPE   C3716360   1.252   4.718   7.514  0.3280  0.3308  0.6947
  148SAPE   H7X16361   1.288   4.734   7.410 -0.3291 -2.1343  0.0255
  148SAPE   H7Y16362   1.252   4.608   7.528 -1.4500  0.3865  1.4601
  148SAPE   C3816363   1.351   4.783   7.613  0.1588  0.3771 -0.4583
  148SAPE   H8X16364   1.367   4.888   7.583 -1.0131  0.3304 -1.3465
  148SAPE   H8Y16365   1.453   4.739   7.608  1.1089  2.5702 -1.3549
  148SAPE   C3916366   1.309   4.762   7.760  0.2358 -0.3006 -0.7739
  148SAPE   H9X16367   1.231   4.833   7.795 -0.6669 -2.2201  1.3559
  148SAPE   H9Y16368   1.405   4.777   7.814  0.1248  0.5042 -0.7935
  148SAPE  C31016369   1.262   4.618   7.798 -0.0786 -0.8405  0.0967
  148SAPE  H10X16370   1.339   4.547   7.762  0.6546 -0.9554  1.7597
  148SAPE  H10Y16371   1.168   4.579   7.755  0.4742 -2.0824 -0.0113
  148SAPE  C31116372   1.258   4.595   7.953 -0.6806  0.0680  0.6037
  148SAPE  H11X16373   1.356   4.628   7.995 -0.8562  0.4715  0.7051
  148SAPE  H11Y16374   1.229   4.489   7.969 -4.5329  0.9452  0.2031
  148SAPE  C31216375   1.165   4.676   8.038 -0.8646  0.1410  0.2367
  148SAPE  H12X16376   1.064   4.654   7.997  0.1240 -0.8230 -1.8431
  148SAPE  H12Y16377   1.186   4.784   8.024  2.3891 -0.3315  0.5828
  148SAPE  C31316378   1.167   4.648   8.189  0.4351 -0.2856  0.2743
  148SAPE  H13X16379   1.266   4.673   8.231  0.8927  1.9315 -1.8773
  148SAPE  H13Y16380   1.140   4.540   8.186 -0.5625 -0.0824 -3.8524
  148SAPE  C31416381   1.064   4.729   8.273 -0.7513 -0.3263  0.1422
  148SAPE  H14X16382   0.972   4.742   8.212 -0.4435  0.9291 -0.0699
  148SAPE  H14Y16383   1.112   4.827   8.295  0.9656 -0.1065 -3.7310
  148SAPE  C31516384   1.015   4.651   8.397  0.4231  0.0713  0.3294
  148SAPE  H15X16385   1.102   4.620   8.458 -1.8645 -0.1639  3.7513
  148SAPE  H15Y16386   0.964   4.553   8.378  0.4481 -0.5370  3.0337
  148SAPE  C31616387   0.942   4.749   8.486  0.0765 -0.2007  0.5888
  148SAPE  H16X16388   0.864   4.703   8.550  0.7102 -0.3667  1.2450
  148SAPE  H16Y16389   0.890   4.823   8.420 -0.3993 -0.9138  0.1522
  148SAPE  C31716390   1.040   4.817   8.591 -0.2893  0.1511  0.0687
  148SAPE  H17X16391   1.117   4.880   8.541 -0.4600  0.5095  0.2588
  148SAPE  H17Y16392   1.097   4.732   8.635  2.6378  1.3275 -1.1722
  148SAPE  C31816393   0.973   4.903   8.698 -0.4773 -0.3054  0.8786
  148SAPE  H18X16394   0.947   5.006   8.667  0.6361 -0.4751 -0.7380
  148SAPE  H18Y16395   1.026   4.917   8.795 -0.6451 -1.2113  1.1132
  148SAPE  H18Z16396   0.881   4.848   8.727  0.6187 -1.9159  1.5030
  149SAPE     N16397   5.821   4.509   6.159  0.1204  0.5089 -0.2665
  149SAPE   HN116398   5.819   4.518   6.055 -0.2315  1.8926 -0.1484
  149SAPE   HN216399   5.831   4.605   6.195 -0.9926 -0.3053  2.4296
  149SAPE   HN316400   5.906   4.459   6.191  0.0683  0.2864 -0.4683
  149SAPE   C1216401   5.703   4.437   6.215 -0.3714 -0.0401 -0.2559
  149SAPE  H12A16402   5.685   4.344   6.158 -1.2442 -1.2220  1.8714
  149SAPE  H12B16403   5.614   4.502   6.198  0.3759  0.6392 -1.8598
  149SAPE   C1116404   5.718   4.409   6.368 -0.2048 -0.2842  0.3306
  149SAPE  H11A16405   5.817   4.359   6.377  0.4395  0.6556 -1.1378
  149SAPE  H11B16406   5.636   4.338   6.388  0.6135 -0.9770  1.3394
  149SAPE     P16407   5.573   4.591   6.497 -0.4125  0.4165 -0.0472
  149SAPE   O1316408   5.589   4.711   6.580  0.5025 -0.3221  0.2133
  149SAPE   O1416409   5.495   4.608   6.374 -0.1544  0.3431  0.3244
  149SAPE   O1216410   5.709   4.524   6.451  0.7021 -0.0215 -0.1737
  149SAPE   O1116411   5.513   4.471   6.574  0.7245 -1.0439 -0.1335
  149SAPE    C116412   5.483   4.467   6.712  0.3589 -0.1067 -0.3469
  149SAPE    HA16413   5.518   4.371   6.755 -1.0321 -0.3066  0.4072
  149SAPE    HB16414   5.534   4.547   6.769  1.7261 -2.2083  1.5137
  149SAPE    C216415   5.329   4.476   6.745  0.5894 -0.4388 -0.0424
  149SAPE    HS16416   5.267   4.435   6.663 -0.4860 -1.2274  1.1104
  149SAPE   O2116417   5.305   4.621   6.772  0.0538  0.5149 -1.0252
  149SAPE   C2116418   5.186   4.661   6.754  1.6766  0.5096 -0.5309
  149SAPE   O2216419   5.099   4.582   6.712  0.2860  0.3727  0.0274
  149SAPE   C2216420   5.150   4.802   6.800  0.6014 -0.3000 -0.1573
  149SAPE   H2R16421   5.198   4.831   6.897  1.3172 -0.2071 -0.5335
  149SAPE   H2S16422   5.189   4.861   6.715 -0.2079  0.0900 -0.2630
  149SAPE    C316423   5.283   4.385   6.858 -0.1409  1.3156  0.1623
  149SAPE    HX16424   5.303   4.281   6.826  2.6841  1.1998  1.9182
  149SAPE    HY16425   5.174   4.391   6.877 -0.4919 -2.6487  0.2623
  149SAPE   O3116426   5.364   4.400   6.974 -0.1007  0.4609  0.1459
  149SAPE   C3116427   5.308   4.332   7.074  1.0594 -0.4061  0.3012
  149SAPE   O3216428   5.198   4.278   7.069 -0.6469 -0.2325  0.0689
  149SAPE   C3216429   5.395   4.322   7.199 -0.3687 -0.1646  0.5873
  149SAPE   H2X16430   5.445   4.419   7.218 -1.2215 -0.0608  2.5810
  149SAPE   H2Y16431   5.477   4.251   7.177  0.0161  0.0895  1.1844
  149SAPE   C2316432   4.998   4.833   6.793 -0.6777  0.0728  0.3682
  149SAPE   H3R16433   4.951   4.774   6.874 -1.3218 -0.3170 -0.2821
  149SAPE   H3S16434   4.949   4.798   6.700 -1.7203 -2.1845  1.7086
  149SAPE   C2416435   4.969   4.980   6.825 -0.3263 -0.2452 -0.4903
  149SAPE   H4R16436   5.027   5.040   6.752 -2.6014  1.3800 -1.0714
  149SAPE   H4S16437   4.995   4.991   6.933 -0.8745  1.6158 -0.5200
  149SAPE   C2516438   4.821   4.997   6.816 -0.4551 -0.4899  0.0200
  149SAPE   H5R16439   4.794   5.031   6.715  1.0660 -1.2938 -0.6908
  149SAPE   C2616440   4.728   4.976   6.917  0.1712  0.5531  0.3017
  149SAPE   H6R16441   4.625   4.999   6.888  1.0213  0.8019 -2.9460
  149SAPE   C2716442   4.756   4.939   7.057 -0.4015 -0.5186 -0.7074
  149SAPE   H7R16443   4.785   5.031   7.111 -1.5890 -0.3888 -0.2593
  149SAPE   H7S16444   4.846   4.876   7.073  0.2981  0.9207  1.3719
  149SAPE   C2816445   4.637   4.864   7.114  0.8467 -0.8402  0.2352
  149SAPE   H8R16446   4.574   4.815   7.038 -2.6958  0.1360  2.2994
  149SAPE   C2916447   4.597   4.834   7.246 -0.5954  0.4254  0.0279
  149SAPE   H9R16448   4.509   4.771   7.266 -0.3171 -0.0648 -0.2647
  149SAPE  C21016449   4.665   4.875   7.371 -0.0960 -0.9808  0.6576
  149SAPE  H10R16450   4.742   4.949   7.340  0.6952 -2.1587 -0.2336
  149SAPE  H10S16451   4.731   4.807   7.429  1.8595  1.2866  1.2773
  149SAPE  C21116452   4.565   4.959   7.447 -0.0839 -1.3313 -0.4734
  149SAPE  H11R16453   4.528   5.052   7.402  1.2938 -1.2676 -1.5342
  149SAPE  C21216454   4.528   4.927   7.567 -0.9517  0.0252 -0.1195
  149SAPE  H12R16455   4.453   4.987   7.623 -1.2596  0.2987 -0.8136
  149SAPE  C21316456   4.581   4.805   7.641 -0.0668 -0.0900  0.8222
  149SAPE  H13R16457   4.595   4.716   7.576  1.5776  0.5664  0.2247
  149SAPE  H13S16458   4.502   4.767   7.709  0.3929 -2.6907 -0.0013
  149SAPE  C21416459   4.706   4.833   7.723 -0.7032  0.5839 -0.0948
  149SAPE  H14R16460   4.768   4.912   7.680  0.5309 -0.2082  0.1722
  149SAPE  C21516461   4.763   4.757   7.828  0.5678 -0.9718  0.5340
  149SAPE  H15R16462   4.849   4.805   7.877 -0.5709  0.2593  1.3769
  149SAPE  C21616463   4.705   4.628   7.891 -0.2403 -0.1924  0.0014
  149SAPE  H16R16464   4.784   4.551   7.888  0.3852  0.2609  2.4142
  149SAPE  H16S16465   4.623   4.584   7.829  0.4647 -0.5945 -0.6623
  149SAPE  C21716466   4.674   4.668   8.035  0.4273 -0.3612 -1.2562
  149SAPE  H17R16467   4.619   4.584   8.082  2.0906 -0.4410  0.6841
  149SAPE  H17S16468   4.596   4.747   8.025  0.1879 -0.4144  0.0392
  149SAPE  C21816469   4.795   4.710   8.125  0.2942  0.4011  1.1410
  149SAPE  H18R16470   4.858   4.789   8.080  2.1787 -0.7171  1.7150
  149SAPE  H18S16471   4.866   4.625   8.138 -0.2817 -0.4874 -1.0437
  149SAPE  C21916472   4.748   4.743   8.263  0.4417 -0.4119  0.2428
  149SAPE  H19R16473   4.685   4.655   8.287 -0.0382 -0.4436 -1.0606
  149SAPE  H19S16474   4.690   4.838   8.263 -0.9919 -1.1567 -2.6429
  149SAPE  C22016475   4.857   4.755   8.364 -0.1215 -0.0637 -0.9935
  149SAPE  H20R16476   4.927   4.837   8.340 -2.5910  1.8731 -2.0845
  149SAPE  H20S16477   4.918   4.662   8.366 -0.5018 -0.4052  2.4756
  149SAPE  H20T16478   4.816   4.786   8.463  0.0442 -0.3005 -0.8489
  149SAPE   C3316479   5.311   4.257   7.314 -0.5904 -0.1235  0.0586
  149SAPE   H3X16480   5.258   4.165   7.282  0.5537 -1.5151  1.9773
  149SAPE   H3Y16481   5.245   4.340   7.347  0.6069 -0.1517  2.7336
  149SAPE   C3416482   5.397   4.212   7.433 -0.5749 -0.1548 -0.5148
  149SAPE   H4X16483   5.490   4.158   7.405  1.2843  0.9951  2.8305
  149SAPE   H4Y16484   5.343   4.142   7.500 -1.2510 -0.1413 -1.0385
  149SAPE   C3516485   5.439   4.329   7.520  0.1382  0.0646  0.2206
  149SAPE   H5X16486   5.484   4.408   7.455 -0.4365  0.4239  0.2562
  149SAPE   H5Y16487   5.520   4.288   7.584  0.2925 -0.6403 -0.4099
  149SAPE   C3616488   5.328   4.396   7.606  0.3776  0.3483 -0.6221
  149SAPE   H6X16489   5.270   4.315   7.656 -3.6205  1.0969 -3.5622
  149SAPE   H6Y16490   5.259   4.453   7.540 -0.9948  1.2306  1.4537
  149SAPE   C3716491   5.376   4.493   7.710 -0.2629  0.0575 -0.3435
  149SAPE   H7X16492   5.435   4.575   7.664  0.2922  0.4293  0.9681
  149SAPE   H7Y16493   5.444   4.443   7.782 -0.4555 -1.5582 -1.2342
  149SAPE   C3816494   5.269   4.555   7.798  0.3174  0.4898  0.5402
  149SAPE   H8X16495   5.177   4.562   7.736  0.7306 -0.0856 -0.1611
  149SAPE   H8Y16496   5.290   4.663   7.808 -1.3805  1.2130 -2.5258
  149SAPE   C3916497   5.205   4.489   7.924 -0.1108  0.0377  0.3279
  149SAPE   H9X16498   5.181   4.382   7.904  0.9712 -0.0649 -0.4985
  149SAPE   H9Y16499   5.114   4.547   7.951 -0.2065 -1.0559  2.6687
  149SAPE  C31016500   5.286   4.489   8.052  0.8347 -0.1224 -0.5223
  149SAPE  H10X16501   5.332   4.587   8.079 -0.1017  0.4555 -0.9735
  149SAPE  H10Y16502   5.374   4.422   8.042  0.8716 -0.0288 -0.8144
  149SAPE  C31116503   5.184   4.458   8.162  0.1447 -0.0444  0.0661
  149SAPE  H11X16504   5.125   4.368   8.133  0.5537  0.1436 -1.4764
  149SAPE  H11Y16505   5.113   4.543   8.167  1.2027  0.7896  1.6709
  149SAPE  C31216506   5.250   4.433   8.302  0.2457 -0.1027 -0.6304
  149SAPE  H12X16507   5.319   4.519   8.317 -1.6070  1.6299 -1.5519
  149SAPE  H12Y16508   5.316   4.344   8.297  1.1527  0.4559  0.7395
  149SAPE  C31316509   5.155   4.429   8.423 -0.3156  0.1541  0.1541
  149SAPE  H13X16510   5.124   4.322   8.428 -0.3723 -0.0814 -2.9104
  149SAPE  H13Y16511   5.071   4.498   8.400  0.9181  1.0345 -1.9830
  149SAPE  C31416512   5.218   4.471   8.555  0.1469 -0.7112  0.1205
  149SAPE  H14X16513   5.241   4.579   8.560 -1.5416 -0.2515 -1.0319
  149SAPE  H14Y16514   5.318   4.424   8.564  1.7921  2.0881 -1.9636
  149SAPE  C31516515   5.128   4.445   8.675 -0.1085 -0.1718 -0.3750
  149SAPE  H15X16516   5.180   4.476   8.768 -1.3545  0.3028  0.1887
  149SAPE  H15Y16517   5.126   4.336   8.696  1.0632 -0.0322  0.6159
  149SAPE  C31616518   4.993   4.515   8.674  0.4974  0.3397 -0.7746
  149SAPE  H16X16519   4.932   4.464   8.752  2.6695  0.2956  1.0016
  149SAPE  H16Y16520   4.940   4.505   8.577 -0.3782  0.0302 -0.2753
  149SAPE  C31716521   5.003   4.654   8.731 -0.1249  0.3437  0.3454
  149SAPE  H17X16522   5.047   4.722   8.654  0.5910  0.0242  0.4595
  149SAPE  H17Y16523   5.073   4.647   8.817  0.2739 -1.5475 -0.0960
  149SAPE  C31816524   4.880   4.713   8.793  0.5570 -0.0151  0.2032
  149SAPE  H18X16525   4.802   4.730   8.715  2.8464  2.3685 -1.7438
  149SAPE  H18Y16526   4.914   4.816   8.818  0.6191  0.2596 -0.9553
  149SAPE  H18Z16527   4.835   4.654   8.876  0.7804 -1.6649 -0.8033
  150SAPE     N16528   5.042   0.150   6.170  0.2700 -0.1154  0.1255
  150SAPE   HN116529   5.003   0.245   6.187 -0.4816 -0.1386 -1.3314
  150SAPE   HN216530   5.132   0.162   6.120  0.7761 -0.8977  0.8165
  150SAPE   HN316531   4.979   0.100   6.104  0.5231  1.3442 -1.2736
  150SAPE   C1216532   5.039   0.078   6.303  0.2640  0.0477  0.4119
  150SAPE  H12A16533   5.082  -0.023   6.287 -2.0205 -0.6363 -2.3811
  150SAPE  H12B16534   4.930   0.073   6.321  0.1396  2.4079  0.6228
  150SAPE   C1116535   5.117   0.162   6.410  0.3892  0.3741  0.3111
  150SAPE  H11A16536   5.111   0.112   6.509 -0.1828 -1.4461 -0.5994
  150SAPE  H11B16537   5.060   0.257   6.423  1.8602  0.9755  3.1317
  150SAPE     P16538   5.367   0.096   6.370  0.6876 -0.1359  0.0398
  150SAPE   O1316539   5.325  -0.036   6.310 -0.3541  0.0370  0.1407
  150SAPE   O1416540   5.490   0.159   6.317  0.1510  0.0899  0.2018
  150SAPE   O1216541   5.245   0.198   6.366 -0.5919  0.2288  0.2450
  150SAPE   O1116542   5.403   0.079   6.524 -0.3133  0.1682 -0.0620
  150SAPE    C116543   5.380   0.191   6.607 -0.0575  0.4200 -0.4199
  150SAPE    HA16544   5.469   0.256   6.596  0.0679  1.2019  3.7633
  150SAPE    HB16545   5.297   0.260   6.579 -0.1908  1.1411  1.5996
  150SAPE    C216546   5.373   0.151   6.752 -0.5058  0.4408 -0.0372
  150SAPE    HS16547   5.409   0.047   6.764  0.6322  0.9766  1.5231
  150SAPE   O2116548   5.237   0.165   6.793  0.7242  0.0300 -0.0531
  150SAPE   C2116549   5.170   0.059   6.836  0.1207  0.0559 -0.8638
  150SAPE   O2216550   5.217  -0.056   6.844 -0.4669  0.2981  0.5706
  150SAPE   C2216551   5.037   0.101   6.886  0.0919  0.3768 -1.5341
  150SAPE   H2R16552   4.981   0.120   6.792 -2.5965 -0.2185 -0.1511
  150SAPE   H2S16553   4.986   0.019   6.942  2.6838  0.9935  2.0709
  150SAPE    C316554   5.463   0.245   6.836  0.0659 -0.0214  0.1076
  150SAPE    HX16555   5.417   0.344   6.816 -0.2903  0.1571  1.6999
  150SAPE    HY16556   5.568   0.238   6.801  0.1307 -2.8900  0.5860
  150SAPE   O3116557   5.448   0.210   6.972  0.5610  0.5147 -0.4243
  150SAPE   C3116558   5.542   0.243   7.056 -0.1978  1.1194  0.1840
  150SAPE   O3216559   5.640   0.307   7.026  0.2150 -0.4097  0.1964
  150SAPE   C3216560   5.519   0.171   7.186 -0.0282  0.4796 -0.2244
  150SAPE   H2X16561   5.525   0.060   7.190  0.4716  0.5127  0.2382
  150SAPE   H2Y16562   5.415   0.181   7.222  0.1661 -1.8226  1.2035
  150SAPE   C2316563   5.036   0.236   6.961  0.2475 -0.0783 -0.1035
  150SAPE   H3R16564   4.929   0.255   6.980  0.3500 -0.1937  0.6173
  150SAPE   H3S16565   5.084   0.316   6.900 -0.8619 -1.1384 -2.5111
  150SAPE   C2416566   5.109   0.234   7.096 -0.8467 -0.1664 -0.2697
  150SAPE   H4R16567   5.218   0.237   7.074 -0.3749 -1.7258  1.6145
  150SAPE   H4S16568   5.089   0.138   7.148 -0.4402 -0.6727 -1.0375
  150SAPE   C2516569   5.084   0.349   7.190  0.1953 -0.2497  0.2164
  150SAPE   H5R16570   5.072   0.450   7.147  0.7141  0.5193  1.7807
  150SAPE   C2616571   5.085   0.353   7.325  0.0965 -0.1177 -0.0637
  150SAPE   H6R16572   5.063   0.449   7.374  1.3624 -0.0289  0.3827
  150SAPE   C2716573   5.109   0.236   7.409 -0.6738  0.4690  0.0012
  150SAPE   H7R16574   5.214   0.241   7.444  0.3353 -1.4728 -2.5086
  150SAPE   H7S16575   5.105   0.138   7.358 -1.1044 -0.9193  2.5637
  150SAPE   C2816576   5.004   0.232   7.520 -0.2540 -0.6514 -0.3419
  150SAPE   H8R16577   4.899   0.246   7.489 -0.8285 -1.4727  1.1231
  150SAPE   C2916578   5.026   0.221   7.649  0.0447  0.8039  0.4493
  150SAPE   H9R16579   4.946   0.236   7.723  1.3282 -1.2832  2.3957
  150SAPE  C21016580   5.160   0.206   7.723  0.1489  0.3612  0.0351
  150SAPE  H10R16581   5.241   0.245   7.658  0.4959  1.0331  0.8436
  150SAPE  H10S16582   5.171   0.096   7.720  0.8592  0.4442 -1.0329
  150SAPE  C21116583   5.180   0.252   7.869 -0.3408 -0.7032  0.2109
  150SAPE  H11R16584   5.245   0.339   7.888 -0.2179 -0.4895 -1.1264
  150SAPE  C21216585   5.119   0.198   7.982 -0.2738  0.3660 -0.2666
  150SAPE  H12R16586   5.133   0.229   8.086 -1.6591  3.1816 -0.8242
  150SAPE  C21316587   5.029   0.080   7.968  0.1375 -0.5932  0.3161
  150SAPE  H13R16588   5.079  -0.001   7.911 -0.0514  0.3959 -1.3556
  150SAPE  H13S16589   4.942   0.105   7.903  0.5999  1.2958  0.3553
  150SAPE  C21416590   4.967   0.021   8.097  0.6504 -0.1239 -0.6435
  150SAPE  H14R16591   4.858   0.008   8.095  0.6013  0.3278 -2.3339
  150SAPE  C21516592   5.030  -0.035   8.207  0.0163 -0.2774 -0.3415
  150SAPE  H15R16593   4.964  -0.072   8.286 -0.4831 -0.0292 -0.6376
  150SAPE  C21616594   5.183  -0.045   8.220 -0.4310  0.5860 -0.3825
  150SAPE  H16R16595   5.240   0.007   8.141 -2.4585  1.2703 -1.4769
  150SAPE  H16S16596   5.216  -0.151   8.222 -1.8142  0.1191 -0.7432
  150SAPE  C21716597   5.216   0.032   8.352  0.0002  0.8910  0.4566
  150SAPE  H17R16598   5.179  -0.041   8.426  2.1694  0.4570  1.1801
  150SAPE  H17S16599   5.153   0.122   8.371  0.4852  1.5089 -0.7660
  150SAPE  C21816600   5.364   0.055   8.372  0.5202 -0.4105 -0.2735
  150SAPE  H18R16601   5.401   0.140   8.311  0.7076  0.2106  0.6676
  150SAPE  H18S16602   5.419  -0.038   8.346  1.1913  0.0709 -0.6012
  150SAPE  C21916603   5.398   0.073   8.525  0.6721 -0.3454  0.1774
  150SAPE  H19R16604   5.503   0.106   8.534  0.4632  0.4537 -0.2033
  150SAPE  H19S16605   5.385  -0.025   8.575 -2.8444  0.2100  0.6521
  150SAPE  C22016606   5.317   0.179   8.588 -0.4748 -0.3704  0.2605
  150SAPE  H20R16607   5.208   0.163   8.573 -0.4996 -0.5867  0.6612
  150SAPE  H20S16608   5.349   0.278   8.550 -0.8974 -0.3916 -0.1578
  150SAPE  H20T16609   5.342   0.182   8.696  0.6484  0.9350 -0.0185
  150SAPE   C3316610   5.616   0.224   7.294  0.0198  0.1556 -0.6634
  150SAPE   H3X16611   5.598   0.330   7.325  0.7457 -0.0592  0.5776
  150SAPE   H3Y16612   5.720   0.199   7.265  0.2338 -1.1475  1.0826
  150SAPE   C3416613   5.592   0.132   7.412  0.1107  0.4848 -0.1221
  150SAPE   H4X16614   5.604   0.024   7.390 -0.6210  0.5739 -1.0271
  150SAPE   H4Y16615   5.490   0.142   7.455  0.8799 -2.7153  2.9599
  150SAPE   C3516616   5.690   0.155   7.536  0.8672  0.1985  0.1525
  150SAPE   H5X16617   5.676   0.263   7.558 -1.1586  0.4273 -1.8262
  150SAPE   H5Y16618   5.794   0.133   7.503 -0.0285 -2.0768 -1.4007
  150SAPE   C3616619   5.643   0.067   7.649  0.4350 -0.4873  0.4256
  150SAPE   H6X16620   5.625  -0.037   7.614  2.2995 -0.5405 -0.5377
  150SAPE   H6Y16621   5.549   0.110   7.690 -0.5888  0.1069 -2.3657
  150SAPE   C3716622   5.754   0.049   7.756  0.1075  0.7468 -0.8485
  150SAPE   H7X16623   5.795   0.150   7.778 -0.8596  0.9323  0.2301
  150SAPE   H7Y16624   5.837  -0.022   7.737 -1.3754 -2.0445  2.1879
  150SAPE   C3816625   5.691  -0.008   7.885 -0.3091  0.6074 -0.2405
  150SAPE   H8X16626   5.661  -0.115   7.877  0.2647  0.3727  0.5801
  150SAPE   H8Y16627   5.595   0.042   7.910  0.1337  0.0804  2.9864
  150SAPE   C3916628   5.772   0.016   8.007  1.0863 -0.6545  0.9113
  150SAPE   H9X16629   5.790   0.126   8.012 -2.9942  0.3225 -1.2784
  150SAPE   H9Y16630   5.867  -0.041   8.004  1.8883  0.6706 -0.5574
  150SAPE  C31016631   5.692  -0.031   8.129  0.4897  0.0289  0.4195
  150SAPE  H10X16632   5.676  -0.139   8.110 -4.0889  0.4733  0.7229
  150SAPE  H10Y16633   5.590   0.013   8.136 -0.4498 -1.9453 -0.3232
  150SAPE  C31116634   5.775  -0.028   8.263 -0.1338  0.3309  0.4624
  150SAPE  H11X16635   5.795   0.078   8.291  0.9155  0.5402 -0.9726
  150SAPE  H11Y16636   5.872  -0.078   8.244  0.5139  1.3537  0.9628
  150SAPE  C31216637   5.714  -0.098   8.385 -0.8611  0.3270 -0.0564
  150SAPE  H12X16638   5.608  -0.067   8.396 -1.0276  0.1839 -1.1363
  150SAPE  H12Y16639   5.762  -0.068   8.481  0.8577 -1.9759 -0.1175
  150SAPE  C31316640   5.706  -0.252   8.370  0.0177 -0.1428  0.4926
  150SAPE  H13X16641   5.807  -0.296   8.357 -0.1424  0.2036 -2.6029
  150SAPE  H13Y16642   5.651  -0.286   8.279 -2.3711  2.9416  0.6292
  150SAPE  C31416643   5.656  -0.328   8.495  0.2303  0.1086 -0.0898
  150SAPE  H14X16644   5.716  -0.300   8.584  0.8538 -2.6656  0.4645
  150SAPE  H14Y16645   5.669  -0.438   8.487 -2.7641 -0.3216 -0.2153
  150SAPE  C31516646   5.500  -0.312   8.530 -0.5154 -0.2628  0.0016
  150SAPE  H15X16647   5.466  -0.209   8.505 -0.0000 -0.1167 -0.1117
  150SAPE  H15Y16648   5.476  -0.329   8.637 -1.3871 -0.5202 -0.2244
  150SAPE  C31616649   5.413  -0.393   8.438  0.8398  0.2913  0.0825
  150SAPE  H16X16650   5.442  -0.500   8.442 -2.0293 -0.7244 -2.5038
  150SAPE  H16Y16651   5.427  -0.364   8.332  0.2543 -1.1722 -0.4137
  150SAPE  C31716652   5.265  -0.396   8.462  0.6677  0.2336 -0.4021
  150SAPE  H17X16653   5.211  -0.463   8.392  2.1334 -0.8591 -0.5412
  150SAPE  H17Y16654   5.210  -0.300   8.463 -0.1025 -0.1993 -0.0646
  150SAPE  C31816655   5.246  -0.466   8.600 -0.1587  0.1546 -0.3320
  150SAPE  H18X16656   5.306  -0.559   8.604 -0.5044 -0.1099 -1.0617
  150SAPE  H18Y16657   5.141  -0.498   8.616  0.1259  0.3890  2.3856
  150SAPE  H18Z16658   5.269  -0.392   8.679  0.8242 -0.6702  0.1813
  151SAPE     N16659   0.889   3.648   6.486  0.2745 -0.2643  0.6614
  151SAPE   HN116660   0.971   3.712   6.486  1.0704 -1.2431 -0.3932
  151SAPE   HN216661   0.871   3.615   6.583 -0.2655  0.8618  0.9628
  151SAPE   HN316662   0.898   3.567   6.422 -3.1701  0.7776 -1.3557
  151SAPE   C1216663   0.771   3.733   6.446  0.3585 -0.3970 -0.3503
  151SAPE  H12A16664   0.796   3.777   6.347 -3.5596 -0.9284 -1.7615
  151SAPE  H12B16665   0.749   3.798   6.533  1.7206 -0.5171  0.1062
  151SAPE   C1116666   0.645   3.640   6.416 -0.3510 -0.3459  0.9628
  151SAPE  H11A16667   0.654   3.575   6.326 -2.7899  0.7772 -0.1932
  151SAPE  H11B16668   0.553   3.701   6.404  0.2044  0.7598  2.0771
  151SAPE     P16669   0.572   3.414   6.534 -0.1868  0.1842  0.0368
  151SAPE   O1316670   0.506   3.384   6.404  0.8749  0.4964  0.5481
  151SAPE   O1416671   0.677   3.325   6.579  0.4571  0.1585  0.0831
  151SAPE   O1216672   0.623   3.567   6.534 -0.5213 -0.2171  0.0862
  151SAPE   O1116673   0.450   3.423   6.640  0.1946 -0.1775 -0.3003
  151SAPE    C116674   0.369   3.544   6.639  0.0275  0.0220  0.2091
  151SAPE    HA16675   0.361   3.579   6.534 -1.5555 -0.3834  0.1750
  151SAPE    HB16676   0.267   3.507   6.662 -0.3983 -0.3263 -1.9610
  151SAPE    C216677   0.413   3.651   6.739  0.7540  0.2520  0.5607
  151SAPE    HS16678   0.518   3.687   6.730 -0.3853  4.5991  1.9514
  151SAPE   O2116679   0.376   3.597   6.868  0.0418  0.2643  0.3312
  151SAPE   C2116680   0.476   3.568   6.948 -0.9517 -0.7608 -0.3511
  151SAPE   O2216681   0.595   3.596   6.931  0.1731  0.8180  0.1968
  151SAPE   C2216682   0.418   3.520   7.081  0.6263 -0.3511 -0.3843
  151SAPE   H2R16683   0.343   3.443   7.053  0.7130 -0.3873 -0.5198
  151SAPE   H2S16684   0.504   3.480   7.139 -0.6228 -2.5518  0.0518
  151SAPE    C316685   0.334   3.787   6.727 -0.3314 -0.3481 -0.1850
  151SAPE    HX16686   0.232   3.750   6.752  0.3015 -0.8112  1.9066
  151SAPE    HY16687   0.341   3.823   6.622  0.5020  1.8124  0.5500
  151SAPE   O3116688   0.369   3.888   6.819  0.0632  0.1552  0.1442
  151SAPE   C3116689   0.484   3.950   6.801  0.2325  0.2649 -0.2917
  151SAPE   O3216690   0.559   3.922   6.707  0.3808 -0.2158 -0.5127
  151SAPE   C3216691   0.513   4.043   6.911  0.1306 -0.3503 -0.3378
  151SAPE   H2X16692   0.451   4.134   6.897 -0.6119 -0.6098  1.1196
  151SAPE   H2Y16693   0.619   4.076   6.896  0.2790 -0.7135 -0.0958
  151SAPE   C2316694   0.352   3.641   7.159  0.3617 -0.3017 -0.2169
  151SAPE   H3R16695   0.266   3.687   7.106  1.1606  1.8821  0.2714
  151SAPE   H3S16696   0.426   3.720   7.183 -0.2690 -0.7432  3.8957
  151SAPE   C2416697   0.309   3.567   7.301  0.0151 -0.6668  0.7824
  151SAPE   H4R16698   0.401   3.536   7.354 -0.3403  0.7030  2.2749
  151SAPE   H4S16699   0.251   3.482   7.258 -1.1392  0.7025 -0.4903
  151SAPE   C2516700   0.222   3.649   7.390  0.1257  0.3899 -0.1124
  151SAPE   H5R16701   0.131   3.683   7.337 -0.6793 -0.1194  0.8921
  151SAPE   C2616702   0.248   3.687   7.515 -0.4157  0.3034  0.0466
  151SAPE   H6R16703   0.167   3.737   7.570 -0.1376 -2.1006  2.8943
  151SAPE   C2716704   0.366   3.659   7.600 -0.3969  0.7672  0.0781
  151SAPE   H7R16705   0.368   3.745   7.671 -2.1860  0.8347  0.0830
  151SAPE   H7S16706   0.462   3.661   7.545 -1.2143  0.1421 -1.4045
  151SAPE   C2816707   0.363   3.521   7.663  0.2400 -0.5378  0.9588
  151SAPE   H8R16708   0.424   3.442   7.616  0.1069  0.0028 -0.1738
  151SAPE   C2916709   0.293   3.494   7.774 -0.3781  0.0323 -0.3090
  151SAPE   H9R16710   0.295   3.392   7.814  1.2294  0.6556  1.3203
  151SAPE  C21016711   0.217   3.582   7.865  0.0007 -0.1862  0.6301
  151SAPE  H10R16712   0.263   3.683   7.872 -0.0432 -0.1842  0.8869
  151SAPE  H10S16713   0.230   3.532   7.963  0.3444 -1.8661 -0.2190
  151SAPE  C21116714   0.072   3.569   7.822 -0.0426 -0.5752  0.2175
  151SAPE  H11R16715   0.058   3.582   7.714  1.6314  3.0147  0.2676
  151SAPE  C21216716  -0.033   3.601   7.900  0.7666  0.3243  0.6843
  151SAPE  H12R16717  -0.129   3.565   7.861  1.7977 -2.4485  0.4822
  151SAPE  C21316718  -0.026   3.640   8.039  0.0626 -0.5585  0.2495
  151SAPE  H13R16719   0.052   3.718   8.052  0.2195 -0.7632  0.5464
  151SAPE  H13S16720   0.003   3.548   8.093 -2.5277 -1.6127  0.0087
  151SAPE  C21416721  -0.152   3.688   8.108 -0.3103  0.1992 -1.3711
  151SAPE  H14R16722  -0.247   3.677   8.053 -2.4586 -0.4378  2.1920
  151SAPE  C21516723  -0.151   3.730   8.243  0.1936  0.6305  0.3721
  151SAPE  H15R16724  -0.244   3.747   8.300  1.0598  2.6236  1.2867
  151SAPE  C21616725  -0.036   3.736   8.337 -0.0467  0.6939  0.4896
  151SAPE  H16R16726  -0.025   3.839   8.377  1.1040  0.4808  0.7278
  151SAPE  H16S16727   0.065   3.733   8.291 -0.7176  1.2789 -1.0779
  151SAPE  C21716728  -0.026   3.638   8.452 -0.7852  0.4596  0.4111
  151SAPE  H17R16729  -0.013   3.534   8.413 -0.1852  0.2007  1.2473
  151SAPE  H17S16730  -0.114   3.639   8.519 -1.4152  0.1481 -0.3951
  151SAPE  C21816731   0.106   3.668   8.521  0.5323 -0.1884  0.5820
  151SAPE  H18R16732   0.092   3.764   8.576 -2.1424  1.0149 -1.9270
  151SAPE  H18S16733   0.189   3.679   8.447  1.4277  1.6526  1.7655
  151SAPE  C21916734   0.134   3.564   8.627  0.8595  0.5584 -0.0917
  151SAPE  H19R16735   0.147   3.466   8.577 -1.0098 -0.4656  1.3404
  151SAPE  H19S16736   0.050   3.552   8.698  0.9760  1.2431  0.1688
  151SAPE  C22016737   0.269   3.589   8.701  0.0666  0.1118  0.2297
  151SAPE  H20R16738   0.352   3.610   8.630 -0.1238 -0.6575 -0.2243
  151SAPE  H20S16739   0.260   3.676   8.770 -3.4926 -0.0399  0.1148
  151SAPE  H20T16740   0.300   3.496   8.753 -0.0712  1.1484  2.2720
  151SAPE   C3316741   0.494   3.982   7.053  0.0496 -0.1675  0.2145
  151SAPE   H3X16742   0.524   3.877   7.075  1.2094  0.2239  0.5792
  151SAPE   H3Y16743   0.386   3.987   7.077  0.4672  1.3576  1.9881
  151SAPE   C3416744   0.554   4.075   7.158 -0.4557  0.3976  0.9149
  151SAPE   H4X16745   0.518   4.180   7.150 -0.3696  0.3717  0.1252
  151SAPE   H4Y16746   0.664   4.069   7.142 -0.4154  0.4916  1.1477
  151SAPE   C3516747   0.512   4.023   7.295  0.7646  0.3561 -0.0904
  151SAPE   H5X16748   0.529   3.914   7.306  1.1621  0.2585 -1.4072
  151SAPE   H5Y16749   0.401   4.028   7.291  0.7854  0.6529 -0.5128
  151SAPE   C3616750   0.579   4.097   7.405  0.1476  0.4969  0.3850
  151SAPE   H6X16751   0.575   4.205   7.379 -1.1046  0.6568  1.1540
  151SAPE   H6Y16752   0.682   4.057   7.418 -0.3379 -1.1925 -0.6435
  151SAPE   C3716753   0.506   4.088   7.541  0.2943  0.2621 -0.5587
  151SAPE   H7X16754   0.481   3.988   7.583 -1.1802  1.8524  2.7111
  151SAPE   H7Y16755   0.424   4.157   7.514 -0.1108  0.1443  0.3336
  151SAPE   C3816756   0.562   4.158   7.669 -0.7669 -0.3491 -0.4561
  151SAPE   H8X16757   0.572   4.268   7.657  2.3339 -0.3290  1.1034
  151SAPE   H8Y16758   0.665   4.125   7.695 -0.4853  1.2686  0.6436
  151SAPE   C3916759   0.489   4.112   7.793 -0.4026 -0.7457  0.6318
  151SAPE   H9X16760   0.378   4.105   7.783 -0.6831  2.4139  0.3268
  151SAPE   H9Y16761   0.517   4.194   7.863 -1.7538  0.1627  0.1589
  151SAPE  C31016762   0.545   3.975   7.837  0.2210 -0.7041  0.2833
  151SAPE  H10X16763   0.654   3.994   7.833  0.2382 -0.5859  1.1969
  151SAPE  H10Y16764   0.520   3.892   7.767  0.1041  1.0001 -1.7898
  151SAPE  C31116765   0.513   3.934   7.983  0.3909 -0.2996 -0.0729
  151SAPE  H11X16766   0.414   3.956   8.026  0.4785  0.7139 -0.3725
  151SAPE  H11Y16767   0.585   3.989   8.047  0.8181 -0.4000 -0.4514
  151SAPE  C31216768   0.558   3.789   8.001 -1.0416 -0.7438  0.8044
  151SAPE  H12X16769   0.669   3.790   7.998 -0.9421  3.6584 -0.8823
  151SAPE  H12Y16770   0.530   3.729   7.912 -2.6658  0.1232  0.6847
  151SAPE  C31316771   0.514   3.734   8.136 -0.1995 -0.6208  0.0563
  151SAPE  H13X16772   0.408   3.757   8.162 -0.1046  0.5802 -0.5423
  151SAPE  H13Y16773   0.567   3.789   8.216  0.1564 -1.8087  0.6586
  151SAPE  C31416774   0.543   3.590   8.162 -0.7254  0.4996 -0.3301
  151SAPE  H14X16775   0.650   3.590   8.133 -1.1167  1.7424 -1.8887
  151SAPE  H14Y16776   0.485   3.514   8.104  1.1815 -0.5891 -0.9277
  151SAPE  C31516777   0.522   3.560   8.308 -0.3178  0.3697  0.4839
  151SAPE  H15X16778   0.412   3.553   8.321 -0.2224  0.3597  1.3320
  151SAPE  H15Y16779   0.553   3.641   8.377 -2.1146  0.5415  1.1368
  151SAPE  C31616780   0.592   3.429   8.345 -0.8866  0.4202 -0.7668
  151SAPE  H16X16781   0.702   3.440   8.361 -1.0528  1.2363 -0.0731
  151SAPE  H16Y16782   0.560   3.354   8.269 -3.0274  1.7185 -1.2344
  151SAPE  C31716783   0.543   3.367   8.475  0.3950 -0.3003  0.4059
  151SAPE  H17X16784   0.541   3.459   8.538  0.9283 -0.0782  0.1062
  151SAPE  H17Y16785   0.607   3.294   8.530 -1.8412 -1.5692  1.4590
  151SAPE  C31816786   0.407   3.295   8.470  0.6924 -0.4508  0.6035
  151SAPE  H18X16787   0.320   3.364   8.475 -0.7840 -2.2445  0.9341
  151SAPE  H18Y16788   0.399   3.227   8.558 -0.0085 -0.5104  0.4955
  151SAPE  H18Z16789   0.398   3.219   8.389  0.9249 -1.4613  1.4898
  152SAPE     N16790   3.526   1.680   6.305  0.0387  0.1799  0.1258
  152SAPE   HN116791   3.460   1.699   6.226  0.5105 -1.4963 -0.7221
  152SAPE   HN216792   3.569   1.762   6.351 -1.1555  0.8509  0.0936
  152SAPE   HN316793   3.591   1.610   6.263 -1.1677 -0.8078 -0.1730
  152SAPE   C1216794   3.438   1.611   6.405 -0.7959 -1.2430 -0.2339
  152SAPE  H12A16795   3.356   1.674   6.445  0.1353 -2.0644  3.4065
  152SAPE  H12B16796   3.502   1.604   6.496 -0.8741 -0.6188 -0.1311
  152SAPE   C1116797   3.386   1.476   6.349 -0.2270 -0.9755 -0.1570
  152SAPE  H11A16798   3.312   1.489   6.266 -0.4486 -1.7738 -0.0919
  152SAPE  H11B16799   3.322   1.427   6.425 -1.6772 -0.9808 -1.3247
  152SAPE     P16800   3.479   1.253   6.254  0.3774  0.4478 -0.2641
  152SAPE   O1316801   3.338   1.211   6.273  0.1364 -0.0588 -0.0030
  152SAPE   O1416802   3.537   1.254   6.115  0.1327  0.3931  0.4558
  152SAPE   O1216803   3.500   1.395   6.321 -0.1521  0.1042  0.2393
  152SAPE   O1116804   3.560   1.151   6.343 -0.5733 -0.5109  0.0675
  152SAPE    C116805   3.641   1.180   6.460  0.0840 -0.6059  0.6938
  152SAPE    HA16806   3.722   1.105   6.474  0.3714 -0.7224 -1.2163
  152SAPE    HB16807   3.686   1.281   6.448 -1.0569  0.0220  1.5758
  152SAPE    C216808   3.549   1.179   6.583  0.3599 -0.1865  0.0272
  152SAPE    HS16809   3.459   1.237   6.553  0.2752 -0.3850 -0.1074
  152SAPE   O2116810   3.621   1.253   6.686  0.0560 -0.0522  0.5259
  152SAPE   C2116811   3.562   1.361   6.734 -0.7056 -0.3218 -0.4878
  152SAPE   O2216812   3.452   1.405   6.710 -0.4856 -0.3092  0.2611
  152SAPE   C2216813   3.657   1.413   6.848  0.3410  0.5881  0.5903
  152SAPE   H2R16814   3.723   1.336   6.893 -0.2457  0.0824  0.5909
  152SAPE   H2S16815   3.740   1.475   6.808  0.1289 -0.1359 -1.0587
  152SAPE    C316816   3.509   1.038   6.629  0.3097  0.0465  0.1770
  152SAPE    HX16817   3.599   0.974   6.622  0.1623 -0.0067 -1.8571
  152SAPE    HY16818   3.445   1.007   6.544  1.2890  1.2359 -1.0322
  152SAPE   O3116819   3.445   1.044   6.756 -0.2258 -0.9242  0.4422
  152SAPE   C3116820   3.522   1.010   6.856 -0.0386  0.4671 -0.1347
  152SAPE   O3216821   3.624   0.944   6.848 -0.4593  0.1651 -0.6394
  152SAPE   C3216822   3.466   1.060   6.980  0.0850 -0.0977  0.2144
  152SAPE   H2X16823   3.418   0.975   7.034 -2.8701 -0.0663 -2.1140
  152SAPE   H2Y16824   3.389   1.135   6.955  1.3677  0.6279 -1.7949
  152SAPE   C2316825   3.575   1.493   6.955  0.5243 -0.4660 -0.0911
  152SAPE   H3R16826   3.487   1.431   6.982  0.8142 -1.0724 -0.5191
  152SAPE   H3S16827   3.532   1.587   6.913  0.7938 -0.9643 -1.5316
  152SAPE   C2416828   3.642   1.534   7.085 -0.5831  0.0894 -0.4329
  152SAPE   H4R16829   3.683   1.450   7.145 -0.4871  0.9463  0.7410
  152SAPE   H4S16830   3.570   1.586   7.152  2.7723  2.6603  1.5178
  152SAPE   C2516831   3.748   1.637   7.053  0.3142 -0.9663  0.8712
  152SAPE   H5R16832   3.804   1.630   6.959  0.3981  2.0572  0.6215
  152SAPE   C2616833   3.766   1.757   7.109 -0.6387 -0.6420  1.1059
  152SAPE   H6R16834   3.851   1.817   7.072 -0.9502 -0.9090 -0.0760
  152SAPE   C2716835   3.698   1.807   7.231 -0.5940 -0.2418  0.1511
  152SAPE   H7R16836   3.777   1.799   7.309 -0.2961  0.2974 -0.0928
  152SAPE   H7S16837   3.625   1.739   7.280  0.0668  0.9667  3.0022
  152SAPE   C2816838   3.651   1.945   7.225 -0.6423 -1.0522  0.4963
  152SAPE   H8R16839   3.671   2.001   7.133 -1.8455  1.1728  1.5158
  152SAPE   C2916840   3.593   2.019   7.317 -0.1636  0.0097  0.3331
  152SAPE   H9R16841   3.588   2.127   7.298  1.4300  0.0685  0.1143
  152SAPE  C21016842   3.555   1.989   7.458  0.1337 -0.1629 -0.1624
  152SAPE  H10R16843   3.629   2.039   7.524 -1.7524  1.4856  0.7853
  152SAPE  H10S16844   3.564   1.879   7.475 -1.2234  0.0549  2.3448
  152SAPE  C21116845   3.414   2.027   7.483  0.0740 -0.2394 -0.7784
  152SAPE  H11R16846   3.354   2.061   7.397 -1.9290  2.0256  1.3774
  152SAPE  C21216847   3.366   2.045   7.609 -0.3193 -0.9159  0.0660
  152SAPE  H12R16848   3.267   2.093   7.609 -0.5366 -1.3345 -0.7286
  152SAPE  C21316849   3.428   2.026   7.750 -0.4668  0.4439  0.7778
  152SAPE  H13R16850   3.510   1.951   7.755 -2.1096 -1.5699 -0.9434
  152SAPE  H13S16851   3.352   1.985   7.819 -2.9320  0.1495 -1.8957
  152SAPE  C21416852   3.492   2.156   7.792 -0.3929 -0.5421 -0.2690
  152SAPE  H14R16853   3.588   2.173   7.741 -0.6356  2.4785  0.1104
  152SAPE  C21516854   3.445   2.240   7.888 -0.3116  0.4215 -0.3675
  152SAPE  H15R16855   3.507   2.329   7.909  1.8479 -0.5224 -2.2990
  152SAPE  C21616856   3.319   2.213   7.969  0.4863 -0.0680  0.2555
  152SAPE  H16R16857   3.289   2.106   7.974  0.7247 -0.2595 -1.5399
  152SAPE  H16S16858   3.236   2.252   7.907  1.6462  1.0279 -0.6493
  152SAPE  C21716859   3.286   2.267   8.110 -0.2233  0.7421 -0.0875
  152SAPE  H17R16860   3.192   2.324   8.126 -0.9159 -1.0589  3.2414
  152SAPE  H17S16861   3.362   2.345   8.129 -0.3296  1.1086 -1.1055
  152SAPE  C21816862   3.300   2.156   8.216  0.7567  0.5054 -0.0747
  152SAPE  H18R16863   3.388   2.095   8.188 -0.6022 -1.2355 -0.7615
  152SAPE  H18S16864   3.215   2.085   8.207 -0.3287  1.8911 -1.2400
  152SAPE  C21916865   3.304   2.212   8.357 -0.0809  0.0439  0.1648
  152SAPE  H19R16866   3.393   2.279   8.353 -0.8950  1.2334  1.1102
  152SAPE  H19S16867   3.326   2.127   8.425  1.3543 -0.3840 -0.8000
  152SAPE  C22016868   3.179   2.290   8.401 -0.1741  0.0635 -0.1051
  152SAPE  H20R16869   3.180   2.332   8.504  1.3477 -1.0169  0.3409
  152SAPE  H20S16870   3.090   2.224   8.388 -0.2038  0.3815 -1.7800
  152SAPE  H20T16871   3.155   2.376   8.335  0.1935  0.7415  0.6251
  152SAPE   C3316872   3.573   1.128   7.065 -0.1808  0.0320 -0.4680
  152SAPE   H3X16873   3.613   1.223   7.025 -1.2858  1.1781  1.0360
  152SAPE   H3Y16874   3.657   1.057   7.084  0.8410  0.4040 -3.1640
  152SAPE   C3416875   3.526   1.193   7.206  0.0739 -0.1314 -0.3328
  152SAPE   H4X16876   3.458   1.275   7.174 -0.0691  0.2739  0.9617
  152SAPE   H4Y16877   3.610   1.239   7.262  0.8026  1.1957 -2.4036
  152SAPE   C3516878   3.452   1.090   7.293 -1.2530 -0.1216 -1.3666
  152SAPE   H5X16879   3.534   1.030   7.340  1.4964  0.7735 -4.6279
  152SAPE   H5Y16880   3.384   1.014   7.248 -0.6521 -0.9703 -0.8939
  152SAPE   C3616881   3.362   1.157   7.399 -1.0554 -0.1312 -0.3561
  152SAPE   H6X16882   3.322   1.076   7.464  0.0200  1.0993  1.9880
  152SAPE   H6Y16883   3.285   1.193   7.327 -0.5135 -0.9226 -1.3636
  152SAPE   C3716884   3.425   1.254   7.503 -0.7237  0.0279  0.2777
  152SAPE   H7X16885   3.338   1.299   7.555 -2.9002 -0.4592 -2.7232
  152SAPE   H7Y16886   3.485   1.334   7.457  0.3589 -0.9119  0.0040
  152SAPE   C3816887   3.508   1.172   7.605 -0.3224 -0.0549 -0.9665
  152SAPE   H8X16888   3.588   1.242   7.638 -1.3028  0.6385  0.0204
  152SAPE   H8Y16889   3.550   1.079   7.560  1.0479  0.5675 -1.0159
  152SAPE   C3916890   3.422   1.116   7.725 -0.6232 -0.4937  0.2619
  152SAPE   H9X16891   3.326   1.065   7.699 -1.0263 -0.5920  1.8535
  152SAPE   H9Y16892   3.382   1.203   7.781  0.5624  1.1955 -1.4021
  152SAPE  C31016893   3.505   1.032   7.822 -0.5878  0.4081  0.8213
  152SAPE  H10X16894   3.566   0.952   7.776  0.0394  0.2581  1.8855
  152SAPE  H10Y16895   3.439   0.969   7.886 -0.9724 -0.4473 -0.3942
  152SAPE  C31116896   3.591   1.124   7.914 -0.7360  0.2335  0.0488
  152SAPE  H11X16897   3.648   1.203   7.861  1.0637 -1.0778 -0.0501
  152SAPE  H11Y16898   3.665   1.061   7.966 -2.2912 -1.2554  0.5458
  152SAPE  C31216899   3.516   1.195   8.022 -0.0621 -0.0545 -0.3414
  152SAPE  H12X16900   3.449   1.127   8.079 -0.8674  1.0066  0.0134
  152SAPE  H12Y16901   3.445   1.270   7.981 -3.0363 -2.9475 -0.9387
  152SAPE  C31316902   3.604   1.271   8.124 -0.1878 -0.1966 -0.7010
  152SAPE  H13X16903   3.649   1.356   8.067 -3.2701  3.0650  1.2979
  152SAPE  H13Y16904   3.682   1.200   8.159 -1.6477 -2.5443 -2.0361
  152SAPE  C31416905   3.521   1.319   8.239 -0.1416 -0.0689 -0.2991
  152SAPE  H14X16906   3.427   1.369   8.208 -1.2149 -2.2248 -0.7605
  152SAPE  H14Y16907   3.577   1.390   8.304 -1.1022  1.4428 -1.0656
  152SAPE  C31516908   3.476   1.205   8.334 -0.4535 -0.7006  0.2586
  152SAPE  H15X16909   3.563   1.176   8.396 -0.7766 -1.4814  0.3688
  152SAPE  H15Y16910   3.441   1.120   8.271 -1.3946  0.1832 -0.4532
  152SAPE  C31616911   3.350   1.241   8.421  0.6864  0.2802 -0.0861
  152SAPE  H16X16912   3.301   1.149   8.461 -1.3790  1.0462 -0.7111
  152SAPE  H16Y16913   3.273   1.291   8.359  0.7464  1.1771  0.5314
  152SAPE  C31716914   3.400   1.330   8.537 -0.4444 -0.5876  0.4387
  152SAPE  H17X16915   3.409   1.433   8.498 -0.5522  0.3951  2.8346
  152SAPE  H17Y16916   3.505   1.303   8.563 -0.0464  1.1531  0.7183
  152SAPE  C31816917   3.314   1.336   8.661  0.5169  0.2795 -0.2772
  152SAPE  H18X16918   3.328   1.247   8.727 -2.3990 -0.8854 -1.0484
  152SAPE  H18Y16919   3.208   1.324   8.630  0.5658  0.5055 -0.5325
  152SAPE  H18Z16920   3.326   1.425   8.726  1.6771 -0.8113  1.0824
  153SAPE     N16921   0.964   1.325   6.037 -0.8073 -0.0198 -0.1890
  153SAPE   HN116922   0.973   1.274   5.947 -0.1455  0.2449 -0.2810
  153SAPE   HN216923   0.886   1.288   6.095  0.4699 -0.4240  1.3404
  153SAPE   HN316924   0.963   1.429   6.026 -2.5702 -0.0956 -1.1468
  153SAPE   C1216925   1.073   1.275   6.127  0.6822 -0.2241 -0.3335
  153SAPE  H12A16926   1.168   1.327   6.104  1.5949 -0.1082  3.0855
  153SAPE  H12B16927   1.083   1.165   6.116  2.0874 -0.8563  4.5894
  153SAPE   C1116928   1.041   1.306   6.277  0.2348  0.0626 -0.3262
  153SAPE  H11A16929   1.059   1.416   6.267  0.9946 -0.1206 -1.2354
  153SAPE  H11B16930   1.117   1.273   6.351  2.6510  1.3914 -2.0318
  153SAPE     P16931   0.827   1.151   6.310 -0.0694  0.5097 -0.1382
  153SAPE   O1316932   0.691   1.171   6.340  0.2172  0.0288 -0.3760
  153SAPE   O1416933   0.850   1.082   6.180 -0.4355 -0.6569 -0.0526
  153SAPE   O1216934   0.902   1.287   6.309 -0.0879  0.4721 -0.1718
  153SAPE   O1116935   0.893   1.080   6.435  0.0059 -0.1884 -0.1157
  153SAPE    C116936   0.857   0.947   6.461  0.1418  0.5403 -0.5907
  153SAPE    HA16937   0.838   0.884   6.372  1.2433 -0.9343  0.1822
  153SAPE    HB16938   0.952   0.894   6.486 -1.2629 -1.9277 -0.2330
  153SAPE    C216939   0.758   0.932   6.580 -0.4725 -0.2829  0.7026
  153SAPE    HS16940   0.673   0.998   6.550  0.7490  1.0845  0.1299
  153SAPE   O2116941   0.828   0.969   6.702 -0.2100  0.3304  0.5927
  153SAPE   C2116942   0.755   1.040   6.783 -0.3670  0.2322  0.6384
  153SAPE   O2216943   0.649   1.096   6.751  0.0991  0.2563 -0.6199
  153SAPE   C2216944   0.833   1.061   6.917  0.2829  0.1209  0.7698
  153SAPE   H2R16945   0.926   1.002   6.907  1.4305  1.9629 -0.0074
  153SAPE   H2S16946   0.860   1.169   6.922  2.4802 -0.1337 -2.7803
  153SAPE    C316947   0.715   0.782   6.584 -0.2318 -0.1744 -0.6173
  153SAPE    HX16948   0.809   0.726   6.598 -0.7110 -0.8922 -0.1777
  153SAPE    HY16949   0.675   0.757   6.483  0.0472  1.3837 -1.1504
  153SAPE   O3116950   0.622   0.756   6.687  1.0629 -0.3304 -0.2209
  153SAPE   C3116951   0.586   0.628   6.680 -0.4976  0.3487 -0.1073
  153SAPE   O3216952   0.633   0.552   6.594 -0.2947  0.1863 -0.1835
  153SAPE   C3216953   0.487   0.587   6.788 -0.4227 -0.2372  0.5804
  153SAPE   H2X16954   0.486   0.476   6.785  2.5346 -0.3316 -0.6170
  153SAPE   H2Y16955   0.384   0.628   6.777 -0.4357  0.0439  1.6444
  153SAPE   C2316956   0.742   1.031   7.044  0.3269  0.3830  0.3223
  153SAPE   H3R16957   0.704   0.927   7.044 -0.2769  0.5987  0.1268
  153SAPE   H3S16958   0.658   1.103   7.043 -0.8460 -0.9402  0.4728
  153SAPE   C2416959   0.820   1.046   7.172 -1.1863 -0.9121  0.2991
  153SAPE   H4R16960   0.862   1.149   7.177  0.5981 -1.5129 -1.1660
  153SAPE   H4S16961   0.910   0.980   7.169  1.5553  2.5184  0.5823
  153SAPE   C2516962   0.753   1.027   7.303 -0.1296  0.0124 -0.9920
  153SAPE   H5R16963   0.669   0.956   7.303  0.1180 -0.3063  0.6819
  153SAPE   C2616964   0.774   1.063   7.437 -0.1126  0.3085 -0.0889
  153SAPE   H6R16965   0.708   1.020   7.513 -0.0487 -0.0018 -0.2095
  153SAPE   C2716966   0.892   1.143   7.493  0.5269  0.5175  0.2531
  153SAPE   H7R16967   0.899   1.245   7.449 -1.4978  2.0830  3.2135
  153SAPE   H7S16968   0.991   1.094   7.486 -0.0566 -0.4371 -2.9162
  153SAPE   C2816969   0.874   1.187   7.631  0.4540  0.0630 -0.4342
  153SAPE   H8R16970   0.791   1.255   7.656  0.8193 -0.2780  2.0236
  153SAPE   C2916971   0.947   1.163   7.738 -0.2158  1.0768 -0.5045
  153SAPE   H9R16972   0.909   1.210   7.830  0.8339 -0.4750  0.7923
  153SAPE  C21016973   1.072   1.076   7.757  0.1905  0.6057 -0.2503
  153SAPE  H10R16974   1.164   1.137   7.771  1.4709 -1.1244 -0.6667
  153SAPE  H10S16975   1.101   1.018   7.667 -0.4233 -3.1478  1.7618
  153SAPE  C21116976   1.039   0.995   7.889 -0.1501 -0.2437  0.1944
  153SAPE  H11R16977   0.940   0.949   7.902 -1.4777  2.2377 -0.5095
  153SAPE  C21216978   1.125   0.974   7.986 -0.1554  0.0920 -0.5615
  153SAPE  H12R16979   1.089   0.926   8.078  1.6600 -0.1737  0.0335
  153SAPE  C21316980   1.267   1.035   8.002 -0.2043 -0.2119 -0.6391
  153SAPE  H13R16981   1.264   1.146   8.002 -1.2567 -0.2314 -0.4232
  153SAPE  H13S16982   1.333   1.009   7.916  1.2231 -0.0660  0.3803
  153SAPE  C21416983   1.346   0.985   8.123 -0.2005  0.4400 -1.3409
  153SAPE  H14R16984   1.308   1.007   8.224  0.1504 -1.3240 -0.7784
  153SAPE  C21516985   1.457   0.914   8.130 -0.0595 -0.3254  0.4751
  153SAPE  H15R16986   1.491   0.881   8.229  0.3609 -0.5014  0.2711
  153SAPE  C21616987   1.535   0.870   8.012  0.0423  0.1134  0.4625
  153SAPE  H16R16988   1.600   0.955   7.980 -1.0909  0.4483 -1.1075
  153SAPE  H16S16989   1.467   0.836   7.931  2.1974 -0.2385 -1.2849
  153SAPE  C21716990   1.628   0.758   8.057  0.6899  0.9081 -0.1299
  153SAPE  H17R16991   1.704   0.779   8.136 -0.1767 -1.3867  1.4317
  153SAPE  H17S16992   1.696   0.741   7.970  0.2779  1.9203 -0.6662
  153SAPE  C21816993   1.553   0.640   8.114  0.0279  1.0034  0.0508
  153SAPE  H18R16994   1.461   0.627   8.052  0.6248  1.2222 -0.9078
  153SAPE  H18S16995   1.515   0.669   8.214 -2.8857 -0.8484 -0.3889
  153SAPE  C21916996   1.638   0.515   8.143  0.3173  0.4652  0.4371
  153SAPE  H19R16997   1.736   0.538   8.189  1.5187  2.2642 -2.7284
  153SAPE  H19S16998   1.663   0.481   8.040 -0.0603  0.9347  0.1835
  153SAPE  C22016999   1.582   0.397   8.222 -0.6987 -0.2083 -0.5198
  153SAPE  H20R17000   1.473   0.380   8.233 -0.1537 -2.8489  1.8259
  153SAPE  H20S17001   1.609   0.402   8.330  1.3394  0.7229 -1.0107
  153SAPE  H20T17002   1.628   0.310   8.171 -0.1400  1.7749 -3.6820
  153SAPE   C3317003   0.517   0.656   6.932  0.5422 -0.2940  0.4613
  153SAPE   H3X17004   0.429   0.635   6.996  0.1317 -0.4361 -0.1365
  153SAPE   H3Y17005   0.504   0.766   6.926 -0.8523 -0.2833  2.5695
  153SAPE   C3417006   0.633   0.601   7.014  0.3007 -0.6104  0.0392
  153SAPE   H4X17007   0.643   0.664   7.105 -0.7662 -0.1342 -0.1614
  153SAPE   H4Y17008   0.728   0.605   6.956  0.6548  2.5823  0.6055
  153SAPE   C3517009   0.609   0.459   7.063  0.1195 -0.4588  0.1511
  153SAPE   H5X17010   0.602   0.383   6.982  3.6890 -0.9216  0.1317
  153SAPE   H5Y17011   0.512   0.458   7.117 -1.0856  0.3380 -1.8894
  153SAPE   C3617012   0.718   0.419   7.163 -0.4663 -0.8523  0.5569
  153SAPE   H6X17013   0.717   0.490   7.248  0.2285  0.7553 -0.7415
  153SAPE   H6Y17014   0.820   0.427   7.120 -0.1728 -0.6288  1.2731
  153SAPE   C3717015   0.706   0.285   7.235 -0.5498 -0.1019  0.0862
  153SAPE   H7X17016   0.804   0.242   7.264 -0.4370  0.4052  0.4735
  153SAPE   H7Y17017   0.657   0.212   7.166 -0.2939  0.1001 -0.3084
  153SAPE   C3817018   0.611   0.287   7.353  0.1785 -0.0952  0.0868
  153SAPE   H8X17019   0.508   0.312   7.320  0.8439  2.1731 -0.4118
  153SAPE   H8Y17020   0.639   0.368   7.424  0.5359  0.8983 -1.1573
  153SAPE   C3917021   0.604   0.148   7.411 -0.0097  0.1753  0.1778
  153SAPE   H9X17022   0.700   0.094   7.398 -0.4207 -0.2678 -1.2566
  153SAPE   H9Y17023   0.524   0.084   7.368 -0.5286  1.9695 -1.7642
  153SAPE  C31017024   0.582   0.153   7.564 -0.0749  0.2214  0.7796
  153SAPE  H10X17025   0.522   0.243   7.591 -0.3135  0.6410 -1.0020
  153SAPE  H10Y17026   0.684   0.174   7.600 -0.0088  0.4269  0.4729
  153SAPE  C31117027   0.524   0.013   7.611 -0.1685 -0.0454 -0.2970
  153SAPE  H11X17028   0.596  -0.067   7.584 -0.3448 -0.7234  1.1302
  153SAPE  H11Y17029   0.440  -0.015   7.545  0.5006 -0.0724 -1.1614
  153SAPE  C31217030   0.470   0.007   7.751 -1.1132 -0.5315 -0.8429
  153SAPE  H12X17031   0.387   0.081   7.761 -0.3822 -0.0017  2.2797
  153SAPE  H12Y17032   0.557   0.035   7.815 -2.1773 -0.7608  0.7620
  153SAPE  C31317033   0.409  -0.133   7.785  0.5862 -0.3269  0.0293
  153SAPE  H13X17034   0.492  -0.206   7.796  0.0846 -1.7132 -3.9283
  153SAPE  H13Y17035   0.334  -0.169   7.712 -2.7050  0.5124  2.7752
  153SAPE  C31417036   0.344  -0.125   7.917  0.2739  0.5280  0.1318
  153SAPE  H14X17037   0.259  -0.054   7.918 -0.1781 -0.0006  1.7542
  153SAPE  H14Y17038   0.416  -0.107   7.999  1.1227 -0.0615 -0.4646
  153SAPE  C31517039   0.266  -0.250   7.959  0.0478 -0.5259  0.8364
  153SAPE  H15X17040   0.342  -0.331   7.968  1.6667  1.0625  2.4432
  153SAPE  H15Y17041   0.196  -0.288   7.881 -0.3655  0.7643  0.5547
  153SAPE  C31617042   0.178  -0.231   8.085 -0.0139 -0.7863  0.2446
  153SAPE  H16X17043   0.150  -0.334   8.117 -0.4133 -1.1098 -1.0735
  153SAPE  H16Y17044   0.082  -0.180   8.062 -0.9247 -2.3802  0.3902
  153SAPE  C31717045   0.233  -0.157   8.214  0.6821  0.7304 -0.3980
  153SAPE  H17X17046   0.212  -0.049   8.201 -1.7288  0.1729 -1.7299
  153SAPE  H17Y17047   0.341  -0.182   8.212  1.0476  2.2230 -1.3512
  153SAPE  C31817048   0.168  -0.223   8.338 -0.6716  0.5122 -0.6423
  153SAPE  H18X17049   0.178  -0.333   8.329 -0.7348  0.4896 -0.4434
  153SAPE  H18Y17050   0.059  -0.205   8.350 -0.8262  0.6159 -2.0086
  153SAPE  H18Z17051   0.223  -0.194   8.430 -3.6236 -0.2403  1.4902
  154SAPE     N17052   5.948   0.893   6.139  0.4230  0.2304  0.2783
  154SAPE   HN117053   5.921   0.965   6.209  1.1793  2.4839 -1.6104
  154SAPE   HN217054   5.978   0.810   6.195 -0.4729  0.1688  0.6730
  154SAPE   HN317055   6.026   0.924   6.077  0.3180 -0.4413 -0.2015
  154SAPE   C1217056   5.836   0.826   6.058 -0.6592  0.6027  0.0720
  154SAPE  H12A17057   5.880   0.743   5.999  0.7427  0.0422  1.8326
  154SAPE  H12B17058   5.786   0.904   5.997 -3.9606 -0.3277  1.4041
  154SAPE   C1117059   5.732   0.759   6.144  0.8229  0.5116 -0.4094
  154SAPE  H11A17060   5.658   0.712   6.077  0.2564 -1.2415  1.3467
  154SAPE  H11B17061   5.674   0.827   6.212 -3.1016 -1.9201 -1.0069
  154SAPE     P17062   5.731   0.523   6.255 -0.1602 -0.3685 -0.3369
  154SAPE   O1317063   5.620   0.489   6.164 -0.1448  0.0127 -0.1347
  154SAPE   O1417064   5.841   0.423   6.269  0.3481  0.2084  0.5192
  154SAPE   O1217065   5.796   0.657   6.222 -0.0074  0.0566  0.4751
  154SAPE   O1117066   5.673   0.548   6.400 -0.0912  0.3243  0.4391
  154SAPE    C117067   5.632   0.678   6.436 -0.2749 -0.4577  0.5437
  154SAPE    HA17068   5.714   0.748   6.459 -1.9731  2.6348 -2.0298
  154SAPE    HB17069   5.560   0.720   6.363  0.0039  0.1256  0.6052
  154SAPE    C217070   5.527   0.676   6.560  0.0018  0.2502  0.1742
  154SAPE    HS17071   5.491   0.780   6.576 -1.9801 -0.3876  0.1271
  154SAPE   O2117072   5.594   0.609   6.669 -0.3019 -0.4064  0.3654
  154SAPE   C2117073   5.665   0.697   6.752 -0.1255  0.3912 -0.5573
  154SAPE   O2217074   5.692   0.809   6.717  0.5904 -0.2549 -0.4161
  154SAPE   C2217075   5.709   0.625   6.879  0.3142 -0.1744  0.8358
  154SAPE   H2R17076   5.619   0.576   6.922  0.2223  0.0126  0.8592
  154SAPE   H2S17077   5.783   0.549   6.847  1.2676  0.9517  0.2575
  154SAPE    C317078   5.398   0.602   6.522  0.7011 -0.0508  0.5202
  154SAPE    HX17079   5.423   0.507   6.470 -0.2386 -0.4089  0.7076
  154SAPE    HY17080   5.346   0.659   6.441  0.2846 -0.1479  0.7185
  154SAPE   O3117081   5.312   0.568   6.637 -0.5535 -0.3834 -0.0969
  154SAPE   C3117082   5.234   0.665   6.679  0.0204  0.7633 -0.0226
  154SAPE   O3217083   5.252   0.782   6.656  0.5502  0.6035 -0.1857
  154SAPE   C3217084   5.128   0.601   6.772 -0.2775  0.4535 -0.2856
  154SAPE   H2X17085   5.141   0.491   6.760  3.1895  0.8146 -1.0751
  154SAPE   H2Y17086   5.024   0.623   6.740 -0.3635 -0.1056 -0.4104
  154SAPE   C2317087   5.763   0.731   6.971 -0.0577  0.5848 -0.4033
  154SAPE   H3R17088   5.685   0.789   7.026  1.4659  0.7465  1.6843
  154SAPE   H3S17089   5.841   0.791   6.919  1.1191  1.7183  2.4903
  154SAPE   C2417090   5.849   0.666   7.085 -0.3665  0.0591  0.3540
  154SAPE   H4R17091   5.927   0.603   7.039  0.1070 -0.6004  1.9824
  154SAPE   H4S17092   5.776   0.601   7.138  1.0458 -2.2510 -0.3926
  154SAPE   C2517093   5.904   0.769   7.179  0.4932  0.0414 -0.1175
  154SAPE   H5R17094   5.896   0.870   7.136 -2.6176  0.6945  1.6961
  154SAPE   C2617095   5.951   0.748   7.303 -0.5188  0.3545 -0.5902
  154SAPE   H6R17096   5.977   0.837   7.363 -2.7483 -1.6126  3.7531
  154SAPE   C2717097   5.943   0.618   7.390  0.2844 -0.9168  0.5250
  154SAPE   H7R17098   6.024   0.630   7.465 -0.9051  0.8377  1.6088
  154SAPE   H7S17099   5.955   0.527   7.327 -0.5193 -0.2711 -0.5975
  154SAPE   C2817100   5.814   0.616   7.467 -0.5016  0.6610  0.4177
  154SAPE   H8R17101   5.724   0.616   7.403 -0.6122 -0.8382  0.5449
  154SAPE   C2917102   5.789   0.604   7.597 -0.2122 -0.6069 -0.2297
  154SAPE   H9R17103   5.681   0.600   7.618 -1.0040  0.2626 -3.6397
  154SAPE  C21017104   5.896   0.590   7.709  0.8885  0.5589  0.6758
  154SAPE  H10R17105   5.885   0.679   7.775  1.6446  1.1194  0.0538
  154SAPE  H10S17106   5.999   0.606   7.672  0.2979 -0.4897 -1.6132
  154SAPE  C21117107   5.883   0.466   7.793 -0.3753  0.3902  0.1796
  154SAPE  H11R17108   5.834   0.381   7.742 -3.1059  1.3690  0.9838
  154SAPE  C21217109   5.899   0.456   7.925 -0.1216  0.2125  0.0879
  154SAPE  H12R17110   5.883   0.356   7.969 -1.4495 -0.0094 -0.8572
  154SAPE  C21317111   5.960   0.559   8.023  0.6809  0.1834  0.0401
  154SAPE  H13R17112   5.983   0.504   8.117  1.7977  1.7420  0.7385
  154SAPE  H13S17113   5.889   0.638   8.057 -0.6392 -0.8868 -0.1472
  154SAPE  C21417114   6.084   0.640   7.985  0.1999 -0.0251  0.4467
  154SAPE  H14R17115   6.135   0.613   7.892 -0.2147 -1.1424  0.5250
  154SAPE  C21517116   6.136   0.742   8.056  0.2787 -0.1976  0.3891
  154SAPE  H15R17117   6.233   0.777   8.018  0.3946 -1.6215 -0.7401
  154SAPE  C21617118   6.087   0.796   8.192 -0.0731 -0.3072 -0.3954
  154SAPE  H16R17119   5.977   0.781   8.202  0.3306 -1.9107  3.2209
  154SAPE  H16S17120   6.102   0.906   8.199 -2.1932 -0.0733  1.9556
  154SAPE  C21717121   6.167   0.722   8.297  0.0507 -0.0388 -0.8922
  154SAPE  H17R17122   6.275   0.721   8.274 -0.2944 -0.5835 -2.6329
  154SAPE  H17S17123   6.122   0.621   8.303 -0.7709  0.3473 -0.2642
  154SAPE  C21817124   6.146   0.781   8.439  0.4364 -0.4475  0.5509
  154SAPE  H18R17125   6.171   0.711   8.521 -3.1324 -2.5952  0.0279
  154SAPE  H18S17126   6.039   0.808   8.449 -0.3311 -2.3825 -1.5119
  154SAPE  C21917127   6.227   0.906   8.463  0.6456  0.1526 -1.0453
  154SAPE  H19R17128   6.177   0.963   8.544  1.4217 -0.0975 -0.3696
  154SAPE  H19S17129   6.224   0.968   8.371 -0.6293  3.8343  1.2447
  154SAPE  C22017130   6.376   0.877   8.487 -0.3880  0.6162  0.0426
  154SAPE  H20R17131   6.445   0.962   8.506  1.8435 -1.4298  1.7782
  154SAPE  H20S17132   6.402   0.829   8.390 -1.1999 -0.3994  0.3041
  154SAPE  H20T17133   6.383   0.803   8.570 -0.5896  0.4620 -0.0755
  154SAPE   C3317134   5.158   0.646   6.913  0.6826  0.3083  0.0672
  154SAPE   H3X17135   5.079   0.605   6.980  2.2689 -1.8214  0.7334
  154SAPE   H3Y17136   5.151   0.757   6.920  0.3942  0.2898  0.0626
  154SAPE   C3417137   5.282   0.578   6.987 -0.5131  0.2851 -0.7357
  154SAPE   H4X17138   5.362   0.569   6.911  2.1265  0.9468  1.8168
  154SAPE   H4Y17139   5.246   0.476   7.011 -0.7692  1.0980  2.9083
  154SAPE   C3517140   5.319   0.662   7.109  0.3399 -0.5323 -0.5826
  154SAPE   H5X17141   5.237   0.666   7.184  0.5704  0.5017 -0.3806
  154SAPE   H5Y17142   5.331   0.763   7.065 -1.8401 -0.7126 -1.7563
  154SAPE   C3617143   5.449   0.624   7.188  0.2907  0.0443 -0.7304
  154SAPE   H6X17144   5.536   0.643   7.122  1.1126 -1.6581 -0.1807
  154SAPE   H6Y17145   5.438   0.517   7.212 -2.1548  0.3288 -0.2739
  154SAPE   C3717146   5.460   0.713   7.306 -0.6233 -1.0398  0.1293
  154SAPE   H7X17147   5.451   0.822   7.289 -1.3715 -0.4626  3.5302
  154SAPE   H7Y17148   5.564   0.714   7.345 -0.1668 -3.4123 -0.8373
  154SAPE   C3817149   5.379   0.665   7.430 -0.1282 -0.0745  0.0163
  154SAPE   H8X17150   5.381   0.555   7.444 -2.8845 -0.1265  0.5313
  154SAPE   H8Y17151   5.273   0.701   7.431  0.0618  0.7118 -2.3779
  154SAPE   C3917152   5.424   0.728   7.562  0.2702 -0.0728 -0.3640
  154SAPE   H9X17153   5.370   0.823   7.579 -1.4560 -1.0268 -0.2327
  154SAPE   H9Y17154   5.531   0.751   7.551  0.1866  1.4333  1.3961
  154SAPE  C31017155   5.404   0.628   7.679 -0.2331  0.3988 -0.0436
  154SAPE  H10X17156   5.462   0.542   7.639  1.3994  1.4284  0.0257
  154SAPE  H10Y17157   5.298   0.600   7.698  0.6365 -1.1465  3.2868
  154SAPE  C31117158   5.463   0.670   7.809  0.3704  0.6399 -0.1082
  154SAPE  H11X17159   5.407   0.756   7.852 -1.0963  0.8946 -2.3568
  154SAPE  H11Y17160   5.568   0.707   7.802  1.1962 -1.8010 -1.6938
  154SAPE  C31217161   5.473   0.548   7.911 -0.5585 -0.2869  0.1220
  154SAPE  H12X17162   5.529   0.463   7.868  0.0508 -0.6041  1.4908
  154SAPE  H12Y17163   5.366   0.524   7.932 -0.8323  2.2347  2.1937
  154SAPE  C31317164   5.534   0.588   8.046  0.4180  0.1362  0.4294
  154SAPE  H13X17165   5.481   0.673   8.095 -0.1642  0.5993 -0.9463
  154SAPE  H13Y17166   5.640   0.613   8.022  1.6327 -2.9200  2.0670
  154SAPE  C31417167   5.551   0.467   8.138 -0.2898  0.2403  0.0960
  154SAPE  H14X17168   5.605   0.382   8.089  1.3822  0.1676  1.9356
  154SAPE  H14Y17169   5.451   0.437   8.176 -0.5169 -0.0025 -0.6834
  154SAPE  C31517170   5.634   0.506   8.263 -0.1435 -0.9574 -0.4999
  154SAPE  H15X17171   5.572   0.580   8.319  0.0435 -0.6386 -0.7125
  154SAPE  H15Y17172   5.734   0.546   8.238 -1.3731  4.4492  1.7620
  154SAPE  C31617173   5.645   0.394   8.359  0.1292  0.3479  0.2036
  154SAPE  H16X17174   5.682   0.308   8.299 -0.7610 -0.1615  0.3744
  154SAPE  H16Y17175   5.552   0.374   8.415 -0.3728 -1.8755 -1.3180
  154SAPE  C31717176   5.752   0.423   8.472  0.3563 -0.1011 -0.4631
  154SAPE  H17X17177   5.715   0.510   8.530 -3.6960 -2.0228  0.1586
  154SAPE  H17Y17178   5.847   0.452   8.421 -0.9168  0.2313 -2.7854
  154SAPE  C31817179   5.789   0.296   8.560 -0.4992 -0.6994 -0.4607
  154SAPE  H18X17180   5.839   0.340   8.649 -1.7366 -2.8750  1.4270
  154SAPE  H18Y17181   5.859   0.227   8.509 -0.3720 -0.5419 -0.5009
  154SAPE  H18Z17182   5.700   0.235   8.585 -0.9038 -0.1073 -0.4400
  155SAPE     N17183   5.015   1.184   6.436  0.0074  0.4600 -0.6075
  155SAPE   HN117184   5.081   1.105   6.450  2.0478  1.6600 -2.7311
  155SAPE   HN217185   4.929   1.146   6.392 -0.8961  0.4971  1.0504
  155SAPE   HN317186   5.055   1.258   6.374 -0.8359  1.4411 -0.0203
  155SAPE   C1217187   4.978   1.249   6.567 -0.1900 -0.4018 -0.3712
  155SAPE  H12A17188   4.990   1.173   6.647  0.6190  0.8774  0.7743
  155SAPE  H12B17189   4.881   1.302   6.562 -0.2189 -0.3062  0.8936
  155SAPE   C1117190   5.074   1.374   6.598  0.0344  0.0880  0.1378
  155SAPE  H11A17191   5.181   1.342   6.602  0.3152  1.1162  1.4791
  155SAPE  H11B17192   5.051   1.407   6.702  0.9444 -0.7781  0.6302
  155SAPE     P17193   5.152   1.583   6.479  0.0596 -0.5626 -0.0021
  155SAPE   O1317194   5.283   1.522   6.463 -0.1163  0.1542 -0.0392
  155SAPE   O1417195   5.102   1.670   6.370 -0.2878  0.5098  0.2331
  155SAPE   O1217196   5.043   1.470   6.497  0.3458 -0.3544 -0.3931
  155SAPE   O1117197   5.164   1.655   6.613  0.7679  0.4729  0.1606
  155SAPE    C117198   5.074   1.755   6.661 -0.8169 -0.1609 -0.0512
  155SAPE    HA17199   5.143   1.837   6.689 -2.5558  1.3177  0.1188
  155SAPE    HB17200   5.006   1.799   6.584 -0.9295  1.6036  1.0286
  155SAPE    C217201   4.983   1.718   6.783 -0.1745  0.6196  0.3246
  155SAPE    HS17202   4.944   1.809   6.832 -0.1935  0.1924  1.1209
  155SAPE   O2117203   5.052   1.638   6.880  0.1005 -0.6719  0.2516
  155SAPE   C2117204   5.156   1.687   6.937  0.7746  0.1447 -0.2186
  155SAPE   O2217205   5.182   1.803   6.935 -0.4455  0.5323 -0.2527
  155SAPE   C2217206   5.230   1.587   7.030  0.0763  0.9579 -0.0636
  155SAPE   H2R17207   5.182   1.492   7.000  1.2762  0.2457  0.2530
  155SAPE   H2S17208   5.335   1.583   6.997 -0.7741 -1.3153 -2.8964
  155SAPE    C317209   4.863   1.645   6.733  0.3323  0.0752 -0.1700
  155SAPE    HX17210   4.895   1.552   6.681 -0.8359 -1.4303  1.6728
  155SAPE    HY17211   4.809   1.698   6.652 -1.7400 -1.2748  0.2355
  155SAPE   O3117212   4.758   1.615   6.823  0.1065  0.0493  0.2467
  155SAPE   C3117213   4.763   1.513   6.907 -0.3132 -0.4987  0.1304
  155SAPE   O3217214   4.852   1.424   6.897 -0.5362 -0.3409  0.1847
  155SAPE   C3217215   4.646   1.505   7.004  0.0808 -1.1155  0.3155
  155SAPE   H2X17216   4.578   1.592   6.990  0.6876 -0.8063 -0.7947
  155SAPE   H2Y17217   4.699   1.516   7.101  1.2343  1.0569 -0.4697
  155SAPE   C2317218   5.204   1.618   7.183  0.3662 -0.6694  0.1669
  155SAPE   H3R17219   5.114   1.678   7.207 -0.1921 -2.1192  1.9185
  155SAPE   H3S17220   5.289   1.671   7.230  1.3153 -3.4357  1.8284
  155SAPE   C2417221   5.193   1.493   7.266 -0.3412  0.0959  0.0207
  155SAPE   H4R17222   5.192   1.532   7.371  0.2585  0.7979 -0.2234
  155SAPE   H4S17223   5.283   1.429   7.256 -0.5293 -0.3910  1.2292
  155SAPE   C2517224   5.057   1.424   7.242 -0.8965 -0.5135 -0.4892
  155SAPE   H5R17225   5.034   1.391   7.139  0.6134 -0.2490 -0.9401
  155SAPE   C2617226   4.951   1.408   7.322 -1.1804  0.7535 -0.5492
  155SAPE   H6R17227   4.875   1.337   7.287 -1.0444  0.6780 -0.6981
  155SAPE   C2717228   4.941   1.454   7.471  0.5231 -0.1248 -0.0952
  155SAPE   H7R17229   4.832   1.463   7.494  0.5182 -1.8833  0.7479
  155SAPE   H7S17230   4.995   1.549   7.485 -0.5938  0.2163  2.5549
  155SAPE   C2817231   5.016   1.359   7.555 -0.0802  0.1496  0.3977
  155SAPE   H8R17232   5.108   1.325   7.504  1.4202  2.4325  1.4046
  155SAPE   C2917233   4.989   1.309   7.678  0.1168 -0.3085 -0.0178
  155SAPE   H9R17234   5.058   1.239   7.727 -1.2362 -1.6767  0.0180
  155SAPE  C21017235   4.868   1.354   7.755  0.2412 -0.2221  0.4426
  155SAPE  H10R17236   4.826   1.258   7.795 -2.5623  0.3057 -0.9920
  155SAPE  H10S17237   4.782   1.390   7.695 -1.8089  0.2420  3.4518
  155SAPE  C21117238   4.892   1.448   7.869  0.0330 -0.2785 -1.0810
  155SAPE  H11R17239   4.993   1.491   7.875 -0.4860  0.8951 -0.3044
  155SAPE  C21217240   4.815   1.461   7.979 -0.2395 -0.3697  0.5479
  155SAPE  H12R17241   4.833   1.548   8.043  1.8826 -0.9262  0.8161
  155SAPE  C21317242   4.685   1.383   8.003  0.4210  0.3227  0.3203
  155SAPE  H13R17243   4.643   1.377   7.900  2.5038  0.1017 -0.5751
  155SAPE  H13S17244   4.609   1.446   8.053  1.2908  1.0837  0.7076
  155SAPE  C21417245   4.692   1.239   8.059  0.4593 -0.5962  0.2378
  155SAPE  H14R17246   4.787   1.193   8.089 -0.4573 -1.6105  1.7256
  155SAPE  C21517247   4.582   1.159   8.072 -0.7361  0.1402  0.0440
  155SAPE  H15R17248   4.596   1.061   8.119 -2.3918  1.8265  4.6532
  155SAPE  C21617249   4.442   1.192   8.038  0.2932 -0.2375 -0.1732
  155SAPE  H16R17250   4.438   1.301   8.014  0.9249  0.0337  0.8829
  155SAPE  H16S17251   4.378   1.187   8.128  2.0009  0.1866  1.1200
  155SAPE  C21717252   4.388   1.125   7.916 -0.1207 -0.7735  0.0658
  155SAPE  H17R17253   4.389   1.015   7.930 -2.5515 -0.6191  2.2781
  155SAPE  H17S17254   4.464   1.143   7.837 -1.1218  1.2541 -0.5345
  155SAPE  C21817255   4.250   1.179   7.867  0.1855 -0.0346 -0.2242
  155SAPE  H18R17256   4.250   1.138   7.765 -2.5466 -0.3993 -0.1421
  155SAPE  H18S17257   4.252   1.291   7.868  1.5529 -0.0057  1.8219
  155SAPE  C21917258   4.137   1.126   7.950 -0.7359  0.2774 -1.5975
  155SAPE  H19R17259   4.168   1.138   8.056  0.0979 -0.1895 -1.7762
  155SAPE  H19S17260   4.129   1.019   7.920  3.3772  0.0583 -2.5084
  155SAPE  C22017261   4.007   1.202   7.921 -0.7637  0.4245  1.0945
  155SAPE  H20R17262   3.983   1.198   7.813 -1.3320  1.9652  1.1409
  155SAPE  H20S17263   4.015   1.308   7.953 -0.9679  0.9187 -0.4232
  155SAPE  H20T17264   3.928   1.147   7.978 -0.3046 -1.9433 -0.4254
  155SAPE   C3317265   4.550   1.385   6.981 -0.3566  0.1605 -0.1348
  155SAPE   H3X17266   4.602   1.290   7.007  0.6513  0.1835 -1.9521
  155SAPE   H3Y17267   4.519   1.379   6.875 -3.0510 -1.9914  0.6412
  155SAPE   C3417268   4.419   1.387   7.067  0.8701  0.1586 -0.1594
  155SAPE   H4X17269   4.368   1.481   7.038  1.2498  1.2810  2.4916
  155SAPE   H4Y17270   4.440   1.402   7.175 -0.2196  1.6938 -0.1382
  155SAPE   C3517271   4.315   1.277   7.030 -0.4419  0.8286 -0.0624
  155SAPE   H5X17272   4.289   1.260   6.924 -1.2761  5.8076 -0.8955
  155SAPE   H5Y17273   4.215   1.296   7.074 -1.4720 -0.1641 -1.8533
  155SAPE   C3617274   4.353   1.139   7.092 -0.0539 -0.3656 -0.8843
  155SAPE   H6X17275   4.432   1.086   7.035 -0.5537 -2.0912 -0.0162
  155SAPE   H6Y17276   4.263   1.075   7.084 -0.7920  0.5835 -0.4003
  155SAPE   C3717277   4.378   1.151   7.246 -1.0175  0.5155  0.3002
  155SAPE   H7X17278   4.475   1.200   7.266 -0.0676 -1.1224 -0.1588
  155SAPE   H7Y17279   4.378   1.047   7.285 -2.7549  0.3879  0.0499
  155SAPE   C3817280   4.272   1.232   7.322  0.1297 -0.0171  0.7225
  155SAPE   H8X17281   4.172   1.196   7.290  0.6979  0.3154 -1.5876
  155SAPE   H8Y17282   4.273   1.340   7.296 -3.5500  0.3381  1.5536
  155SAPE   C3917283   4.304   1.235   7.474 -0.3675  0.1673 -0.5442
  155SAPE   H9X17284   4.299   1.134   7.521  2.4774  0.3697  0.3705
  155SAPE   H9Y17285   4.216   1.280   7.524 -0.6368  0.8281 -1.5940
  155SAPE  C31017286   4.429   1.321   7.505  0.2128  0.0693 -0.4530
  155SAPE  H10X17287   4.423   1.411   7.441  1.0904 -0.1207 -0.8100
  155SAPE  H10Y17288   4.514   1.255   7.476  1.5409  1.3975  0.2866
  155SAPE  C31117289   4.449   1.388   7.640  0.1800  0.0982 -0.4582
  155SAPE  H11X17290   4.555   1.420   7.648  0.5509 -0.2498 -3.1750
  155SAPE  H11Y17291   4.423   1.314   7.719  1.1297  0.8567  0.6053
  155SAPE  C31217292   4.368   1.510   7.668  0.4813 -0.9419 -0.3367
  155SAPE  H12X17293   4.260   1.484   7.654  0.6907 -2.0866  0.0186
  155SAPE  H12Y17294   4.384   1.601   7.607 -1.7916 -1.0881 -1.2531
  155SAPE  C31317295   4.388   1.563   7.808  0.1683  0.0566  0.1149
  155SAPE  H13X17296   4.481   1.623   7.810 -0.9666  1.8772  1.4012
  155SAPE  H13Y17297   4.395   1.472   7.872 -0.1631  0.4764  0.7587
  155SAPE  C31417298   4.276   1.664   7.855 -0.2533 -0.1095 -1.3699
  155SAPE  H14X17299   4.184   1.610   7.886  0.2911 -0.5306 -0.4280
  155SAPE  H14Y17300   4.266   1.737   7.773  0.2028  0.9621 -0.4968
  155SAPE  C31517301   4.314   1.727   7.993 -0.3349 -0.0854  0.1120
  155SAPE  H15X17302   4.242   1.800   8.035  0.8465  2.6331 -2.2457
  155SAPE  H15Y17303   4.408   1.786   7.981 -0.5290  0.2896  0.4147
  155SAPE  C31617304   4.346   1.627   8.105 -0.0849 -0.7338  0.4174
  155SAPE  H16X17305   4.431   1.559   8.083  0.6043  0.1095  0.4643
  155SAPE  H16Y17306   4.261   1.555   8.110  0.9457 -2.0198  0.1672
  155SAPE  C31717307   4.381   1.703   8.235 -0.2835 -0.5190 -0.0070
  155SAPE  H17X17308   4.375   1.622   8.311 -0.2846 -1.5970 -1.1308
  155SAPE  H17Y17309   4.313   1.785   8.266  0.7688 -0.4206  2.2674
  155SAPE  C31817310   4.526   1.756   8.241 -0.2013  0.9104 -0.4256
  155SAPE  H18X17311   4.590   1.667   8.226  0.8502  1.6046 -0.1030
  155SAPE  H18Y17312   4.531   1.800   8.343  0.4531  1.5397 -0.7207
  155SAPE  H18Z17313   4.539   1.833   8.162  1.5433 -1.1530 -2.2605
  156SAPE     N17314   2.989   1.968   6.041 -0.5319 -0.3243 -0.1091
  156SAPE   HN117315   2.993   1.912   6.128 -1.0630 -0.3181 -0.0777
  156SAPE   HN217316   2.889   1.990   6.022 -0.7523 -1.0735  0.1508
  156SAPE   HN317317   3.020   1.902   5.967  0.3746 -1.5157  1.2781
  156SAPE   C1217318   3.079   2.087   6.056  0.3077  0.6886 -0.3296
  156SAPE  H12A17319   3.071   2.166   5.978 -0.1998  2.0570  1.0520
  156SAPE  H12B17320   3.184   2.051   6.054  0.1393  0.2285 -1.6549
  156SAPE   C1117321   3.052   2.153   6.195  0.4521  0.7049  0.2881
  156SAPE  H11A17322   3.088   2.085   6.276  2.5286  0.2870 -0.8971
  156SAPE  H11B17323   2.941   2.158   6.203  0.2572  0.0857 -1.4126
  156SAPE     P17324   3.260   2.302   6.260 -0.0942  0.1431  0.2987
  156SAPE   O1317325   3.354   2.211   6.192 -0.3183  0.0702 -0.2954
  156SAPE   O1417326   3.287   2.446   6.250  0.0364  0.3087  0.0169
  156SAPE   O1217327   3.118   2.282   6.199 -0.6915  0.1601  0.0662
  156SAPE   O1117328   3.239   2.249   6.400 -0.1557 -0.5971 -0.8446
  156SAPE    C117329   3.128   2.285   6.481  0.3636  0.1659 -0.5718
  156SAPE    HA17330   3.131   2.391   6.515  0.0076  1.0806 -3.1629
  156SAPE    HB17331   3.031   2.277   6.428 -0.4975  0.9837  0.8268
  156SAPE    C217332   3.117   2.192   6.609  0.5257 -0.5573 -0.8463
  156SAPE    HS17333   3.220   2.183   6.649  0.4869  0.5162 -0.4508
  156SAPE   O2117334   3.061   2.064   6.579  0.8862 -0.1086  0.7553
  156SAPE   C2117335   3.102   1.962   6.651 -0.9326  0.0385 -0.7095
  156SAPE   O2217336   3.182   1.973   6.740  0.1721  0.0171  0.0476
  156SAPE   C2217337   3.027   1.837   6.606 -0.8183  0.7839 -0.2582
  156SAPE   H2R17338   2.942   1.861   6.539  0.0443  2.3023 -0.8861
  156SAPE   H2S17339   3.103   1.785   6.544 -0.9613  1.6293 -1.1783
  156SAPE    C317340   3.027   2.266   6.718 -0.8409 -0.1521 -0.0622
  156SAPE    HX17341   2.926   2.256   6.673  0.3247 -1.3252 -2.6780
  156SAPE    HY17342   3.058   2.370   6.740  0.0094 -0.7930  2.0566
  156SAPE   O3117343   3.036   2.185   6.838  0.6722  0.2652 -0.0955
  156SAPE   C3117344   3.120   2.224   6.928 -0.2900 -0.6114  0.0650
  156SAPE   O3217345   3.195   2.318   6.916  0.0806  0.2455 -0.4358
  156SAPE   C3217346   3.108   2.127   7.054 -0.3618 -0.0963 -0.5747
  156SAPE   H2X17347   3.207   2.132   7.105 -0.6876 -0.5900  0.1137
  156SAPE   H2Y17348   3.097   2.019   7.027 -0.3811 -0.5839  1.2722
  156SAPE   C2317349   2.981   1.746   6.722  0.2752 -0.7174  0.0354
  156SAPE   H3R17350   3.055   1.705   6.794  2.2990  1.0813 -0.9020
  156SAPE   H3S17351   2.939   1.654   6.676 -1.4561 -0.4412  0.9654
  156SAPE   C2417352   2.860   1.810   6.804 -0.5876  0.3640 -0.4813
  156SAPE   H4R17353   2.764   1.754   6.799 -1.4494  1.6767  0.6206
  156SAPE   H4S17354   2.833   1.905   6.753  0.5046 -0.1673 -2.1352
  156SAPE   C2517355   2.884   1.819   6.955 -0.3578  0.7265  0.6374
  156SAPE   H5R17356   2.949   1.906   6.975  1.9766 -0.5288 -0.9968
  156SAPE   C2617357   2.847   1.734   7.051  0.3945 -0.7552  0.1328
  156SAPE   H6R17358   2.878   1.769   7.151  1.0974 -0.1558 -0.2833
  156SAPE   C2717359   2.771   1.601   7.048  0.3176  0.2034  0.0001
  156SAPE   H7R17360   2.831   1.528   7.105  1.9125  1.5912  0.1804
  156SAPE   H7S17361   2.759   1.564   6.944  0.6718  0.6049 -0.1854
  156SAPE   C2817362   2.634   1.616   7.100 -0.5158  0.5110  0.0596
  156SAPE   H8R17363   2.580   1.704   7.060  0.5446  0.9304 -0.4700
  156SAPE   C2917364   2.560   1.534   7.183 -0.2986  0.0560 -0.0372
  156SAPE   H9R17365   2.457   1.562   7.213 -0.4174 -2.6989  2.5014
  156SAPE  C21017366   2.617   1.404   7.240  0.1783 -0.2375 -0.3584
  156SAPE  H10R17367   2.707   1.364   7.188 -2.1345 -4.1355 -1.8124
  156SAPE  H10S17368   2.546   1.321   7.218  1.4109 -2.4378  3.1003
  156SAPE  C21117369   2.643   1.399   7.387  0.0733 -0.3963 -0.3548
  156SAPE  H11R17370   2.560   1.433   7.449 -0.0866  0.7411 -1.1767
  156SAPE  C21217371   2.749   1.345   7.446 -0.5847 -0.3676  0.5368
  156SAPE  H12R17372   2.748   1.335   7.555  1.4326  0.7719  0.7077
  156SAPE  C21317373   2.867   1.287   7.378 -0.3990 -0.5385  0.3341
  156SAPE  H13R17374   2.904   1.344   7.290 -1.1327  1.3564  1.2000
  156SAPE  H13S17375   2.848   1.184   7.343 -1.6304 -1.2272  2.7790
  156SAPE  C21417376   2.988   1.268   7.467 -0.3965 -0.5326 -0.2599
  156SAPE  H14R17377   3.046   1.360   7.482  1.1070 -1.4613 -0.2084
  156SAPE  C21517378   3.037   1.152   7.519  0.3023 -0.4016  0.5357
  156SAPE  H15R17379   3.123   1.166   7.586 -0.1734 -0.3522  1.1378
  156SAPE  C21617380   2.982   1.016   7.507  0.0423 -0.1398  0.7119
  156SAPE  H16R17381   2.877   1.022   7.473 -0.3353 -0.1695  1.8468
  156SAPE  H16S17382   2.975   0.970   7.607 -0.1925  2.0344  1.7450
  156SAPE  C21717383   3.060   0.918   7.420  0.7708 -0.7245  0.7965
  156SAPE  H17R17384   3.023   0.818   7.450 -0.1043 -0.2175  1.4312
  156SAPE  H17S17385   3.171   0.920   7.428  0.7804  0.7668  0.5892
  156SAPE  C21817386   3.035   0.933   7.268  0.0677 -0.5429  0.1459
  156SAPE  H18R17387   3.076   1.027   7.227  0.1141 -1.2558 -1.5301
  156SAPE  H18S17388   2.925   0.930   7.249  0.6238 -1.2124 -3.7159
  156SAPE  C21917389   3.092   0.818   7.190 -0.7044 -0.4717  0.5697
  156SAPE  H19R17390   3.054   0.723   7.235 -2.0137 -0.3597 -0.2270
  156SAPE  H19S17391   3.201   0.809   7.208 -0.4385 -3.4550 -1.6445
  156SAPE  C22017392   3.067   0.830   7.043 -0.0317 -0.8603 -0.7271
  156SAPE  H20R17393   3.088   0.931   7.003 -0.8251 -0.0120  0.9169
  156SAPE  H20S17394   2.959   0.811   7.023 -0.0996 -1.0744 -0.1788
  156SAPE  H20T17395   3.131   0.756   6.990  0.2644 -1.4472  0.4117
  156SAPE   C3317396   2.984   2.158   7.147  0.1236 -0.4204  0.3960
  156SAPE   H3X17397   2.942   2.067   7.194  0.8064 -1.0592 -0.2246
  156SAPE   H3Y17398   2.902   2.203   7.086 -1.4911 -2.6321  0.8374
  156SAPE   C3417399   3.023   2.257   7.249 -0.2322  0.0158 -0.7434
  156SAPE   H4X17400   3.023   2.360   7.209  2.7579  0.9178  1.2013
  156SAPE   H4Y17401   3.127   2.244   7.288 -0.9052 -1.4739  0.7198
  156SAPE   C3517402   2.931   2.257   7.375  0.6938 -0.0485 -0.3136
  156SAPE   H5X17403   2.821   2.244   7.362  0.8795 -0.9259 -1.1869
  156SAPE   H5Y17404   2.953   2.353   7.426 -1.7402  1.4202 -1.8300
  156SAPE   C3617405   2.979   2.161   7.480 -0.3561  0.9172 -0.1264
  156SAPE   H6X17406   3.089   2.165   7.495 -0.5385  0.4214  1.5633
  156SAPE   H6Y17407   2.969   2.059   7.437  1.4805  0.5803  0.1535
  156SAPE   C3717408   2.904   2.170   7.617 -0.0240 -0.0627 -0.5325
  156SAPE   H7X17409   2.797   2.144   7.608 -0.9453  2.9238  0.5791
  156SAPE   H7Y17410   2.891   2.277   7.642 -0.2351 -0.5031  1.4243
  156SAPE   C3817411   2.968   2.097   7.734 -0.3811 -0.0407 -0.3543
  156SAPE   H8X17412   3.072   2.131   7.753 -0.7015 -0.2749  2.0586
  156SAPE   H8Y17413   2.972   1.990   7.705 -2.1744  0.5527 -3.2430
  156SAPE   C3917414   2.894   2.102   7.864  0.3439  0.0232 -0.7243
  156SAPE   H9X17415   2.789   2.070   7.846  0.4740 -0.1567 -1.1648
  156SAPE   H9Y17416   2.899   2.209   7.896  3.4503 -0.0147 -0.7768
  156SAPE  C31017417   2.936   2.007   7.975  0.4572 -0.0630  0.1118
  156SAPE  H10X17418   3.046   2.013   7.993  0.4480  0.1390  0.1085
  156SAPE  H10Y17419   2.910   1.906   7.939 -0.1191  0.6000 -1.4000
  156SAPE  C31117420   2.865   2.042   8.114 -0.1320 -0.2713  0.1995
  156SAPE  H11X17421   2.756   2.033   8.091 -0.0321  1.5282 -1.2477
  156SAPE  H11Y17422   2.876   2.148   8.144  2.5939 -0.2070 -0.7950
  156SAPE  C31217423   2.919   1.946   8.226 -0.8312 -0.4792  0.8188
  156SAPE  H12X17424   3.029   1.964   8.227 -0.9147  0.0673  1.8666
  156SAPE  H12Y17425   2.888   1.840   8.226  0.0539 -0.7461  0.9781
  156SAPE  C31317426   2.884   1.999   8.371 -0.1335  0.1827  0.3337
  156SAPE  H13X17427   2.784   1.952   8.389  1.5302 -3.8572  0.1697
  156SAPE  H13Y17428   2.877   2.109   8.371  2.0351  0.3796  2.5987
  156SAPE  C31417429   2.987   1.963   8.474  0.0929  0.4311  0.2625
  156SAPE  H14X17430   2.948   1.997   8.573 -0.2770  0.9399 -0.0487
  156SAPE  H14Y17431   3.074   2.028   8.454 -1.1458  1.3479 -2.6798
  156SAPE  C31517432   3.044   1.823   8.476 -0.2771  0.8653 -0.4001
  156SAPE  H15X17433   3.125   1.803   8.549 -0.5103  1.4660  0.0330
  156SAPE  H15Y17434   3.083   1.782   8.380  0.4820 -3.0291  1.3893
  156SAPE  C31617435   2.943   1.712   8.514  0.5132  0.0861 -0.0900
  156SAPE  H16X17436   2.845   1.745   8.473  0.4917 -0.5983 -0.5959
  156SAPE  H16Y17437   2.935   1.723   8.624  2.8304 -0.0035  0.1312
  156SAPE  C31717438   2.998   1.580   8.476  0.1326  0.7386  1.2040
  156SAPE  H17X17439   3.100   1.564   8.518 -0.4471  1.9806  3.2144
  156SAPE  H17Y17440   3.003   1.596   8.366 -1.5257 -1.6534  0.6883
  156SAPE  C31817441   2.910   1.458   8.510  0.1996 -0.0689  0.8455
  156SAPE  H18X17442   2.829   1.452   8.435  0.1864  4.3990  0.1779
  156SAPE  H18Y17443   2.868   1.469   8.612  0.1312 -1.8094  1.0337
  156SAPE  H18Z17444   2.969   1.364   8.507 -2.2751 -1.6846  0.4405
  157SAPE     N17445   1.214   2.822   6.338  0.3687 -0.0899  0.5672
  157SAPE   HN117446   1.138   2.893   6.337 -0.8151 -1.2431  2.6843
  157SAPE   HN217447   1.186   2.745   6.402  1.9428 -1.4200 -0.2572
  157SAPE   HN317448   1.302   2.867   6.369  0.5703  0.3284 -0.5721
  157SAPE   C1217449   1.223   2.773   6.199  0.0065  0.2475 -0.5278
  157SAPE  H12A17450   1.280   2.848   6.140  1.8033 -1.4510 -1.0444
  157SAPE  H12B17451   1.122   2.756   6.155  0.1371 -1.7580 -0.1185
  157SAPE   C1117452   1.302   2.636   6.181  0.5131 -0.0584  0.8473
  157SAPE  H11A17453   1.301   2.628   6.070 -0.3305 -0.0364  0.8479
  157SAPE  H11B17454   1.245   2.554   6.230  1.2716 -1.9433 -1.2503
  157SAPE     P17455   1.563   2.672   6.148 -0.0417 -0.2332  0.2325
  157SAPE   O1317456   1.544   2.598   6.026 -0.2774  0.4898  0.6057
  157SAPE   O1417457   1.591   2.818   6.139  0.2391  0.0173  0.3133
  157SAPE   O1217458   1.429   2.657   6.240 -0.4794 -0.4815  0.3253
  157SAPE   O1117459   1.673   2.605   6.238  0.8492  0.0498 -0.3539
  157SAPE    C117460   1.635   2.486   6.309 -0.2302 -0.5562 -0.8740
  157SAPE    HA17461   1.556   2.426   6.259 -0.8713 -0.2321 -0.2826
  157SAPE    HB17462   1.720   2.416   6.313 -0.0793 -0.3561 -0.4922
  157SAPE    C217463   1.586   2.512   6.462  0.8859 -0.3357  0.5806
  157SAPE    HS17464   1.511   2.594   6.462 -0.9301 -1.9468  0.1871
  157SAPE   O2117465   1.698   2.544   6.543  0.2707 -0.5767 -0.7138
  157SAPE   C2117466   1.731   2.669   6.547 -0.1331  0.7944 -0.1849
  157SAPE   O2217467   1.677   2.760   6.483  0.2386  0.1368  0.0938
  157SAPE   C2217468   1.851   2.682   6.634  0.0675  0.4999 -0.0143
  157SAPE   H2R17469   1.852   2.607   6.715  0.1405  0.1899 -0.3022
  157SAPE   H2S17470   1.941   2.662   6.573  0.3044  1.0294  0.1528
  157SAPE    C317471   1.507   2.384   6.524 -0.5917 -0.1973  0.3257
  157SAPE    HX17472   1.567   2.297   6.491  1.2621  1.6230 -1.4183
  157SAPE    HY17473   1.409   2.378   6.471 -0.2481 -0.1701 -0.3230
  157SAPE   O3117474   1.492   2.397   6.662 -0.0972 -0.1433  0.2320
  157SAPE   C3117475   1.589   2.331   6.731 -0.0488 -0.0350  0.6119
  157SAPE   O3217476   1.668   2.250   6.684  0.0972 -0.3145 -0.0452
  157SAPE   C3217477   1.562   2.355   6.886 -0.0243 -0.4737  0.4648
  157SAPE   H2X17478   1.457   2.324   6.905 -0.5743  0.5501 -0.7843
  157SAPE   H2Y17479   1.575   2.464   6.900 -0.8018 -0.3267  0.0717
  157SAPE   C2317480   1.870   2.824   6.683 -0.1471 -0.6328 -0.5676
  157SAPE   H3R17481   1.861   2.900   6.602 -2.8651 -1.0564 -0.7250
  157SAPE   H3S17482   1.979   2.831   6.706 -0.5228 -0.6549  1.3983
  157SAPE   C2417483   1.795   2.851   6.808  0.0010  0.0333 -0.9426
  157SAPE   H4R17484   1.841   2.941   6.854 -0.1970 -0.7201  0.8403
  157SAPE   H4S17485   1.821   2.770   6.880  0.4985  1.8738  1.0592
  157SAPE   C2517486   1.641   2.870   6.790 -0.1135  0.4209  0.2291
  157SAPE   H5R17487   1.606   2.872   6.686  0.0987 -3.4109 -0.0317
  157SAPE   C2617488   1.549   2.846   6.892 -0.0721 -0.0717  1.3756
  157SAPE   H6R17489   1.444   2.867   6.867 -1.1871 -5.1479  0.6090
  157SAPE   C2717490   1.587   2.814   7.036  0.1997 -0.0797 -0.2089
  157SAPE   H7R17491   1.639   2.716   7.036  0.0781 -0.2195  2.4804
  157SAPE   H7S17492   1.492   2.797   7.090  1.5219 -1.0733  1.9689
  157SAPE   C2817493   1.668   2.918   7.111 -0.5068 -0.1090  0.2254
  157SAPE   H8R17494   1.735   2.981   7.051 -0.9995  1.9777  1.7830
  157SAPE   C2917495   1.666   2.932   7.244  0.1203 -0.1302 -0.1000
  157SAPE   H9R17496   1.724   3.014   7.288 -1.1131  0.6169  0.1943
  157SAPE  C21017497   1.583   2.840   7.332  0.0062 -0.3827  0.2629
  157SAPE  H10R17498   1.653   2.811   7.413  0.6624  0.5217  0.0331
  157SAPE  H10S17499   1.563   2.739   7.290 -0.4394 -0.8484  1.5398
  157SAPE  C21117500   1.461   2.908   7.383 -0.1936  0.5931  0.5841
  157SAPE  H11R17501   1.389   2.922   7.301  0.6763 -1.3989 -0.6091
  157SAPE  C21217502   1.443   2.947   7.508  0.0049 -0.0728  0.1955
  157SAPE  H12R17503   1.357   3.007   7.542  1.2305  0.8261  1.8577
  157SAPE  C21317504   1.539   2.933   7.629 -1.2595 -0.2959  0.5762
  157SAPE  H13R17505   1.644   2.909   7.601 -1.5709 -3.3927  1.5878
  157SAPE  H13S17506   1.513   2.845   7.693 -0.0472  1.0802  3.0854
  157SAPE  C21417507   1.538   3.043   7.728 -0.0440  0.4329  0.0492
  157SAPE  H14R17508   1.505   3.141   7.689 -0.1624  1.3716  2.3666
  157SAPE  C21517509   1.594   3.047   7.852  0.3352 -0.3193  0.4271
  157SAPE  H15R17510   1.580   3.143   7.904 -2.0681  0.5200 -1.5496
  157SAPE  C21617511   1.679   2.951   7.914  0.5920  0.1285 -0.1434
  157SAPE  H16R17512   1.786   2.950   7.885  0.1051 -1.1566 -2.0960
  157SAPE  H16S17513   1.646   2.847   7.893  3.5472 -0.6645 -1.3317
  157SAPE  C21717514   1.677   2.956   8.067  0.0079 -0.4274  1.0645
  157SAPE  H17R17515   1.712   2.858   8.106  0.8827 -1.2166 -1.4569
  157SAPE  H17S17516   1.574   2.968   8.108 -0.1574 -1.1160  0.8644
  157SAPE  C21817517   1.764   3.068   8.127 -0.1050  0.1233  0.1466
  157SAPE  H18R17518   1.765   3.161   8.067  0.8069  1.9097  2.7849
  157SAPE  H18S17519   1.870   3.035   8.118 -0.4722 -1.2404  0.5853
  157SAPE  C21917520   1.740   3.104   8.270  0.2132 -0.6379 -0.6590
  157SAPE  H19R17521   1.827   3.159   8.313  1.0942 -2.5901  0.1611
  157SAPE  H19S17522   1.744   3.013   8.334  0.9869 -0.5940 -0.6309
  157SAPE  C22017523   1.602   3.171   8.291  0.3229  0.0287  0.0548
  157SAPE  H20R17524   1.600   3.278   8.262  0.1997 -0.1592 -0.6508
  157SAPE  H20S17525   1.557   3.169   8.393  1.3514  0.0664  0.5193
  157SAPE  H20T17526   1.529   3.123   8.221  0.8619 -1.6759  0.6007
  157SAPE   C3317527   1.644   2.265   6.984  0.1057 -0.1845  0.2149
  157SAPE   H3X17528   1.748   2.244   6.949 -0.7612 -2.9090 -1.0286
  157SAPE   H3Y17529   1.580   2.176   6.969 -3.3301  2.1356  0.0931
  157SAPE   C3417530   1.665   2.322   7.132 -0.9630 -0.4924  0.4483
  157SAPE   H4X17531   1.718   2.417   7.112 -1.2013  0.0654  2.3128
  157SAPE   H4Y17532   1.730   2.252   7.189  1.6416  0.5818 -1.0503
  157SAPE   C3517533   1.546   2.338   7.207 -0.1895 -0.8272 -0.1405
  157SAPE   H5X17534   1.489   2.245   7.229 -0.2184 -0.8967 -0.5026
  157SAPE   H5Y17535   1.477   2.409   7.157 -1.3217 -1.9389 -0.2040
  157SAPE   C3617536   1.572   2.395   7.350  0.2984  0.2179 -0.4198
  157SAPE   H6X17537   1.620   2.494   7.342 -0.7243  0.9794  2.1698
  157SAPE   H6Y17538   1.641   2.327   7.405  0.5219 -0.6454 -1.7076
  157SAPE   C3717539   1.452   2.391   7.443 -0.2369 -0.4124  0.2495
  157SAPE   H7X17540   1.392   2.299   7.433 -1.6036  0.5549 -0.9381
  157SAPE   H7Y17541   1.377   2.462   7.403 -0.6389 -0.5514  0.7481
  157SAPE   C3817542   1.495   2.418   7.591 -0.8327 -0.6160 -0.1025
  157SAPE   H8X17543   1.516   2.527   7.594 -1.1057 -0.5805  1.3646
  157SAPE   H8Y17544   1.584   2.356   7.617 -1.0574 -0.7092  0.4695
  157SAPE   C3917545   1.378   2.406   7.696 -0.8460  0.0477 -0.1356
  157SAPE   H9X17546   1.366   2.296   7.709 -1.9680 -0.0484 -1.6759
  157SAPE   H9Y17547   1.280   2.452   7.674 -1.3339 -0.5913  0.6602
  157SAPE  C31017548   1.422   2.471   7.821  0.6090  0.3379 -0.4144
  157SAPE  H10X17549   1.430   2.580   7.802 -0.8297  0.5278 -0.0623
  157SAPE  H10Y17550   1.516   2.430   7.862  1.4309  0.7787 -1.7831
  157SAPE  C31117551   1.308   2.454   7.926  0.1506  0.2913 -0.1944
  157SAPE  H11X17552   1.309   2.343   7.929 -0.2531  0.3093  1.1655
  157SAPE  H11Y17553   1.205   2.481   7.893  1.1828  3.4472 -1.1938
  157SAPE  C31217554   1.340   2.496   8.069  0.0605  0.2902 -0.4995
  157SAPE  H12X17555   1.445   2.480   8.101 -0.3034 -0.0729  0.5832
  157SAPE  H12Y17556   1.271   2.444   8.139 -0.1364 -0.1407 -1.0042
  157SAPE  C31317557   1.307   2.647   8.080 -0.0810 -0.4610 -0.5239
  157SAPE  H13X17558   1.214   2.669   8.023  0.5721  0.4074 -1.2806
  157SAPE  H13Y17559   1.382   2.709   8.026 -0.5140 -0.6142 -1.3183
  157SAPE  C31417560   1.300   2.698   8.228 -0.3723  0.1037 -0.2799
  157SAPE  H14X17561   1.404   2.709   8.267  0.2087 -2.4079 -0.9292
  157SAPE  H14Y17562   1.244   2.614   8.275 -2.7991  1.7430 -0.0478
  157SAPE  C31517563   1.215   2.828   8.234  0.4953  0.3538  0.2845
  157SAPE  H15X17564   1.117   2.819   8.182  1.3079  1.8305 -1.5593
  157SAPE  H15Y17565   1.273   2.902   8.176 -0.2248  1.8716  1.4337
  157SAPE  C31617566   1.190   2.886   8.376 -0.2229 -0.2485 -0.2188
  157SAPE  H16X17567   1.138   2.802   8.427  1.8744 -0.6076  1.4616
  157SAPE  H16Y17568   1.125   2.975   8.362  0.4186  0.0799 -1.2584
  157SAPE  C31717569   1.310   2.907   8.465 -0.0555 -0.4981 -0.3276
  157SAPE  H17X17570   1.384   2.961   8.401  2.5064 -1.6059  1.5201
  157SAPE  H17Y17571   1.357   2.809   8.486 -1.1046 -0.7858  0.7701
  157SAPE  C31817572   1.303   2.993   8.591 -0.4991  0.0341  0.0939
  157SAPE  H18X17573   1.388   2.984   8.662  1.1690 -0.5397 -1.8892
  157SAPE  H18Y17574   1.211   2.953   8.641 -2.5971  0.5447 -3.0722
  157SAPE  H18Z17575   1.282   3.101   8.575  2.8351  0.4513 -2.2624
  158SAPE     N17576   2.421   1.445   6.089  0.5906 -0.2580 -0.3519
  158SAPE   HN117577   2.509   1.501   6.087 -0.2497  1.1439  0.3429
  158SAPE   HN217578   2.441   1.356   6.039  1.8619 -0.5889  0.6890
  158SAPE   HN317579   2.340   1.496   6.049  0.4943  0.0231  0.1968
  158SAPE   C1217580   2.394   1.412   6.231  0.9679  0.2319 -0.2997
  158SAPE  H12A17581   2.298   1.357   6.235  0.7333  0.6662  0.1922
  158SAPE  H12B17582   2.393   1.511   6.282 -1.8877  0.0299  0.1793
  158SAPE   C1117583   2.506   1.322   6.290  0.0353 -0.0987 -0.1362
  158SAPE  H11A17584   2.497   1.222   6.242  2.5666  1.1038 -3.5698
  158SAPE  H11B17585   2.497   1.310   6.400  0.7243  0.9079  0.0401
  158SAPE     P17586   2.740   1.286   6.188  0.4879  0.1499  0.2305
  158SAPE   O1317587   2.687   1.269   6.044  0.0483 -0.3900 -0.4771
  158SAPE   O1417588   2.875   1.347   6.190  0.0547 -0.0105 -0.2029
  158SAPE   O1217589   2.632   1.382   6.258 -0.0687 -0.0426 -0.0248
  158SAPE   O1117590   2.724   1.156   6.277  0.5189 -0.1564  0.0133
  158SAPE    C117591   2.732   1.160   6.420 -0.0868  0.3175 -0.5810
  158SAPE    HA17592   2.777   1.254   6.458 -0.0630 -0.7123  2.1338
  158SAPE    HB17593   2.629   1.148   6.460 -0.5327 -0.2148 -1.8121
  158SAPE    C217594   2.812   1.039   6.479 -0.7212 -0.0964  0.4309
  158SAPE    HS17595   2.909   1.029   6.425  0.4647 -0.7802  2.5648
  158SAPE   O2117596   2.731   0.922   6.458 -0.1655 -0.4447 -0.5517
  158SAPE   C2117597   2.786   0.806   6.491  0.2176  0.1263 -0.4259
  158SAPE   O2217598   2.902   0.785   6.524 -0.4406  0.4731  0.0264
  158SAPE   C2217599   2.689   0.687   6.466 -0.9222  0.6783 -0.5331
  158SAPE   H2R17600   2.587   0.704   6.506 -1.7070  1.8409 -2.8401
  158SAPE   H2S17601   2.668   0.695   6.357  0.3313  0.5595 -0.7994
  158SAPE    C317602   2.841   1.063   6.629 -0.0983 -0.2538  0.5845
  158SAPE    HX17603   2.897   0.981   6.678  0.0349 -0.9505 -0.6737
  158SAPE    HY17604   2.743   1.059   6.681  0.4675  0.0769  1.6891
  158SAPE   O3117605   2.896   1.195   6.649  0.0900 -0.1692  0.1344
  158SAPE   C3117606   3.024   1.200   6.657 -0.1753 -0.4540 -0.0762
  158SAPE   O3217607   3.103   1.112   6.620  0.4765  0.2790  0.0391
  158SAPE   C3217608   3.075   1.328   6.715  0.4334 -0.6330  0.2337
  158SAPE   H2X17609   3.005   1.404   6.673  0.4427 -1.6725 -1.7769
  158SAPE   H2Y17610   3.179   1.342   6.679  0.0224  0.5334 -0.5691
  158SAPE   C2317611   2.745   0.543   6.501  0.4512 -0.0547 -0.0015
  158SAPE   H3R17612   2.849   0.534   6.463 -0.0174 -1.9403 -0.9715
  158SAPE   H3S17613   2.685   0.463   6.451 -2.8406  2.2122 -0.0111
  158SAPE   C2417614   2.732   0.487   6.652 -0.2699 -0.0852 -0.6464
  158SAPE   H4R17615   2.807   0.405   6.664 -1.1685 -0.8072  0.1201
  158SAPE   H4S17616   2.631   0.443   6.662 -0.4843  0.6971  1.0028
  158SAPE   C2517617   2.760   0.598   6.752  0.0900  0.1949 -0.4169
  158SAPE   H5R17618   2.868   0.620   6.763 -0.1356  0.9202  0.5486
  158SAPE   C2617619   2.668   0.668   6.817  0.1622  0.7189 -0.6994
  158SAPE   H6R17620   2.705   0.743   6.889  0.3310 -2.8086  3.3541
  158SAPE   C2717621   2.516   0.650   6.809  0.1406  0.0810  0.2123
  158SAPE   H7R17622   2.476   0.603   6.901  0.3146 -0.4558  0.0178
  158SAPE   H7S17623   2.492   0.565   6.742 -1.4647  0.2395  0.5465
  158SAPE   C2817624   2.454   0.778   6.770 -0.1242 -0.4353 -0.0085
  158SAPE   H8R17625   2.522   0.840   6.709 -2.9186  1.2202 -1.6580
  158SAPE   C2917626   2.336   0.834   6.813 -0.8358  0.3736 -0.0915
  158SAPE   H9R17627   2.311   0.934   6.773 -2.5968 -0.5146 -1.3269
  158SAPE  C21017628   2.244   0.772   6.910  0.4019 -0.4375 -0.3580
  158SAPE  H10R17629   2.260   0.662   6.916  2.0979 -0.1604  1.0582
  158SAPE  H10S17630   2.144   0.808   6.881  0.5228 -0.7345 -1.1657
  158SAPE  C21117631   2.263   0.830   7.055 -0.0118  0.2193  0.0080
  158SAPE  H11R17632   2.293   0.936   7.061 -2.2453  0.8823  0.2126
  158SAPE  C21217633   2.245   0.758   7.171 -0.3334  0.5357 -0.5710
  158SAPE  H12R17634   2.257   0.810   7.267 -0.9433 -1.7876  0.8217
  158SAPE  C21317635   2.217   0.610   7.190 -0.7684  0.0682 -0.3967
  158SAPE  H13R17636   2.207   0.561   7.091 -0.4656  2.6331 -1.7888
  158SAPE  H13S17637   2.117   0.608   7.239 -0.4974 -2.0618  0.1537
  158SAPE  C21417638   2.333   0.551   7.277 -0.2117  0.2917  0.2704
  158SAPE  H14R17639   2.432   0.535   7.232 -1.0333 -1.4927 -1.0298
  158SAPE  C21517640   2.323   0.516   7.404  0.1077  0.2627 -0.1582
  158SAPE  H15R17641   2.411   0.471   7.453  0.0857 -0.0034 -0.3577
  158SAPE  C21617642   2.198   0.526   7.484 -0.1592  0.2539  0.0203
  158SAPE  H16R17643   2.181   0.430   7.538 -0.1951  0.1013 -0.2624
  158SAPE  H16S17644   2.109   0.540   7.420  1.9837  2.6685 -2.6820
  158SAPE  C21717645   2.182   0.652   7.571 -0.2695 -0.2346  0.7104
  158SAPE  H17R17646   2.071   0.654   7.580 -0.4211  2.0364 -0.9392
  158SAPE  H17S17647   2.209   0.739   7.507 -0.9253 -0.2362  0.4229
  158SAPE  C21817648   2.256   0.642   7.705  0.6678  0.5438 -0.4408
  158SAPE  H18R17649   2.355   0.617   7.661  0.7520  0.9806 -0.5121
  158SAPE  H18S17650   2.222   0.556   7.765 -0.4013  1.0295 -0.3219
  158SAPE  C21917651   2.261   0.767   7.791 -0.1337 -0.1080 -0.3580
  158SAPE  H19R17652   2.159   0.801   7.820  0.8415  1.7627  1.1140
  158SAPE  H19S17653   2.298   0.847   7.723 -1.2700  0.6801 -0.0812
  158SAPE  C22017654   2.352   0.752   7.912  0.1259  0.2247 -0.6238
  158SAPE  H20R17655   2.290   0.690   7.980  2.2071 -1.0887  0.1846
  158SAPE  H20S17656   2.372   0.848   7.964 -0.5818 -1.0524  2.1885
  158SAPE  H20T17657   2.445   0.701   7.880 -0.7118 -0.6588 -1.7239
  158SAPE   C3317658   3.064   1.330   6.867  0.6134 -0.1876 -0.7246
  158SAPE   H3X17659   3.104   1.239   6.917 -3.6712 -1.4718  0.8459
  158SAPE   H3Y17660   2.957   1.348   6.893  0.7070 -1.1840  0.4433
  158SAPE   C3417661   3.147   1.437   6.941  0.3800  0.2032  0.4395
  158SAPE   H4X17662   3.114   1.540   6.913  3.1465  0.5789 -1.9868
  158SAPE   H4Y17663   3.248   1.430   6.895 -0.7557  0.1436 -2.2078
  158SAPE   C3517664   3.155   1.429   7.092 -0.2411 -0.2956  0.1957
  158SAPE   H5X17665   3.195   1.330   7.121  1.0504 -0.2965 -1.4403
  158SAPE   H5Y17666   3.051   1.440   7.129 -0.1557  0.5143  0.2273
  158SAPE   C3617667   3.239   1.540   7.163  0.7776 -0.0483 -0.1856
  158SAPE   H6X17668   3.230   1.632   7.102 -0.1384 -0.9188 -1.4280
  158SAPE   H6Y17669   3.346   1.511   7.178  0.2924 -1.5121  0.6797
  158SAPE   C3717670   3.167   1.589   7.293 -0.1344 -0.5173  0.1802
  158SAPE   H7X17671   3.059   1.609   7.277  0.5556  2.7469 -1.4067
  158SAPE   H7Y17672   3.164   1.501   7.360 -3.3191  0.0670  0.9840
  158SAPE   C3817673   3.235   1.704   7.368  0.0179 -0.2131  0.6980
  158SAPE   H8X17674   3.193   1.802   7.339 -1.4494 -0.8467  0.5952
  158SAPE   H8Y17675   3.344   1.714   7.348  0.9947 -2.2750  4.1605
  158SAPE   C3917676   3.229   1.706   7.524  0.6485 -0.6613  0.1276
  158SAPE   H9X17677   3.304   1.781   7.557 -1.0284  1.1012  0.0683
  158SAPE   H9Y17678   3.264   1.610   7.566 -1.8346 -0.4312  3.0528
  158SAPE  C31017679   3.087   1.730   7.581 -0.5012  0.3998  1.0443
  158SAPE  H10X17680   3.020   1.656   7.532  1.5197 -0.8942  0.0549
  158SAPE  H10Y17681   3.041   1.829   7.561 -0.2436  0.1553 -1.0658
  158SAPE  C31117682   3.078   1.693   7.727  0.6154  1.2892 -0.0166
  158SAPE  H11X17683   2.976   1.722   7.762  0.8903  1.6766  0.4645
  158SAPE  H11Y17684   3.150   1.748   7.792  1.3846 -1.5116  1.6390
  158SAPE  C31217685   3.108   1.541   7.754 -0.1147  0.4441  0.2176
  158SAPE  H12X17686   3.215   1.538   7.783  0.2047 -0.3415 -0.9891
  158SAPE  H12Y17687   3.082   1.479   7.666 -4.9023  0.0169  1.6378
  158SAPE  C31317688   3.013   1.476   7.858  0.7538 -0.4201 -0.0207
  158SAPE  H13X17689   2.914   1.493   7.811  0.3457  2.6939  1.7150
  158SAPE  H13Y17690   3.003   1.536   7.950 -0.2838 -0.1086 -0.3288
  158SAPE  C31417691   3.045   1.329   7.880  0.4822  0.0660 -0.2102
  158SAPE  H14X17692   3.108   1.290   7.798  2.4922 -2.1836  2.2354
  158SAPE  H14Y17693   2.954   1.267   7.894  2.4037 -2.6819  1.0522
  158SAPE  C31517694   3.117   1.328   8.022  0.1130  0.0574 -0.0001
  158SAPE  H15X17695   3.040   1.365   8.092  0.9696 -1.2687  1.7006
  158SAPE  H15Y17696   3.204   1.396   8.026 -2.0364  2.9920  0.2103
  158SAPE  C31617697   3.166   1.185   8.054  0.1650  0.3718  0.1856
  158SAPE  H16X17698   3.214   1.168   8.153 -2.4994 -4.6958  0.9155
  158SAPE  H16Y17699   3.233   1.166   7.967  1.0716 -0.2215  0.9878
  158SAPE  C31717700   3.057   1.080   8.046  0.0610 -0.6369  0.1307
  158SAPE  H17X17701   3.102   0.986   8.084 -0.6251  0.2883  3.5775
  158SAPE  H17Y17702   3.040   1.073   7.936  0.9278  0.1670 -0.0706
  158SAPE  C31817703   2.936   1.102   8.126 -0.0098  0.0338 -0.1493
  158SAPE  H18X17704   2.952   1.113   8.235  0.5724 -0.4580 -0.1793
  158SAPE  H18Y17705   2.865   1.017   8.115 -0.5458  0.6095 -1.2730
  158SAPE  H18Z17706   2.878   1.190   8.092  1.7649  1.7855  1.1301
  159SAPE     N17707   4.258   4.248   6.513  0.3048  0.1754 -0.0984
  159SAPE   HN117708   4.337   4.248   6.445 -0.5410  1.1939 -1.1131
  159SAPE   HN217709   4.286   4.191   6.596 -0.4996 -0.2656 -0.1196
  159SAPE   HN317710   4.186   4.193   6.461 -0.2592 -0.1374  0.9843
  159SAPE   C1217711   4.218   4.387   6.546  0.1108  0.1389  0.5825
  159SAPE  H12A17712   4.300   4.425   6.610  0.8257 -0.8328  0.2762
  159SAPE  H12B17713   4.123   4.382   6.604  0.7248  1.1939  1.7168
  159SAPE   C1117714   4.195   4.473   6.420 -0.8062  0.1718  0.2508
  159SAPE  H11A17715   4.297   4.480   6.376  0.7917  1.7019  3.8021
  159SAPE  H11B17716   4.163   4.574   6.452 -1.7260  0.3302 -1.0726
  159SAPE     P17717   3.982   4.457   6.255 -0.0446 -0.1023  0.0443
  159SAPE   O1317718   4.024   4.562   6.157  0.7370 -0.5029 -0.1618
  159SAPE   O1417719   3.898   4.348   6.205  0.0912 -0.5066 -0.0924
  159SAPE   O1217720   4.115   4.410   6.324  1.0783 -0.0814 -0.4715
  159SAPE   O1117721   3.900   4.529   6.366  0.0409  0.1070 -0.0876
  159SAPE    C117722   3.774   4.483   6.411 -0.3816  0.2051 -0.5515
  159SAPE    HA17723   3.696   4.528   6.346  1.3219  1.8697 -1.5583
  159SAPE    HB17724   3.762   4.373   6.405 -3.2434  0.3172  1.0842
  159SAPE    C217725   3.750   4.526   6.559 -0.1098 -0.2919  0.2265
  159SAPE    HS17726   3.643   4.508   6.580 -0.7163 -0.4024 -2.5545
  159SAPE   O2117727   3.797   4.658   6.584  0.8083  0.5055 -0.1187
  159SAPE   C2117728   3.736   4.753   6.519 -0.0851  0.3017 -0.1535
  159SAPE   O2217729   3.642   4.736   6.444 -0.0027 -0.1666  0.0434
  159SAPE   C2217730   3.803   4.887   6.543  0.7547 -0.5758 -0.6438
  159SAPE   H2R17731   3.906   4.868   6.581  0.3679 -0.3443  0.5576
  159SAPE   H2S17732   3.800   4.958   6.457  0.0873  0.4289  0.1874
  159SAPE    C317733   3.828   4.434   6.659  0.0461  0.4052  0.6543
  159SAPE    HX17734   3.936   4.439   6.630 -0.4214  0.9843 -1.1353
  159SAPE    HY17735   3.796   4.331   6.635 -0.8716  1.1677 -1.6312
  159SAPE   O3117736   3.790   4.478   6.792  0.1717 -0.1241 -0.1920
  159SAPE   C3117737   3.878   4.556   6.851 -0.0760  0.3698  0.0709
  159SAPE   O3217738   3.987   4.583   6.810  0.2854 -0.1722 -0.1221
  159SAPE   C3217739   3.826   4.592   6.993 -0.1567 -0.1891  0.7645
  159SAPE   H2X17740   3.808   4.496   7.045 -2.2560 -0.1059  0.3135
  159SAPE   H2Y17741   3.729   4.641   6.970 -0.5802 -1.7620 -1.1055
  159SAPE   C2317742   3.733   4.974   6.656  0.1704 -0.5062  0.2191
  159SAPE   H3R17743   3.622   4.962   6.657  0.1278 -0.5333 -1.3733
  159SAPE   H3S17744   3.750   5.081   6.634 -0.6104 -0.5810 -0.8251
  159SAPE   C2417745   3.767   4.947   6.807  0.8427  0.3338 -0.0127
  159SAPE   H4R17746   3.725   4.848   6.837  3.1128 -1.5215 -2.4816
  159SAPE   H4S17747   3.708   5.016   6.871 -0.0821 -0.0393 -0.4441
  159SAPE   C2517748   3.916   4.957   6.838 -0.0640  0.4460 -0.1787
  159SAPE   H5R17749   3.972   4.870   6.801 -0.5503 -0.0574  0.2707
  159SAPE   C2617750   3.982   5.049   6.914  0.3528 -0.1540 -0.4464
  159SAPE   H6R17751   4.089   5.031   6.926 -0.1931 -2.1042  2.2510
  159SAPE   C2717752   3.914   5.170   6.976  0.0525 -0.2568  0.1950
  159SAPE   H7R17753   3.805   5.183   6.954 -0.0741 -0.0739  0.8924
  159SAPE   H7S17754   3.962   5.257   6.927  2.2679  0.0051  2.6108
  159SAPE   C2817755   3.941   5.187   7.118 -0.5307 -0.6333 -0.9284
  159SAPE   H8R17756   3.974   5.104   7.183 -1.9090  0.7609  1.7347
  159SAPE   C2917757   3.902   5.288   7.193 -0.4455 -0.3993 -0.1714
  159SAPE   H9R17758   3.920   5.284   7.302  1.4904 -1.6212 -0.4856
  159SAPE  C21017759   3.832   5.409   7.134 -0.6661  0.4180 -0.3087
  159SAPE  H10R17760   3.724   5.398   7.155 -0.3598 -3.1707 -0.0057
  159SAPE  H10S17761   3.852   5.424   7.025 -1.0762 -0.5422 -0.5279
  159SAPE  C21117762   3.879   5.528   7.215 -1.0755 -0.4764  0.1798
  159SAPE  H11R17763   3.937   5.597   7.152  1.6919 -3.2529 -0.5554
  159SAPE  C21217764   3.859   5.555   7.347 -0.5486  0.4050  0.2407
  159SAPE  H12R17765   3.904   5.646   7.389 -1.2071  1.5002 -1.3209
  159SAPE  C21317766   3.783   5.468   7.437 -0.5144 -0.5892 -0.0630
  159SAPE  H13R17767   3.848   5.453   7.525  0.0802 -1.7695 -0.6773
  159SAPE  H13S17768   3.763   5.367   7.394  0.3843 -0.6374 -0.3788
  159SAPE  C21417769   3.652   5.531   7.470  0.7157  0.0434 -0.9510
  159SAPE  H14R17770   3.584   5.522   7.384 -2.5714 -2.3158  1.6496
  159SAPE  C21517771   3.610   5.587   7.592 -0.5638  0.0257  0.1501
  159SAPE  H15R17772   3.512   5.637   7.591  0.1849  1.6491 -3.1516
  159SAPE  C21617773   3.689   5.603   7.720  0.2254  0.2131 -0.1470
  159SAPE  H16R17774   3.639   5.684   7.778 -2.4070 -0.7764 -0.8574
  159SAPE  H16S17775   3.798   5.622   7.710  0.7916 -0.4652  3.5124
  159SAPE  C21717776   3.688   5.476   7.814 -0.6643  0.3932  0.3720
  159SAPE  H17R17777   3.714   5.386   7.755 -1.1084 -1.6936  3.1373
  159SAPE  H17S17778   3.588   5.454   7.858 -0.8842 -0.3247 -0.4654
  159SAPE  C21817779   3.788   5.482   7.927  0.3006 -0.4082 -0.8733
  159SAPE  H18R17780   3.887   5.513   7.888  1.4386 -1.8700  0.6868
  159SAPE  H18S17781   3.799   5.382   7.974 -1.7307 -0.5212 -0.5382
  159SAPE  C21917782   3.739   5.567   8.046  0.4263  0.6729  0.1202
  159SAPE  H19R17783   3.728   5.509   8.140  0.0369 -0.2973 -0.5139
  159SAPE  H19S17784   3.631   5.589   8.029 -0.0455 -0.4953  1.4335
  159SAPE  C22017785   3.807   5.693   8.073 -0.5021 -0.4801  0.6555
  159SAPE  H20R17786   3.740   5.780   8.091  0.2273  0.3736 -0.5889
  159SAPE  H20S17787   3.858   5.735   7.984 -1.3966  0.2851  0.4866
  159SAPE  H20T17788   3.871   5.692   8.163  1.1836 -0.1194 -0.5004
  159SAPE   C3317789   3.925   4.674   7.071 -0.3344 -0.2122 -0.2324
  159SAPE   H3X17790   3.905   4.780   7.043  2.9331  1.0407  1.6086
  159SAPE   H3Y17791   4.034   4.661   7.054  0.2281  1.5877  1.5953
  159SAPE   C3417792   3.895   4.655   7.218  0.3706  0.9021  0.5655
  159SAPE   H4X17793   3.890   4.545   7.234 -2.1434  1.0085  0.7953
  159SAPE   H4Y17794   3.792   4.691   7.234 -0.0158  0.0601  0.0440
  159SAPE   C3517795   3.984   4.729   7.312  0.8033  0.2913 -0.4617
  159SAPE   H5X17796   3.971   4.838   7.294 -1.3868 -0.0081 -0.9995
  159SAPE   H5Y17797   4.090   4.712   7.281  0.5336 -0.2612 -1.1217
  159SAPE   C3617798   3.973   4.670   7.454 -0.1053  0.3010  0.2178
  159SAPE   H6X17799   4.003   4.564   7.443 -1.2244 -0.0274  0.2220
  159SAPE   H6Y17800   3.868   4.668   7.488 -0.1170  0.0180  0.1661
  159SAPE   C3717801   4.060   4.733   7.561  0.5498 -0.1990  0.0585
  159SAPE   H7X17802   4.038   4.839   7.586  0.7560 -0.7209  2.7240
  159SAPE   H7Y17803   4.161   4.731   7.516  0.3557  0.1146 -0.3933
  159SAPE   C3817804   4.073   4.641   7.681 -0.1047 -0.4536 -0.0213
  159SAPE   H8X17805   4.099   4.536   7.655  1.0058 -0.1579 -0.1262
  159SAPE   H8Y17806   3.975   4.633   7.733 -0.6033  0.2773 -0.8257
  159SAPE   C3917807   4.175   4.696   7.782 -0.3145 -0.7006  0.3040
  159SAPE   H9X17808   4.154   4.803   7.805  2.7680  0.2581 -0.8085
  159SAPE   H9Y17809   4.273   4.714   7.732  0.4920 -1.4963  1.5465
  159SAPE  C31017810   4.186   4.629   7.923 -0.3412 -0.3010  0.0562
  159SAPE  H10X17811   4.209   4.521   7.908 -1.0866 -0.3206 -1.0348
  159SAPE  H10Y17812   4.086   4.644   7.969 -0.7247  0.7696 -1.0524
  159SAPE  C31117813   4.306   4.691   8.006 -0.4308 -0.0236 -0.4807
  159SAPE  H11X17814   4.285   4.796   8.035 -1.2314 -1.3126  4.3429
  159SAPE  H11Y17815   4.394   4.688   7.938 -0.1082  1.1914 -0.1473
  159SAPE  C31217816   4.325   4.611   8.136  0.3809  0.0803 -0.0815
  159SAPE  H12X17817   4.409   4.660   8.190  0.0185  0.1198  0.4603
  159SAPE  H12Y17818   4.354   4.506   8.111 -0.8253  0.1385 -1.8466
  159SAPE  C31317819   4.206   4.619   8.233 -0.5476 -0.4713  0.5276
  159SAPE  H13X17820   4.243   4.555   8.315 -2.3635 -0.4624  1.3946
  159SAPE  H13Y17821   4.110   4.600   8.180 -1.5479  0.0106  2.0918
  159SAPE  C31417822   4.194   4.766   8.292  0.3714  1.7023 -0.4182
  159SAPE  H14X17823   4.168   4.836   8.210 -1.2762  1.0449 -0.5153
  159SAPE  H14Y17824   4.299   4.785   8.321  0.6883  1.4567 -1.3636
  159SAPE  C31517825   4.098   4.771   8.413  0.3501 -0.0930  0.1037
  159SAPE  H15X17826   4.108   4.865   8.471  0.9348 -0.0828 -0.0088
  159SAPE  H15Y17827   4.120   4.688   8.483  3.0316  1.0495  0.7169
  159SAPE  C31617828   3.948   4.756   8.374 -0.0808 -0.1123  0.4559
  159SAPE  H16X17829   3.944   4.656   8.324  0.5529  1.3871 -2.8754
  159SAPE  H16Y17830   3.934   4.834   8.296  3.0386 -0.7874 -0.9309
  159SAPE  C31717831   3.850   4.768   8.491 -0.3869 -0.1015  0.3044
  159SAPE  H17X17832   3.791   4.862   8.480  1.9593  1.1561 -3.3405
  159SAPE  H17Y17833   3.905   4.777   8.587 -0.5214 -1.7203  0.5615
  159SAPE  C31817834   3.766   4.641   8.500 -0.3179 -0.3076 -0.0904
  159SAPE  H18X17835   3.689   4.637   8.420 -1.4285 -3.3167  0.9557
  159SAPE  H18Y17836   3.732   4.615   8.602  1.2929  1.1292  0.8481
  159SAPE  H18Z17837   3.845   4.564   8.486  0.2498  0.5106 -1.6434
  160SAPE     N17838   3.669   4.186   6.196 -1.1419 -0.3198  0.3517
  160SAPE   HN117839   3.736   4.253   6.152  2.2573 -0.2268  4.8820
  160SAPE   HN217840   3.596   4.248   6.237 -1.2354  0.2048 -0.5873
  160SAPE   HN317841   3.730   4.138   6.265 -1.9135  0.6843  1.7849
  160SAPE   C1217842   3.612   4.089   6.102 -0.3683 -0.6856  0.0283
  160SAPE  H12A17843   3.699   4.029   6.066  1.4905  1.9591 -0.1631
  160SAPE  H12B17844   3.576   4.144   6.013 -0.4232 -0.6225  0.0899
  160SAPE   C1117845   3.500   4.005   6.161  1.1775  0.6249 -0.1493
  160SAPE  H11A17846   3.485   3.919   6.092  1.9454 -0.6312  1.1843
  160SAPE  H11B17847   3.406   4.064   6.158  1.0498  0.3837 -1.4344
  160SAPE     P17848   3.414   3.887   6.379  0.1513  0.3099  0.3826
  160SAPE   O1317849   3.289   3.898   6.300  0.2112  0.0519  0.1560
  160SAPE   O1417850   3.456   3.753   6.426  0.0329  0.3428 -0.0946
  160SAPE   O1217851   3.531   3.946   6.291 -0.2833 -0.3727  0.4872
  160SAPE   O1117852   3.409   3.991   6.501  0.3166  0.0808  0.3203
  160SAPE    C117853   3.517   4.068   6.545  0.2887  0.6863 -0.1818
  160SAPE    HA17854   3.610   4.007   6.547 -1.2937 -1.8655  0.8557
  160SAPE    HB17855   3.522   4.150   6.470  1.6761  2.8575  2.0969
  160SAPE    C217856   3.486   4.109   6.691 -0.2293  1.1778 -0.3774
  160SAPE    HS17857   3.569   4.176   6.721  1.4276 -0.9089 -0.0993
  160SAPE   O2117858   3.493   3.995   6.784  0.1909 -0.5328  0.2974
  160SAPE   C2117859   3.523   4.028   6.909 -0.1523 -0.1967  0.5799
  160SAPE   O2217860   3.534   4.145   6.945  0.5244  0.5170 -0.3957
  160SAPE   C2217861   3.537   3.902   6.994  0.0231  0.1017 -0.5270
  160SAPE   H2R17862   3.540   3.818   6.922  0.6414  1.1353 -1.7331
  160SAPE   H2S17863   3.632   3.905   7.051  0.5204 -0.9276 -1.2842
  160SAPE    C317864   3.352   4.188   6.687  0.1570 -0.2618 -0.7671
  160SAPE    HX17865   3.271   4.117   6.658  0.5819 -0.5356 -1.2971
  160SAPE    HY17866   3.363   4.267   6.610 -1.2527  1.1742  0.4492
  160SAPE   O3117867   3.320   4.255   6.809  0.5162 -0.1915  0.6637
  160SAPE   C3117868   3.366   4.378   6.835  0.1179  0.3023  0.6997
  160SAPE   O3217869   3.407   4.457   6.750  0.3061  0.1108  0.8012
  160SAPE   C3217870   3.319   4.422   6.975 -0.0944 -0.5077 -0.5282
  160SAPE   H2X17871   3.351   4.340   7.043 -2.5316 -2.6903 -1.7999
  160SAPE   H2Y17872   3.208   4.424   6.976 -0.1378  0.8487  2.5434
  160SAPE   C2317873   3.413   3.888   7.088  0.1471  0.4482  1.0707
  160SAPE   H3R17874   3.414   3.783   7.125 -0.4735 -0.7034 -1.8552
  160SAPE   H3S17875   3.324   3.911   7.025  1.8423  0.4417 -1.4957
  160SAPE   C2417876   3.400   3.985   7.202 -0.2329 -0.0465 -0.1605
  160SAPE   H4R17877   3.310   3.953   7.259 -0.8567  1.4750 -0.2423
  160SAPE   H4S17878   3.381   4.088   7.166  1.7318  0.1136 -0.8793
  160SAPE   C2517879   3.531   3.992   7.279  0.0328  0.7239  0.7845
  160SAPE   H5R17880   3.592   4.069   7.231 -0.8384 -0.2006 -2.0204
  160SAPE   C2617881   3.572   3.908   7.377 -0.1117  0.1459  0.0034
  160SAPE   H6R17882   3.673   3.925   7.419 -0.1922 -0.5726  0.5025
  160SAPE   C2717883   3.501   3.787   7.434 -0.1728 -0.2736 -0.1262
  160SAPE   H7R17884   3.516   3.708   7.357 -0.7513  0.0228 -0.5560
  160SAPE   H7S17885   3.394   3.819   7.429  0.1370  0.5892 -1.7660
  160SAPE   C2817886   3.546   3.740   7.570  0.6311 -0.0140  0.3378
  160SAPE   H8R17887   3.649   3.703   7.565  0.8834  0.1076  2.9492
  160SAPE   C2917888   3.472   3.732   7.688 -0.2646 -0.5279  0.2153
  160SAPE   H9R17889   3.530   3.690   7.772  0.2133  1.5191  0.9804
  160SAPE  C21017890   3.328   3.772   7.716  0.0488 -0.4255  0.0094
  160SAPE  H10R17891   3.272   3.695   7.773 -1.1082 -0.9367 -1.7332
  160SAPE  H10S17892   3.269   3.775   7.621 -0.2158  2.6610  0.1830
  160SAPE  C21117893   3.325   3.909   7.785  0.3320 -0.0625 -0.1118
  160SAPE  H11R17894   3.313   3.989   7.710  2.4039 -0.5730 -1.0799
  160SAPE  C21217895   3.339   3.932   7.921  0.2250  0.1656  0.1759
  160SAPE  H12R17896   3.341   4.030   7.969  1.3552 -0.3342  1.2056
  160SAPE  C21317897   3.355   3.819   8.022  0.8101 -0.0104 -0.6537
  160SAPE  H13R17898   3.444   3.833   8.086  0.2081 -0.4540  0.3109
  160SAPE  H13S17899   3.348   3.723   7.967 -4.3317 -1.4203  1.8243
  160SAPE  C21417900   3.229   3.797   8.103  0.2496  0.0230  0.1948
  160SAPE  H14R17901   3.158   3.718   8.072  1.3418 -1.1635  0.6345
  160SAPE  C21517902   3.206   3.874   8.214  0.6112 -1.2315  0.1161
  160SAPE  H15R17903   3.131   3.842   8.287  1.1832 -3.4463 -0.1765
  160SAPE  C21617904   3.295   3.983   8.258  0.1867 -0.1885  0.2065
  160SAPE  H16R17905   3.257   4.075   8.209 -0.1619 -0.5752 -0.2506
  160SAPE  H16S17906   3.404   3.973   8.238  0.3325 -0.7768  1.2129
  160SAPE  C21717907   3.274   4.017   8.411 -0.4793  0.3697  0.6815
  160SAPE  H17R17908   3.322   3.931   8.462  0.0651 -1.4654 -2.6851
  160SAPE  H17S17909   3.166   4.000   8.431 -0.1723 -5.3932 -0.8833
  160SAPE  C21817910   3.338   4.140   8.445  0.4529  0.5792 -0.0941
  160SAPE  H18R17911   3.285   4.229   8.405 -0.5931 -1.4497 -3.5949
  160SAPE  H18S17912   3.443   4.153   8.411  0.4027  2.3065  0.3207
  160SAPE  C21917913   3.337   4.156   8.600  0.2101  0.0185 -0.0373
  160SAPE  H19R17914   3.374   4.063   8.649 -0.9832 -0.9664 -0.9292
  160SAPE  H19S17915   3.230   4.163   8.629  0.0065  0.1509 -0.8014
  160SAPE  C22017916   3.410   4.284   8.649  0.2228 -0.0971  0.0323
  160SAPE  H20R17917   3.516   4.278   8.614  0.5031 -1.5600  1.0379
  160SAPE  H20S17918   3.408   4.287   8.760  0.8479 -0.2245  0.0546
  160SAPE  H20T17919   3.357   4.372   8.607 -0.1336 -0.3420 -0.0350
  160SAPE   C3317920   3.378   4.560   7.019 -0.0131 -0.0894  0.4975
  160SAPE   H3X17921   3.348   4.636   6.944  1.9957 -0.7152 -1.0468
  160SAPE   H3Y17922   3.488   4.568   7.032  0.0158  1.6452 -0.5599
  160SAPE   C3417923   3.315   4.605   7.154 -0.5835 -0.7991 -0.0036
  160SAPE   H4X17924   3.207   4.591   7.131 -0.2819  0.2532 -2.3331
  160SAPE   H4Y17925   3.331   4.714   7.169  0.8299 -1.1536  1.2687
  160SAPE   C3517926   3.373   4.537   7.280 -0.1460  0.0261  0.6683
  160SAPE   H5X17927   3.478   4.571   7.290 -0.2282  0.7932 -0.7217
  160SAPE   H5Y17928   3.363   4.430   7.253 -0.0445  0.3983 -0.9651
  160SAPE   C3617929   3.285   4.569   7.402 -0.6451 -0.1481 -0.2509
  160SAPE   H6X17930   3.208   4.490   7.415 -0.7891  0.0811  0.3142
  160SAPE   H6Y17931   3.241   4.671   7.399  0.7686  0.4701 -1.3026
  160SAPE   C3717932   3.386   4.569   7.515  0.5238 -0.1110 -0.0760
  160SAPE   H7X17933   3.446   4.662   7.518  0.3327  0.0015  0.4006
  160SAPE   H7Y17934   3.456   4.484   7.501 -1.4446 -1.6657 -0.9365
  160SAPE   C3817935   3.300   4.558   7.649 -0.3335 -0.0054 -0.0307
  160SAPE   H8X17936   3.240   4.464   7.653 -1.4589  0.6917 -0.1803
  160SAPE   H8Y17937   3.228   4.642   7.656 -0.7564 -0.1154 -2.3384
  160SAPE   C3917938   3.380   4.561   7.784  0.4082  0.0057  0.0927
  160SAPE   H9X17939   3.433   4.658   7.793  2.2910 -0.8301 -1.2798
  160SAPE   H9Y17940   3.468   4.493   7.786  0.7096  0.3142 -1.2180
  160SAPE  C31017941   3.281   4.543   7.900  0.1094 -0.2406  0.4160
  160SAPE  H10X17942   3.241   4.440   7.896  0.2558 -0.2875  0.1702
  160SAPE  H10Y17943   3.194   4.612   7.903  1.3174  1.3253  0.5965
  160SAPE  C31117944   3.347   4.561   8.035 -1.1142  0.2553  0.5617
  160SAPE  H11X17945   3.388   4.664   8.042  1.9855 -0.9948  3.2647
  160SAPE  H11Y17946   3.438   4.499   8.021 -0.7087  0.4405  2.2607
  160SAPE  C31217947   3.259   4.518   8.148 -0.5722 -0.1892 -0.6103
  160SAPE  H12X17948   3.209   4.421   8.128 -1.2032  0.0095 -0.0397
  160SAPE  H12Y17949   3.172   4.587   8.146 -1.9396 -1.8155  0.0960
  160SAPE  C31317950   3.312   4.516   8.286  0.4492 -0.4579 -0.3119
  160SAPE  H13X17951   3.368   4.422   8.308  1.9278  0.6423  0.8184
  160SAPE  H13Y17952   3.221   4.513   8.350  0.8357 -0.9644  0.2342
  160SAPE  C31417953   3.393   4.644   8.331  0.2900  0.7489  0.4054
  160SAPE  H14X17954   3.460   4.658   8.243 -0.6108 -3.6429 -1.2434
  160SAPE  H14Y17955   3.456   4.628   8.421  0.8946 -1.0190 -0.2759
  160SAPE  C31517956   3.301   4.767   8.353  0.4701 -0.2801  0.2049
  160SAPE  H15X17957   3.225   4.757   8.273  1.2502 -2.5421 -0.3177
  160SAPE  H15Y17958   3.360   4.860   8.340  0.8820 -0.7707 -1.8057
  160SAPE  C31617959   3.216   4.786   8.480 -0.1238 -0.1791 -0.4074
  160SAPE  H16X17960   3.274   4.833   8.562  0.2411  0.4351 -1.0049
  160SAPE  H16Y17961   3.195   4.683   8.516  0.6412  0.4197  1.9114
  160SAPE  C31717962   3.097   4.885   8.453  0.4806  0.6954  0.0549
  160SAPE  H17X17963   3.044   4.890   8.550 -0.3505 -1.9112 -0.1681
  160SAPE  H17Y17964   3.020   4.847   8.382  1.4439 -0.3601 -0.4652
  160SAPE  C31817965   3.136   5.026   8.420 -0.3601 -1.3059  0.0886
  160SAPE  H18X17966   3.215   5.077   8.478 -0.2977  0.4282 -1.4353
  160SAPE  H18Y17967   3.055   5.101   8.435  0.5433 -0.6667  2.0889
  160SAPE  H18Z17968   3.168   5.025   8.314 -0.0693 -0.9200  0.1705
  161SOPE     N17969   0.139   5.867  10.812 -0.4411 -0.3455  0.1397
  161SOPE   HN117970   0.123   5.940  10.740  1.1320  0.0490  0.1642
  161SOPE   HN217971   0.178   5.904  10.901 -1.9596 -0.0217  0.7052
  161SOPE   HN317972   0.213   5.805  10.774 -0.2966  0.6747 -1.3304
  161SOPE   C1217973   0.029   5.771  10.840  0.1032 -0.1932 -0.5749
  161SOPE  H12A17974  -0.048   5.836  10.887  0.6419  0.2725 -0.3259
  161SOPE  H12B17975   0.070   5.710  10.923 -0.3902  1.9303  1.3439
  161SOPE   C1117976  -0.018   5.706  10.714  0.2141  0.3959 -0.5149
  161SOPE  H11A17977  -0.057   5.781  10.641  0.7956  0.1888 -1.0507
  161SOPE  H11B17978  -0.101   5.634  10.734  0.2391  0.2151 -1.0454
  161SOPE     P17979   0.118   5.483  10.679 -0.1032 -0.1378 -0.5439
  161SOPE   O1317980   0.128   5.444  10.822 -0.4291  0.5857 -0.1834
  161SOPE   O1417981   0.232   5.437  10.594  0.3466 -0.2990 -0.5235
  161SOPE   O1217982   0.098   5.641  10.660 -0.0796 -0.4861 -0.1697
  161SOPE   O1117983  -0.011   5.427  10.612  0.6646  0.0198 -0.2851
  161SOPE    C117984  -0.026   5.288  10.589  0.4704 -0.1038 -0.2830
  161SOPE    HA17985  -0.113   5.252  10.648  1.7615  0.2918  1.9783
  161SOPE    HB17986   0.054   5.217  10.619 -0.5413 -1.0573  0.2179
  161SOPE    C217987  -0.052   5.255  10.446 -0.3485  0.0294  0.0319
  161SOPE    HS17988  -0.067   5.146  10.433  0.2645 -0.3117  1.8823
  161SOPE   O2117989   0.053   5.303  10.360 -1.0840 -0.4578 -0.8322
  161SOPE   C2117990   0.163   5.229  10.360  0.1888  0.5218 -0.2868
  161SOPE   O2217991   0.178   5.124  10.425  0.4826 -0.0457 -0.0131
  161SOPE   C2217992   0.267   5.297  10.275 -0.0947 -0.5728  0.9736
  161SOPE   H2R17993   0.304   5.388  10.327 -0.2367  0.1530 -0.1480
  161SOPE   H2S17994   0.214   5.322  10.180 -0.3895  0.1777  1.3232
  161SOPE    C317995  -0.186   5.318  10.400  0.5943 -0.2040 -0.2727
  161SOPE    HX17996  -0.175   5.428  10.400 -2.4324  0.2178  0.7493
  161SOPE    HY17997  -0.278   5.291  10.456 -2.0665  0.9801 -3.6789
  161SOPE   O3117998  -0.215   5.284  10.262  0.1176  0.1595  0.0625
  161SOPE   C3117999  -0.300   5.357  10.193 -0.1297  0.1234 -0.2750
  161SOPE   O3218000  -0.375   5.442  10.236 -1.3505  0.3740 -0.9807
  161SOPE   C3218001  -0.292   5.311  10.051 -0.3383  0.1251  0.4896
  161SOPE   H2X18002  -0.317   5.203  10.047  0.9436 -0.2229  1.2994
  161SOPE   H2Y18003  -0.191   5.340  10.013 -1.1050 -0.4644 -2.1542
  161SOPE   C2318004   0.385   5.193  10.244  0.5380  0.0559 -0.5589
  161SOPE   H3R18005   0.428   5.157  10.340 -0.6165 -2.5316 -0.9217
  161SOPE   H3S18006   0.469   5.258  10.212  0.8144 -0.1237 -0.1994
  161SOPE   C2418007   0.350   5.076  10.154 -0.2844  0.0581 -1.0319
  161SOPE   H4R18008   0.434   5.004  10.156 -0.1008  0.2568 -1.3521
  161SOPE   H4S18009   0.262   5.020  10.193  0.4012 -0.6734 -0.5149
  161SOPE   C2518010   0.333   5.121  10.009  0.3482  0.8319 -0.3278
  161SOPE   H5R18011   0.231   5.166  10.003  0.1228  0.3885  0.1728
  161SOPE   H5S18012   0.412   5.198   9.992  2.3245 -0.1835  3.2254
  161SOPE   C2618013   0.363   5.011   9.910 -0.3051 -0.6598 -0.2329
  161SOPE   H6R18014   0.465   4.970   9.928 -0.4315 -1.1972 -0.6996
  161SOPE   H6S18015   0.284   4.933   9.913  0.4093 -1.5203 -1.8801
  161SOPE   C2718016   0.354   5.067   9.766 -0.1184  0.1695  1.0970
  161SOPE   H7R18017   0.247   5.072   9.736  0.2219 -1.3630 -0.5244
  161SOPE   H7S18018   0.405   5.165   9.757 -1.1727  0.7314  1.0093
  161SOPE   C2818019   0.436   4.984   9.671  0.6582 -0.1241  0.1122
  161SOPE   H8R18020   0.543   5.000   9.697  0.6145 -0.8111  0.7253
  161SOPE   H8S18021   0.409   4.878   9.690 -1.2291  0.3703  0.3980
  161SOPE   C2918022   0.416   5.022   9.525  0.2069 -0.0305 -0.6091
  161SOPE   H9118023   0.311   5.041   9.500  0.1807  1.5687  0.6107
  161SOPE  C21018024   0.501   5.008   9.426  0.0921  0.6215 -0.9926
  161SOPE  H10118025   0.481   5.036   9.321  0.3677 -1.0968 -1.5397
  161SOPE  C21118026   0.640   4.951   9.441 -0.2126  0.3281  0.6979
  161SOPE  H11R18027   0.652   4.887   9.351 -0.4244  2.3065 -0.7952
  161SOPE  H11S18028   0.654   4.896   9.537  1.2748 -1.5597 -0.5080
  161SOPE  C21218029   0.733   5.074   9.436 -0.3311  1.0518 -0.4913
  161SOPE  H12R18030   0.837   5.035   9.439 -1.1776 -1.3274  1.8908
  161SOPE  H12S18031   0.711   5.131   9.528 -0.8740  0.2266 -0.0984
  161SOPE  C21318032   0.720   5.150   9.298  0.4063  0.3067  0.0522
  161SOPE  H13R18033   0.628   5.210   9.283  1.3707  2.0008  0.5756
  161SOPE  H13S18034   0.720   5.063   9.229 -3.3434 -0.3359  0.6415
  161SOPE  C21418035   0.852   5.228   9.271  0.1383 -0.6117 -0.0596
  161SOPE  H14R18036   0.936   5.156   9.260  0.1743 -0.2028 -3.5223
  161SOPE  H14S18037   0.862   5.293   9.361 -1.1254  0.9656 -1.0135
  161SOPE  C21518038   0.860   5.316   9.149  0.3447  0.2400  0.2141
  161SOPE  H15R18039   0.955   5.371   9.165  0.5859 -0.6470  2.0264
  161SOPE  H15S18040   0.785   5.398   9.157  0.1967  0.1870 -0.5921
  161SOPE  C21618041   0.848   5.239   9.024  0.1384 -0.3829  0.1308
  161SOPE  H16R18042   0.746   5.197   9.016 -0.1728 -0.0724  2.0800
  161SOPE  H16S18043   0.922   5.156   9.018 -0.1870 -0.7027  0.4654
  161SOPE  C21718044   0.862   5.331   8.902 -0.3395 -0.3616 -0.5819
  161SOPE  H17R18045   0.777   5.400   8.888 -0.0600  0.2195  0.4812
  161SOPE  H17S18046   0.857   5.257   8.819  0.5076 -1.3082  0.1720
  161SOPE  C21818047   1.000   5.403   8.881  0.6656  0.3789  0.7735
  161SOPE  H18R18048   1.076   5.325   8.899  2.6490  1.5000 -2.1160
  161SOPE  H18S18049   1.022   5.480   8.958  3.3757  1.2007 -0.6986
  161SOPE  H18T18050   1.013   5.446   8.780  0.9105 -1.9478 -0.2555
  161SOPE   C3318051  -0.402   5.386   9.964 -0.0124  0.4223 -1.9062
  161SOPE   H3X18052  -0.411   5.495   9.981 -0.7391  0.1895 -0.6313
  161SOPE   H3Y18053  -0.505   5.358   9.995  0.8186  0.7634  1.6098
  161SOPE   C3418054  -0.375   5.369   9.818  0.4650 -0.1688  0.0478
  161SOPE   H4X18055  -0.354   5.262   9.799  2.2394  0.4561 -1.9218
  161SOPE   H4Y18056  -0.278   5.422   9.804 -0.1216  1.2369  1.0219
  161SOPE   C3518057  -0.474   5.417   9.716 -0.2737 -0.2224  0.4429
  161SOPE   H5X18058  -0.501   5.522   9.741  0.7622 -0.1562  1.3841
  161SOPE   H5Y18059  -0.563   5.353   9.734  1.3933 -2.0510  2.8006
  161SOPE   C3618060  -0.416   5.399   9.573 -0.2468  0.3317  1.0116
  161SOPE   H6X18061  -0.370   5.300   9.554 -3.0602 -0.4949 -2.4478
  161SOPE   H6Y18062  -0.339   5.479   9.565 -0.5927  0.4675 -1.9929
  161SOPE   C3718063  -0.515   5.442   9.460 -0.2673 -0.8706  0.0537
  161SOPE   H7X18064  -0.556   5.541   9.487 -1.9024 -1.0421 -1.6146
  161SOPE   H7Y18065  -0.599   5.369   9.465  1.3753 -2.9022 -0.5993
  161SOPE   C3818066  -0.464   5.443   9.320 -0.5183 -0.0509 -0.1585
  161SOPE   H8X18067  -0.414   5.346   9.297  0.6326  0.5415 -0.2479
  161SOPE   H8Y18068  -0.380   5.513   9.300  0.9847 -2.1085 -1.4516
  161SOPE   C3918069  -0.572   5.463   9.213 -0.7086  0.2944  0.0848
  161SOPE   H9X18070  -0.594   5.570   9.195  0.6057  0.6392  0.3910
  161SOPE   H9Y18071  -0.670   5.419   9.241 -0.9191  0.8176  0.1947
  161SOPE  C31018072  -0.520   5.410   9.079  0.1378 -0.7982  0.3403
  161SOPE  H10X18073  -0.458   5.319   9.090 -0.2983 -1.0151  1.0664
  161SOPE  H10Y18074  -0.444   5.481   9.040  0.6044 -1.3231  0.2825
  161SOPE  C31118075  -0.637   5.397   8.980  0.0742 -0.0072  0.4103
  161SOPE  H11X18076  -0.719   5.468   9.006  0.6522 -0.0873  2.6560
  161SOPE  H11Y18077  -0.687   5.298   8.989 -1.7917  0.7124 -1.3382
  161SOPE  C31218078  -0.603   5.401   8.836  0.7203  0.2388 -0.1004
  161SOPE  H12X18079  -0.522   5.325   8.822  1.7642  0.9082  1.8961
  161SOPE  H12Y18080  -0.555   5.494   8.800  0.9849  0.4878  0.8651
  161SOPE  C31318081  -0.715   5.348   8.746  0.3868  0.1991  0.4948
  161SOPE  H13X18082  -0.810   5.403   8.764  1.7129  3.0408 -0.6196
  161SOPE  H13Y18083  -0.732   5.239   8.758 -3.2068  0.4854 -0.8040
  161SOPE  C31418084  -0.688   5.359   8.601 -0.2899  0.8577  0.4546
  161SOPE  H14X18085  -0.752   5.286   8.547 -0.7269  2.2044 -0.9345
  161SOPE  H14Y18086  -0.586   5.340   8.560 -0.5941  0.0750  0.0343
  161SOPE  C31518087  -0.739   5.498   8.554  0.9330  0.3083 -0.3987
  161SOPE  H15X18088  -0.692   5.573   8.621 -1.2947 -1.2073  3.1770
  161SOPE  H15Y18089  -0.847   5.520   8.564  0.4417 -1.5782 -1.0707
  161SOPE  C31618090  -0.700   5.523   8.403  0.2765 -0.4226  0.3388
  161SOPE  H16X18091  -0.594   5.493   8.397  0.8589  0.3933  3.9409
  161SOPE  H16Y18092  -0.708   5.634   8.394 -0.4054 -0.5955 -1.5761
  161SOPE  C31718093  -0.786   5.452   8.300 -0.0379 -0.5399  0.4061
  161SOPE  H17X18094  -0.778   5.342   8.312 -1.7123 -0.8968 -1.2804
  161SOPE  H17Y18095  -0.746   5.468   8.197 -1.5998 -1.1362 -0.3261
  161SOPE  C31818096  -0.933   5.503   8.307 -0.6031 -0.1761 -0.1804
  161SOPE  H18X18097  -0.945   5.613   8.305  1.6914  0.1092 -0.7205
  161SOPE  H18Y18098  -0.975   5.447   8.393 -1.0672 -1.2500 -1.0726
  161SOPE  H18Z18099  -0.999   5.466   8.225 -0.3821  2.5261 -1.7034
  162SOPE     N18100   5.633   6.017  11.248 -0.3043  0.1207  0.4886
  162SOPE   HN118101   5.602   5.931  11.200  0.2544  1.8213 -3.3046
  162SOPE   HN218102   5.735   6.023  11.267 -0.3278  2.3680  0.1862
  162SOPE   HN318103   5.589   6.018  11.343 -0.0753 -0.6606  0.6092
  162SOPE   C1218104   5.603   6.146  11.170 -0.1442 -0.0628 -0.2453
  162SOPE  H12A18105   5.655   6.227  11.224 -2.7155  0.7391  1.2085
  162SOPE  H12B18106   5.493   6.163  11.176 -0.0145  0.8057 -0.2085
  162SOPE   C1118107   5.651   6.134  11.020  0.2761 -0.4638  0.0041
  162SOPE  H11A18108   5.610   6.225  10.973 -0.2638 -0.6575  0.0999
  162SOPE  H11B18109   5.600   6.046  10.976 -0.4353 -1.0237  1.8297
  162SOPE     P18110   5.880   6.254  10.975 -0.1039 -0.0486 -0.6468
  162SOPE   O1318111   6.027   6.225  10.971  0.6430  0.8376 -0.5656
  162SOPE   O1418112   5.830   6.357  11.072  0.4814  0.7134 -0.2941
  162SOPE   O1218113   5.798   6.125  11.002 -0.3400 -0.2286  0.1502
  162SOPE   O1118114   5.832   6.290  10.836  0.7485  0.6422 -0.1291
  162SOPE    C118115   5.796   6.183  10.744 -0.2855 -0.2109 -0.4106
  162SOPE    HA18116   5.692   6.153  10.766 -1.4323  2.7962 -1.1594
  162SOPE    HB18117   5.864   6.096  10.754 -0.3257 -0.0937  1.1417
  162SOPE    C218118   5.802   6.230  10.599  0.6737  0.0501  0.5499
  162SOPE    HS18119   5.910   6.239  10.574  0.6463 -0.9783  0.0033
  162SOPE   O2118120   5.723   6.348  10.580  0.5528  0.1333  0.5028
  162SOPE   C2118121   5.743   6.424  10.475  0.2964  0.6102  0.6426
  162SOPE   O2218122   5.835   6.415  10.396 -0.4407 -0.1344 -0.1474
  162SOPE   C2218123   5.636   6.533  10.468  0.1357  0.4711 -0.0705
  162SOPE   H2R18124   5.679   6.631  10.441 -2.9738  1.8330 -0.4235
  162SOPE   H2S18125   5.607   6.567  10.570  0.9786  1.3500 -0.1031
  162SOPE    C318126   5.744   6.117  10.507 -0.5049  0.1188 -0.4245
  162SOPE    HX18127   5.634   6.107  10.516 -0.4372  0.3306  0.6990
  162SOPE    HY18128   5.784   6.024  10.552 -2.0656 -1.9946 -3.0435
  162SOPE   O3118129   5.772   6.141  10.373 -0.0406 -0.0250  0.4009
  162SOPE   C3118130   5.890   6.119  10.325  0.5321  0.3224 -0.2187
  162SOPE   O3218131   5.991   6.075  10.383 -0.4166 -0.4184 -0.0477
  162SOPE   C3218132   5.880   6.154  10.172 -0.4718 -0.5710  0.0919
  162SOPE   H2X18133   5.928   6.254  10.173  0.0921 -0.7651 -2.2341
  162SOPE   H2Y18134   5.781   6.191  10.137 -0.1496 -0.6290 -0.8851
  162SOPE   C2318135   5.515   6.478  10.389  0.9150 -0.0350  0.4723
  162SOPE   H3R18136   5.437   6.557  10.391  1.2636  0.5027 -2.3709
  162SOPE   H3S18137   5.463   6.391  10.434 -2.0691  1.4009  0.0664
  162SOPE   C2418138   5.544   6.462  10.242  0.5389  0.2530  0.4078
  162SOPE   H4R18139   5.605   6.370  10.228  0.5001  0.5055 -1.7473
  162SOPE   H4S18140   5.447   6.438  10.194  1.1229 -0.8477 -0.2432
  162SOPE   C2518141   5.612   6.573  10.157 -0.0268 -0.0721 -0.4433
  162SOPE   H5R18142   5.573   6.673  10.184 -3.6598 -0.7706 -2.4362
  162SOPE   H5S18143   5.720   6.577  10.182  0.1534  1.5298 -1.3511
  162SOPE   C2618144   5.578   6.552  10.013 -0.1350 -0.2054  0.3579
  162SOPE   H6R18145   5.475   6.514   9.996  0.2830 -2.2569  2.0650
  162SOPE   H6S18146   5.600   6.647   9.960  1.2288 -0.5637  0.2374
  162SOPE   C2718147   5.670   6.443   9.950  0.2534  0.1041  0.2928
  162SOPE   H7R18148   5.777   6.471   9.958  0.5008  0.2882 -2.7002
  162SOPE   H7S18149   5.663   6.347  10.006  0.7501  0.7889  1.5702
  162SOPE   C2818150   5.621   6.418   9.809  0.8064 -0.0744  0.3426
  162SOPE   H8R18151   5.643   6.318   9.766 -1.7322 -0.5930  0.0527
  162SOPE   H8S18152   5.509   6.419   9.808  0.7528 -0.8235 -2.2870
  162SOPE   C2918153   5.665   6.535   9.729 -0.2338 -0.3581  0.2671
  162SOPE   H9118154   5.621   6.629   9.763  1.3238  1.2765 -1.9349
  162SOPE  C21018155   5.752   6.537   9.626  0.0277 -0.5894 -0.0530
  162SOPE  H10118156   5.779   6.633   9.580  1.6569 -1.6263 -1.3722
  162SOPE  C21118157   5.825   6.428   9.561 -0.4193  0.3073 -1.5153
  162SOPE  H11R18158   5.782   6.333   9.599 -0.9930  1.1831  0.1198
  162SOPE  H11S18159   5.930   6.424   9.597 -1.2936  0.4230  1.1930
  162SOPE  C21218160   5.841   6.429   9.401  0.2296  0.4126 -0.7463
  162SOPE  H12R18161   5.882   6.330   9.370  2.8967  0.0975  3.0032
  162SOPE  H12S18162   5.913   6.511   9.379 -1.1360  1.8274 -0.0582
  162SOPE  C21318163   5.712   6.458   9.319 -0.4369  0.1870 -0.8758
  162SOPE  H13R18164   5.682   6.559   9.357  2.3153  1.5203 -1.9871
  162SOPE  H13S18165   5.637   6.379   9.341 -0.3009  0.3339  0.1894
  162SOPE  C21418166   5.739   6.467   9.169 -0.8140  0.2304 -0.7199
  162SOPE  H14R18167   5.844   6.488   9.141 -0.8846  1.1640 -0.3579
  162SOPE  H14S18168   5.674   6.549   9.129 -3.6164 -0.5350  1.8596
  162SOPE  C21518169   5.681   6.349   9.093  0.6620  0.1958  0.4717
  162SOPE  H15R18170   5.572   6.336   9.114 -0.1249  0.1679 -3.0570
  162SOPE  H15S18171   5.719   6.249   9.123  0.1339 -0.6189 -1.4266
  162SOPE  C21618172   5.697   6.351   8.938  0.0431  0.3427 -1.1218
  162SOPE  H16R18173   5.806   6.349   8.919  0.1222 -2.0795 -0.7222
  162SOPE  H16S18174   5.656   6.445   8.894  0.0340  1.4354  1.0510
  162SOPE  C21718175   5.621   6.233   8.872 -0.6248  0.6072 -0.3582
  162SOPE  H17R18176   5.513   6.230   8.899  0.1098 -0.8150  2.9613
  162SOPE  H17S18177   5.666   6.140   8.912  1.9239  0.1223 -3.8754
  162SOPE  C21818178   5.656   6.219   8.722 -0.3719 -0.3452  0.2249
  162SOPE  H18R18179   5.762   6.192   8.703 -0.0121  0.9737  0.2707
  162SOPE  H18S18180   5.630   6.319   8.682 -0.5139  0.1885  1.5938
  162SOPE  H18T18181   5.582   6.147   8.680 -1.4953  0.9698 -0.1124
  162SOPE   C3318182   5.956   6.062  10.058  0.0016 -0.3260 -0.8729
  162SOPE   H3X18183   5.889   5.976  10.037  0.8834 -0.8012 -1.8394
  162SOPE   H3Y18184   6.056   6.033  10.097  0.3435  0.2558 -1.2886
  162SOPE   C3418185   5.992   6.137   9.933  0.3084  0.1374 -0.9696
  162SOPE   H4X18186   6.067   6.215   9.957 -0.0736  0.1773  0.1933
  162SOPE   H4Y18187   5.908   6.202   9.902 -0.4617  0.0982  0.8961
  162SOPE   C3518188   6.036   6.048   9.816  0.6112 -0.3491 -0.3001
  162SOPE   H5X18189   5.967   5.961   9.819  2.3610 -1.8270 -1.0198
  162SOPE   H5Y18190   6.133   6.001   9.843  1.4662  1.5116  0.0189
  162SOPE   C3618191   6.028   6.108   9.676  0.0589  0.4979 -0.6603
  162SOPE   H6X18192   5.939   6.169   9.650  1.2429  2.3215 -0.6796
  162SOPE   H6Y18193   6.031   6.026   9.601  0.1679  0.7128 -0.8929
  162SOPE   C3718194   6.156   6.189   9.645  0.4882 -0.0604  0.3724
  162SOPE   H7X18195   6.249   6.133   9.671  0.4947 -0.5857 -0.7051
  162SOPE   H7Y18196   6.160   6.276   9.713  1.0436 -2.4913  3.7036
  162SOPE   C3818197   6.155   6.235   9.498 -0.1152 -0.1467 -0.5889
  162SOPE   H8X18198   6.065   6.295   9.473  0.2984  0.7616  0.0858
  162SOPE   H8Y18199   6.170   6.149   9.429 -0.0220 -1.6338  1.2066
  162SOPE   C3918200   6.270   6.332   9.478 -0.0006 -0.2798 -0.0341
  162SOPE   H9X18201   6.367   6.281   9.490 -0.5829 -1.0045  2.0665
  162SOPE   H9Y18202   6.266   6.414   9.553  0.5342  0.2616 -0.5881
  162SOPE  C31018203   6.270   6.410   9.340  0.0955 -0.6138  0.4003
  162SOPE  H10X18204   6.365   6.467   9.334 -0.4875  0.3002 -0.5952
  162SOPE  H10Y18205   6.193   6.489   9.351 -1.5355 -1.6910 -2.3436
  162SOPE  C31118206   6.239   6.319   9.228 -0.0647 -0.0935  0.5499
  162SOPE  H11X18207   6.129   6.304   9.227 -0.4266  2.2475 -0.3925
  162SOPE  H11Y18208   6.286   6.219   9.242  0.4556 -0.3862 -2.6521
  162SOPE  C31218209   6.275   6.375   9.086 -0.6353  0.3170 -0.3545
  162SOPE  H12X18210   6.385   6.367   9.081 -0.5989 -2.1562  1.9736
  162SOPE  H12Y18211   6.225   6.474   9.080  0.7170  1.2057  1.9886
  162SOPE  C31318212   6.213   6.276   8.981 -0.2090 -0.1454 -0.2041
  162SOPE  H13X18213   6.105   6.272   9.006 -0.2998  0.8272 -0.3906
  162SOPE  H13Y18214   6.256   6.178   9.012 -0.9873 -0.7417 -0.9397
  162SOPE  C31418215   6.241   6.308   8.837  1.9101  0.2721 -0.1746
  162SOPE  H14X18216   6.223   6.418   8.844 -1.4435 -0.2171  0.0678
  162SOPE  H14Y18217   6.166   6.269   8.765  0.9551  2.5684 -0.5107
  162SOPE  C31518218   6.386   6.270   8.786  0.2439  0.7511  0.3955
  162SOPE  H15X18219   6.390   6.159   8.794 -1.5247  0.6417  0.1150
  162SOPE  H15Y18220   6.461   6.319   8.851 -0.1026  0.6854  0.8445
  162SOPE  C31618221   6.403   6.311   8.639 -0.1191 -0.1169 -0.4847
  162SOPE  H16X18222   6.377   6.419   8.639  0.3374  0.0333  1.7525
  162SOPE  H16Y18223   6.331   6.257   8.575 -0.4545 -1.5623  1.0439
  162SOPE  C31718224   6.540   6.300   8.587  0.2415  0.4458 -0.0109
  162SOPE  H17X18225   6.558   6.190   8.578 -0.3295  0.4943 -2.5990
  162SOPE  H17Y18226   6.616   6.340   8.657  2.2376 -0.5601 -1.4803
  162SOPE  C31818227   6.563   6.357   8.454 -0.1987 -0.0011  0.5255
  162SOPE  H18X18228   6.571   6.468   8.449 -0.1403 -0.0545 -1.4210
  162SOPE  H18Y18229   6.489   6.318   8.381  0.7127  0.7836 -0.8827
  162SOPE  H18Z18230   6.662   6.321   8.417 -0.6911 -0.6695 -0.1581
  163SOPE     N18231   1.031   2.694  10.696  0.4087 -0.1600  0.3401
  163SOPE   HN118232   0.968   2.623  10.654  1.4602 -0.7703 -0.2439
  163SOPE   HN218233   1.012   2.789  10.657 -0.8640 -0.8521 -0.8258
  163SOPE   HN318234   1.126   2.680  10.657  1.0008  0.6461  1.4495
  163SOPE   C1218235   1.032   2.693  10.845  0.0180  0.2682  0.7185
  163SOPE  H12A18236   1.080   2.599  10.877 -0.5728 -0.5601 -0.7250
  163SOPE  H12B18237   0.925   2.701  10.874 -0.0046  0.3341  0.6159
  163SOPE   C1118238   1.115   2.819  10.886 -0.7596 -0.3179  0.2720
  163SOPE  H11A18239   1.118   2.824  10.997  2.3608 -1.7466  0.3548
  163SOPE  H11B18240   1.067   2.912  10.850  1.3417 -0.1897 -2.5392
  163SOPE     P18241   1.312   2.891  10.730  0.4985  0.1778  0.2026
  163SOPE   O1318242   1.282   2.815  10.606 -0.6201 -0.0058  0.3653
  163SOPE   O1418243   1.453   2.916  10.762 -0.2967  0.0527  0.0413
  163SOPE   O1218244   1.251   2.809  10.847  0.2702 -0.8936  0.0777
  163SOPE   O1118245   1.227   3.023  10.735 -0.5935  0.1748  0.4657
  163SOPE    C118246   1.224   3.104  10.614  0.2757 -0.2190 -0.0441
  163SOPE    HA18247   1.241   3.051  10.518  1.6088 -0.6777  0.4210
  163SOPE    HB18248   1.311   3.174  10.618  0.3060 -0.1367 -1.5218
  163SOPE    C218249   1.091   3.180  10.602  0.6549  0.2310  0.7502
  163SOPE    HS18250   1.035   3.154  10.695  0.7300 -1.4485  0.3530
  163SOPE   O2118251   1.016   3.134  10.492 -0.3273 -0.1656  1.1729
  163SOPE   C2118252   0.963   3.013  10.494 -0.3513  0.0346 -0.8839
  163SOPE   O2218253   0.975   2.936  10.591  0.1262  0.2196 -0.4917
  163SOPE   C2218254   0.887   2.997  10.366 -0.9521  0.2463 -0.2778
  163SOPE   H2R18255   0.798   2.933  10.385 -1.6730  0.8743 -1.3966
  163SOPE   H2S18256   0.955   2.949  10.293  0.5893  1.0569  0.5802
  163SOPE    C318257   1.092   3.334  10.598  0.5061  0.2404 -0.6540
  163SOPE    HX18258   1.108   3.366  10.703 -0.3956 -3.3470  0.7362
  163SOPE    HY18259   0.989   3.354  10.562 -0.1418 -3.4946 -1.2512
  163SOPE   O3118260   1.200   3.386  10.510  0.4788 -0.2591  0.4180
  163SOPE   C3118261   1.162   3.500  10.448 -0.3248  0.6714 -0.1181
  163SOPE   O3218262   1.050   3.542  10.450  0.1295 -0.0311 -0.1558
  163SOPE   C3218263   1.258   3.557  10.353 -0.2221 -0.8274 -1.6500
  163SOPE   H2X18264   1.325   3.485  10.301  2.8198 -0.2472  1.1761
  163SOPE   H2Y18265   1.330   3.619  10.409 -2.7597 -0.5410  1.6319
  163SOPE   C2318266   0.811   3.124  10.313 -0.4357 -0.3327 -0.3061
  163SOPE   H3R18267   0.884   3.197  10.273 -0.1711  0.9803  2.3905
  163SOPE   H3S18268   0.752   3.175  10.392 -0.6680 -1.5983  0.3607
  163SOPE   C2418269   0.709   3.078  10.208 -0.5362  0.4853  0.2241
  163SOPE   H4R18270   0.628   3.017  10.254 -2.2164  0.0476 -2.9828
  163SOPE   H4S18271   0.658   3.161  10.155  1.8489  0.1601 -2.8864
  163SOPE   C2518272   0.771   2.989  10.096  0.4702  0.0101  0.7112
  163SOPE   H5R18273   0.854   3.048  10.052 -0.3566  1.2989  0.8115
  163SOPE   H5S18274   0.802   2.895  10.145  2.0237  0.1880  0.1172
  163SOPE   C2618275   0.671   2.957   9.973  0.1017 -0.4732 -0.1272
  163SOPE   H6R18276   0.585   2.909  10.025 -0.9032  1.4588  0.0987
  163SOPE   H6S18277   0.636   3.058   9.941  0.0748 -0.1844  0.7785
  163SOPE   C2718278   0.734   2.877   9.858  0.1312 -0.0786 -0.4645
  163SOPE   H7R18279   0.823   2.929   9.818 -1.5006  1.8288 -1.7966
  163SOPE   H7S18280   0.763   2.779   9.903 -2.8579 -1.3915 -1.1161
  163SOPE   C2818281   0.630   2.834   9.752 -0.1966  0.5344  0.2930
  163SOPE   H8R18282   0.688   2.787   9.669  0.0051 -1.3682  1.4324
  163SOPE   H8S18283   0.563   2.764   9.805 -1.0553  1.7671  0.8687
  163SOPE   C2918284   0.541   2.938   9.692  0.6364  0.2930  0.5665
  163SOPE   H9118285   0.489   3.013   9.753 -1.6369 -0.2942 -0.5675
  163SOPE  C21018286   0.497   2.944   9.564 -0.1687  0.3599  0.9736
  163SOPE  H10118287   0.416   3.016   9.545 -1.0023 -0.8584 -0.2454
  163SOPE  C21118288   0.534   2.844   9.450  0.0152  0.4408  0.3811
  163SOPE  H11R18289   0.616   2.778   9.488  1.2699  2.8249  2.0945
  163SOPE  H11S18290   0.582   2.898   9.365 -0.0517 -1.2915 -0.8015
  163SOPE  C21218291   0.414   2.766   9.396  0.3928 -0.2451 -0.4321
  163SOPE  H12R18292   0.337   2.844   9.379 -1.4459 -1.3706  2.1152
  163SOPE  H12S18293   0.363   2.697   9.466 -1.0869  1.3773  0.1473
  163SOPE  C21318294   0.443   2.702   9.258 -0.2610 -0.0776  0.1488
  163SOPE  H13R18295   0.492   2.603   9.268  2.3055  0.9834 -0.9350
  163SOPE  H13S18296   0.523   2.760   9.208  1.0470  0.1613  2.3799
  163SOPE  C21418297   0.318   2.669   9.179 -0.1704  0.2179  0.0783
  163SOPE  H14R18298   0.271   2.768   9.159  0.0778 -0.0595 -2.0940
  163SOPE  H14S18299   0.241   2.612   9.236 -2.4248 -0.3216 -3.2485
  163SOPE  C21518300   0.346   2.603   9.044 -0.2221 -0.0368 -0.1206
  163SOPE  H15R18301   0.375   2.497   9.060  0.8733  0.4172  1.1061
  163SOPE  H15S18302   0.434   2.649   8.994  0.1081  0.9557  1.2875
  163SOPE  C21618303   0.219   2.586   8.952 -0.0285  0.1772 -0.5436
  163SOPE  H16R18304   0.168   2.683   8.931 -0.1866  0.3187  0.4298
  163SOPE  H16S18305   0.157   2.529   9.025  0.5145  0.9458  0.5406
  163SOPE  C21718306   0.247   2.512   8.818 -0.4204 -0.1219  0.1205
  163SOPE  H17R18307   0.304   2.419   8.840 -0.6629 -0.4534 -0.6357
  163SOPE  H17S18308   0.320   2.578   8.768 -1.2162 -1.9736 -3.9329
  163SOPE  C21818309   0.119   2.501   8.735 -0.7853  0.1812  0.1759
  163SOPE  H18R18310   0.126   2.456   8.634  0.0307  0.0198  0.2961
  163SOPE  H18S18311   0.079   2.605   8.731 -1.2254  0.0676  1.2163
  163SOPE  H18T18312   0.036   2.451   8.789 -0.6540 -1.9652 -1.4752
  163SOPE   C3318313   1.182   3.656  10.260 -0.7707  0.7269 -0.0641
  163SOPE   H3X18314   1.141   3.741  10.320  0.4623  0.6149  0.9853
  163SOPE   H3Y18315   1.099   3.604  10.208 -1.0500  0.2784  0.8108
  163SOPE   C3418316   1.277   3.711  10.145 -0.3644  0.1715  0.1100
  163SOPE   H4X18317   1.357   3.773  10.191  1.7939 -2.0700 -0.3871
  163SOPE   H4Y18318   1.215   3.783  10.089 -1.3869 -0.5119  0.3271
  163SOPE   C3518319   1.324   3.607  10.047 -0.2972  0.0952  0.5805
  163SOPE   H5X18320   1.226   3.562  10.019 -0.8308  1.8342 -0.4749
  163SOPE   H5Y18321   1.381   3.526  10.098  0.5997  1.4854  1.8269
  163SOPE   C3618322   1.390   3.654   9.911 -0.3827 -0.7322  0.1395
  163SOPE   H6X18323   1.416   3.563   9.854  0.6291 -0.0363 -0.5286
  163SOPE   H6Y18324   1.481   3.705   9.947 -0.2178  0.4389 -1.7854
  163SOPE   C3718325   1.310   3.761   9.829 -1.0410  0.4018  0.1934
  163SOPE   H7X18326   1.387   3.834   9.796  0.2495 -0.3360  1.4831
  163SOPE   H7Y18327   1.244   3.824   9.892 -0.7819 -1.2246  2.1827
  163SOPE   C3818328   1.246   3.700   9.704 -0.0934  0.2637  0.3758
  163SOPE   H8X18329   1.185   3.611   9.731 -3.5436  0.8554 -4.2456
  163SOPE   H8Y18330   1.333   3.658   9.649  0.2887 -1.0836  1.9461
  163SOPE   C3918331   1.165   3.799   9.616  0.3627  0.7736 -0.1649
  163SOPE   H9X18332   1.224   3.888   9.586  0.5326  0.1892 -1.6705
  163SOPE   H9Y18333   1.079   3.838   9.675 -1.6128 -2.4159 -0.6926
  163SOPE  C31018334   1.112   3.751   9.478  0.0370  0.7335  0.4551
  163SOPE  H10X18335   1.054   3.832   9.429  1.2262  1.5640  0.3788
  163SOPE  H10Y18336   1.038   3.672   9.504 -1.5143  2.2726  0.9335
  163SOPE  C31118337   1.223   3.702   9.376  0.3545 -0.0754 -0.4622
  163SOPE  H11X18338   1.268   3.608   9.414 -0.1418  0.2081  0.8876
  163SOPE  H11Y18339   1.301   3.779   9.391  1.5817 -1.0900 -1.4290
  163SOPE  C31218340   1.181   3.683   9.231 -0.8679 -0.6783  0.0222
  163SOPE  H12X18341   1.269   3.677   9.163 -2.9085 -0.4745 -2.8098
  163SOPE  H12Y18342   1.124   3.773   9.200 -0.4410  0.0477  1.2880
  163SOPE  C31318343   1.090   3.564   9.206 -1.2488 -0.6480 -0.1987
  163SOPE  H13X18344   0.997   3.585   9.262  0.4146  2.3439  1.7813
  163SOPE  H13Y18345   1.129   3.465   9.239 -0.4161 -0.5342 -0.7888
  163SOPE  C31418346   1.057   3.542   9.061 -0.9610  0.1809 -0.4504
  163SOPE  H14X18347   1.150   3.541   9.000 -1.0869  0.4129 -0.6496
  163SOPE  H14Y18348   0.993   3.628   9.032  0.3171  1.4313  0.3139
  163SOPE  C31518349   0.985   3.409   9.033  0.1403  0.4327 -0.4170
  163SOPE  H15X18350   0.937   3.373   9.127  1.2102 -0.8051 -0.3053
  163SOPE  H15Y18351   1.060   3.332   9.004 -0.5876 -0.6498  0.4742
  163SOPE  C31618352   0.883   3.413   8.923  0.1695  0.3566  0.0622
  163SOPE  H16X18353   0.792   3.464   8.961  0.9456  1.9326 -0.1076
  163SOPE  H16Y18354   0.854   3.307   8.911 -0.3612  0.6636 -1.5492
  163SOPE  C31718355   0.922   3.488   8.792  0.6291 -0.8101  0.3287
  163SOPE  H17X18356   1.012   3.440   8.746 -0.2802 -1.4835 -0.8017
  163SOPE  H17Y18357   0.946   3.596   8.808 -2.8396  0.4945 -2.1062
  163SOPE  C31818358   0.814   3.500   8.688  0.2139 -0.1285  0.7645
  163SOPE  H18X18359   0.780   3.396   8.673  0.0547 -0.0719  0.7381
  163SOPE  H18Y18360   0.851   3.540   8.592 -1.6045 -1.6421 -0.6388
  163SOPE  H18Z18361   0.727   3.560   8.720  0.2043  1.9044 -2.6374
  164SOPE     N18362   5.178   1.079  10.839 -0.2024  0.4264 -0.4585
  164SOPE   HN118363   5.084   1.054  10.876  0.9510 -3.9846  0.1453
  164SOPE   HN218364   5.245   1.002  10.856  0.5581  1.4524  1.3921
  164SOPE   HN318365   5.217   1.162  10.886  0.6209  0.2800 -0.8724
  164SOPE   C1218366   5.179   1.096  10.701  0.4948 -0.0428  0.3081
  164SOPE  H12A18367   5.140   1.011  10.640  1.8580 -0.2520 -0.3243
  164SOPE  H12B18368   5.284   1.090  10.665  0.3455 -0.5968 -0.0442
  164SOPE   C1118369   5.117   1.229  10.655 -0.2921 -0.2240  0.2602
  164SOPE  H11A18370   5.007   1.233  10.675 -0.4111 -1.6742 -0.0134
  164SOPE  H11B18371   5.124   1.235  10.544 -1.2678 -2.1018  0.0491
  164SOPE     P18372   5.307   1.400  10.671  0.1185 -0.1437  0.1536
  164SOPE   O1318373   5.415   1.300  10.660  0.4733  0.0724  0.5222
  164SOPE   O1418374   5.336   1.512  10.757  0.2820 -0.3003 -0.6019
  164SOPE   O1218375   5.183   1.330  10.727 -0.3852 -0.1193  0.4401
  164SOPE   O1118376   5.262   1.452  10.528 -0.0682  0.8893  0.8346
  164SOPE    C118377   5.214   1.579  10.491 -0.1468  0.2550  0.0487
  164SOPE    HA18378   5.266   1.666  10.538 -2.3215  1.4652  0.3751
  164SOPE    HB18379   5.105   1.582  10.512 -0.2080 -1.3613  0.0487
  164SOPE    C218380   5.226   1.611  10.338 -0.2299 -0.1091  0.2965
  164SOPE    HS18381   5.185   1.519  10.290  4.6065 -2.7507  0.6049
  164SOPE   O2118382   5.364   1.637  10.292 -0.4576 -0.3112 -0.0581
  164SOPE   C2118383   5.409   1.556  10.197  0.4397 -0.5255  0.0493
  164SOPE   O2218384   5.348   1.470  10.138  0.4004 -0.2647 -0.1200
  164SOPE   C2218385   5.547   1.605  10.149 -0.2005  0.8918  0.3578
  164SOPE   H2R18386   5.613   1.586  10.237 -1.7086 -1.2050  1.1123
  164SOPE   H2S18387   5.541   1.716  10.143 -1.1923  0.8127 -0.3074
  164SOPE    C318388   5.148   1.738  10.292 -0.2194  0.0626 -0.3796
  164SOPE    HX18389   5.173   1.838  10.334 -1.5332  0.3310 -0.1948
  164SOPE    HY18390   5.045   1.712  10.323  0.0148 -2.4173 -1.4450
  164SOPE   O3118391   5.145   1.750  10.147 -0.0823 -0.4431  0.2438
  164SOPE   C3118392   5.061   1.663  10.089 -0.6602 -0.0810  0.5087
  164SOPE   O3218393   4.976   1.596  10.139  0.3946 -0.1597 -0.2047
  164SOPE   C3218394   5.072   1.702   9.942 -0.3536 -0.5122 -0.4642
  164SOPE   H2X18395   5.178   1.689   9.909  0.3679 -0.8871  1.7714
  164SOPE   H2Y18396   5.037   1.806   9.932  0.4168 -0.3509 -1.7420
  164SOPE   C2318397   5.598   1.527  10.019  1.2874  0.2397 -0.8603
  164SOPE   H3R18398   5.566   1.421  10.020  2.9766 -0.3155  0.4996
  164SOPE   H3S18399   5.709   1.526  10.022  1.2907  0.3490 -0.9215
  164SOPE   C2418400   5.545   1.590   9.891  0.4196 -0.3526  0.1973
  164SOPE   H4R18401   5.437   1.615   9.895  0.6761  0.8949 -0.1866
  164SOPE   H4S18402   5.597   1.687   9.873  0.7503 -0.9471 -2.5246
  164SOPE   C2518403   5.578   1.507   9.765  0.6143  0.0854 -0.4980
  164SOPE   H5R18404   5.686   1.480   9.767  0.3583 -0.9412  1.0271
  164SOPE   H5S18405   5.533   1.406   9.769  1.2209 -0.2146 -0.9469
  164SOPE   C2618406   5.534   1.561   9.631  0.5573  0.7903  0.6659
  164SOPE   H6R18407   5.424   1.578   9.633  0.3691 -0.0217 -0.9095
  164SOPE   H6S18408   5.576   1.662   9.615  0.4022  0.3566 -3.6447
  164SOPE   C2718409   5.588   1.476   9.507  0.8082 -0.1922 -0.2405
  164SOPE   H7R18410   5.585   1.549   9.422 -2.1749  2.0515  1.5861
  164SOPE   H7S18411   5.694   1.448   9.523  0.9902 -0.4821 -1.7768
  164SOPE   C2818412   5.488   1.367   9.465  0.3529  0.3379  0.3101
  164SOPE   H8R18413   5.447   1.308   9.549 -2.1551  1.0478 -0.3520
  164SOPE   H8S18414   5.400   1.423   9.428 -2.2297 -0.8494  4.1795
  164SOPE   C2918415   5.553   1.283   9.358 -0.3905  0.4321 -0.8568
  164SOPE   H9118416   5.652   1.241   9.382 -0.8050  0.0957  0.2905
  164SOPE  C21018417   5.515   1.257   9.231 -0.2182 -0.3931 -0.1268
  164SOPE  H10118418   5.577   1.195   9.165  0.2720 -1.0508  0.9263
  164SOPE  C21118419   5.391   1.323   9.172  0.0946 -0.0111 -0.9413
  164SOPE  H11R18420   5.311   1.337   9.248  0.5355  1.5472 -0.7275
  164SOPE  H11S18421   5.347   1.258   9.094 -1.1928  1.5969 -1.6056
  164SOPE  C21218422   5.423   1.454   9.103 -0.3334 -0.1309 -0.1481
  164SOPE  H12R18423   5.509   1.509   9.147 -0.2647 -0.0811 -0.3430
  164SOPE  H12S18424   5.327   1.511   9.108 -1.4616 -1.9905  0.1378
  164SOPE  C21318425   5.474   1.436   8.954  0.5288 -0.7581  0.3398
  164SOPE  H13R18426   5.397   1.381   8.896  1.5360 -2.8257  0.8559
  164SOPE  H13S18427   5.567   1.375   8.962  1.3009  0.4573  1.0082
  164SOPE  C21418428   5.524   1.564   8.883 -0.4192 -0.7128  0.4810
  164SOPE  H14R18429   5.601   1.617   8.942  0.3655 -1.0476 -0.2121
  164SOPE  H14S18430   5.447   1.642   8.869  0.7610  0.6969  1.5417
  164SOPE  C21518431   5.595   1.523   8.752 -0.2941  0.3322 -1.1675
  164SOPE  H15R18432   5.660   1.437   8.777 -0.3928  0.6453  0.2579
  164SOPE  H15S18433   5.654   1.603   8.703 -0.3150  1.0216 -0.1017
  164SOPE  C21618434   5.501   1.490   8.639 -0.1786  0.3235 -0.1403
  164SOPE  H16R18435   5.406   1.463   8.690  0.5684 -0.1198  1.0404
  164SOPE  H16S18436   5.531   1.394   8.591 -1.4833 -0.3930  0.4353
  164SOPE  C21718437   5.488   1.607   8.543  0.3732 -0.3064 -0.0642
  164SOPE  H17R18438   5.577   1.664   8.509 -1.2978  1.0988 -2.4013
  164SOPE  H17S18439   5.434   1.690   8.592  0.6650  1.5321 -2.6184
  164SOPE  C21818440   5.414   1.570   8.414 -0.5031  0.1547  0.7789
  164SOPE  H18R18441   5.305   1.556   8.429 -0.9803  0.5324 -1.9558
  164SOPE  H18S18442   5.460   1.477   8.374  0.8627 -0.1089  2.7867
  164SOPE  H18T18443   5.437   1.650   8.341  0.1758  1.4944  2.3796
  164SOPE   C3318444   4.990   1.609   9.857  0.6148  0.4179  0.2007
  164SOPE   H3X18445   4.881   1.624   9.871  0.5019 -0.9147  0.8504
  164SOPE   H3Y18446   5.013   1.503   9.880 -2.3623 -0.5617 -0.8652
  164SOPE   C3418447   5.037   1.626   9.708 -0.8713 -0.6853 -0.3096
  164SOPE   H4X18448   5.139   1.585   9.695 -0.8457 -0.6811 -0.1309
  164SOPE   H4Y18449   5.028   1.733   9.678  0.4113 -0.4518  0.1124
  164SOPE   C3518450   4.947   1.543   9.618  0.1157 -0.6704 -0.2713
  164SOPE   H5X18451   4.850   1.598   9.619  0.5810  0.1579 -0.0571
  164SOPE   H5Y18452   4.927   1.440   9.656  3.0968 -1.0404  0.5668
  164SOPE   C3618453   4.999   1.534   9.478 -0.4310  0.1011  0.2313
  164SOPE   H6X18454   5.099   1.484   9.480 -1.2585 -1.6620 -0.2879
  164SOPE   H6Y18455   5.017   1.632   9.431 -0.5450  0.3774  0.7533
  164SOPE   C3718456   4.893   1.459   9.390 -0.1555  0.5008  0.2135
  164SOPE   H7X18457   4.803   1.518   9.365  0.6488  2.7811  2.2997
  164SOPE   H7Y18458   4.863   1.358   9.426 -0.1248  0.6741  0.7293
  164SOPE   C3818459   4.964   1.430   9.258  0.6578 -0.2830  0.1537
  164SOPE   H8X18460   5.054   1.366   9.270 -0.9523 -2.8620 -0.6589
  164SOPE   H8Y18461   4.994   1.524   9.209 -0.4095  0.3376  0.6638
  164SOPE   C3918462   4.869   1.359   9.166 -0.5134 -0.0816  0.2792
  164SOPE   H9X18463   4.764   1.394   9.177 -0.3043  0.1689  1.5527
  164SOPE   H9Y18464   4.866   1.253   9.198 -0.5998  0.3447  1.7531
  164SOPE  C31018465   4.909   1.371   9.021  0.1698  0.8819  0.5661
  164SOPE  H10X18466   4.995   1.301   9.017 -0.4534  0.1463 -0.5976
  164SOPE  H10Y18467   4.923   1.474   8.982 -1.9370  0.3938 -1.7041
  164SOPE  C31118468   4.786   1.319   8.936  0.3006 -0.0470  0.4235
  164SOPE  H11X18469   4.691   1.368   8.966  0.5631  2.5489 -2.3932
  164SOPE  H11Y18470   4.776   1.210   8.950  1.8393 -0.2335  0.2320
  164SOPE  C31218471   4.814   1.339   8.781 -0.4165 -0.0643 -0.3883
  164SOPE  H12X18472   4.897   1.269   8.761 -1.0713 -1.0528  0.2853
  164SOPE  H12Y18473   4.869   1.435   8.773 -3.6029  1.8136 -2.1045
  164SOPE  C31318474   4.691   1.343   8.695 -0.1733  0.1014 -0.1446
  164SOPE  H13X18475   4.627   1.427   8.727  0.2570  1.4421 -2.5569
  164SOPE  H13Y18476   4.646   1.243   8.715  2.6548 -0.9430  1.7225
  164SOPE  C31418477   4.721   1.365   8.541  0.8060  0.0956  0.9397
  164SOPE  H14X18478   4.818   1.418   8.534  0.2351  0.9266 -2.2562
  164SOPE  H14Y18479   4.641   1.423   8.491  1.2603 -0.9063 -1.0498
  164SOPE  C31518480   4.722   1.237   8.453  0.1033 -0.0199 -0.2397
  164SOPE  H15X18481   4.735   1.275   8.350 -0.7952  1.5073  0.1833
  164SOPE  H15Y18482   4.619   1.196   8.451 -0.3594  0.9421  1.4224
  164SOPE  C31618483   4.824   1.122   8.480  0.2675 -0.1876 -0.0305
  164SOPE  H16X18484   4.780   1.037   8.424 -0.5715  0.7123 -0.7644
  164SOPE  H16Y18485   4.816   1.091   8.587 -3.0632 -2.4378 -0.7918
  164SOPE  C31718486   4.965   1.140   8.418  0.2671 -1.0183  0.3576
  164SOPE  H17X18487   5.015   1.229   8.461 -0.0850  0.2429 -1.6966
  164SOPE  H17Y18488   4.952   1.173   8.313  1.3446  0.5303  0.6740
  164SOPE  C31818489   5.053   1.029   8.434  0.0319 -0.3539  0.2961
  164SOPE  H18X18490   5.023   0.952   8.360  0.0937 -0.4093  0.3291
  164SOPE  H18Y18491   5.057   0.991   8.539 -0.6678  1.7867  1.1374
  164SOPE  H18Z18492   5.153   1.060   8.397 -1.1909  0.6040 -2.5151
  165SOPE     N18493   2.368   3.091  10.851 -0.2351  0.8985  0.4574
  165SOPE   HN118494   2.277   3.064  10.894  0.8419 -0.7961  1.7869
  165SOPE   HN218495   2.413   3.157  10.917 -3.5735  0.7896  3.0996
  165SOPE   HN318496   2.366   3.131  10.755 -2.2237 -1.8958 -0.8131
  165SOPE   C1218497   2.461   2.969  10.835 -0.7604 -0.2704  0.3274
  165SOPE  H12A18498   2.485   2.927  10.935  0.1451 -0.6285 -0.0370
  165SOPE  H12B18499   2.553   3.009  10.787  0.0796 -1.6785  0.7070
  165SOPE   C1118500   2.389   2.882  10.734  0.0613 -0.2005  0.3904
  165SOPE  H11A18501   2.458   2.807  10.690 -2.0407 -1.3166 -1.2528
  165SOPE  H11B18502   2.355   2.947  10.650  0.5658  0.6137  0.8087
  165SOPE     P18503   2.281   2.673  10.850 -0.2289 -0.2002  0.0648
  165SOPE   O1318504   2.163   2.641  10.925 -0.0341 -0.0005  0.2215
  165SOPE   O1418505   2.410   2.643  10.918  0.2754  0.2643  0.0891
  165SOPE   O1218506   2.274   2.818  10.796 -0.0377  0.1907 -0.2884
  165SOPE   O1118507   2.280   2.599  10.719  0.9240 -0.0701  0.0570
  165SOPE    C118508   2.177   2.620  10.626 -0.1180 -0.2463  0.3424
  165SOPE    HA18509   2.170   2.728  10.601  2.2172 -0.5187 -1.7931
  165SOPE    HB18510   2.082   2.585  10.672 -0.0932  0.2840  0.8026
  165SOPE    C218511   2.188   2.547  10.495  0.0775 -0.1673  0.3566
  165SOPE    HS18512   2.164   2.440  10.507  1.0384 -0.5824 -1.1134
  165SOPE   O2118513   2.323   2.556  10.440  0.2874  0.0869 -0.2299
  165SOPE   C2118514   2.409   2.480  10.499  0.5458  0.1573 -0.9137
  165SOPE   O2218515   2.385   2.391  10.583 -0.1085 -0.6596 -0.2650
  165SOPE   C2218516   2.553   2.503  10.455  0.0471  0.7016 -0.8177
  165SOPE   H2R18517   2.597   2.570  10.531 -1.7437  1.0211 -0.0278
  165SOPE   H2S18518   2.557   2.556  10.357  1.5501  0.9533 -0.6452
  165SOPE    C318519   2.094   2.618  10.397  0.2261 -0.6031  0.0589
  165SOPE    HX18520   2.145   2.717  10.391  1.7493 -1.2263  1.6636
  165SOPE    HY18521   1.994   2.625  10.445  0.1342  1.4041 -0.3276
  165SOPE   O3118522   2.090   2.543  10.276 -0.4585  0.1161 -0.3597
  165SOPE   C3118523   2.013   2.605  10.187 -0.4417 -0.6754  0.4351
  165SOPE   O3218524   1.965   2.718  10.202 -0.1186  0.4022 -0.3796
  165SOPE   C3218525   1.988   2.512  10.073 -0.1023  0.2825 -0.7459
  165SOPE   H2X18526   1.956   2.413  10.111  0.9392  0.3573  0.3731
  165SOPE   H2Y18527   2.082   2.492  10.018 -0.8762 -1.7096 -1.4712
  165SOPE   C2318528   2.614   2.361  10.437  0.1044 -0.5457  0.0925
  165SOPE   H3R18529   2.586   2.310  10.342  1.8510  0.1560 -0.8395
  165SOPE   H3S18530   2.583   2.283  10.509  0.7903 -3.0364 -2.1606
  165SOPE   C2418531   2.766   2.379  10.427 -0.1115 -0.3188  0.1290
  165SOPE   H4R18532   2.807   2.420  10.521 -1.8384  1.9295 -0.0169
  165SOPE   H4S18533   2.814   2.279  10.419 -1.9312 -1.2260 -0.0151
  165SOPE   C2518534   2.796   2.466  10.298 -0.6412 -0.0464 -0.0661
  165SOPE   H5R18535   2.711   2.486  10.229 -0.4460  0.2578 -0.2273
  165SOPE   H5S18536   2.824   2.570  10.328 -1.1048  0.0328  0.0924
  165SOPE   C2618537   2.910   2.397  10.224 -0.3321 -0.0593 -0.6500
  165SOPE   H6R18538   2.996   2.385  10.294 -1.6668  1.3762  1.3479
  165SOPE   H6S18539   2.864   2.296  10.212 -0.3009 -0.3809  1.4658
  165SOPE   C2718540   2.956   2.473  10.095  0.6001  0.1696 -0.0554
  165SOPE   H7R18541   3.015   2.560  10.129 -0.2797  1.0855 -0.8143
  165SOPE   H7S18542   3.025   2.410  10.035 -1.1301  0.2115 -2.2181
  165SOPE   C2818543   2.842   2.513   9.996  0.2749 -0.0256 -0.4759
  165SOPE   H8R18544   2.802   2.419   9.953  1.2505 -1.6860  2.0443
  165SOPE   H8S18545   2.757   2.563  10.048 -0.1108 -0.9191 -0.2275
  165SOPE   C2918546   2.903   2.608   9.895  0.2067 -0.1412 -0.0380
  165SOPE   H9118547   3.011   2.599   9.879  0.9014 -0.6234  3.9760
  165SOPE  C21018548   2.847   2.710   9.828  1.1440 -0.1481  0.4902
  165SOPE  H10118549   2.896   2.747   9.736 -0.0751  2.0612  0.6582
  165SOPE  C21118550   2.705   2.750   9.835  0.1471  0.2070 -0.1219
  165SOPE  H11R18551   2.705   2.860   9.817 -1.0584  0.2947  0.3012
  165SOPE  H11S18552   2.674   2.737   9.941 -0.0332  0.3722 -0.1532
  165SOPE  C21218553   2.600   2.689   9.740  0.3277 -0.1393  0.4854
  165SOPE  H12R18554   2.501   2.739   9.750  1.1068  1.6642 -0.3955
  165SOPE  H12S18555   2.579   2.587   9.779 -1.2691  0.6418  1.7926
  165SOPE  C21318556   2.645   2.697   9.593  0.4735  0.1282 -0.0689
  165SOPE  H13R18557   2.738   2.637   9.584  1.1385  1.1893 -0.3761
  165SOPE  H13S18558   2.665   2.803   9.568 -0.2867  0.3142  0.0970
  165SOPE  C21418559   2.544   2.646   9.494  0.0444 -0.6159  0.0844
  165SOPE  H14R18560   2.441   2.675   9.525 -0.0556 -1.8333  0.9441
  165SOPE  H14S18561   2.543   2.535   9.491  3.1256 -0.7171 -1.9179
  165SOPE  C21518562   2.564   2.705   9.351  0.0878 -0.0502  0.9793
  165SOPE  H15R18563   2.659   2.654   9.324 -2.0470 -2.8025 -2.0534
  165SOPE  H15S18564   2.562   2.816   9.360  1.0877  0.1831 -1.0902
  165SOPE  C21618565   2.470   2.655   9.241  0.1730  0.5847 -0.9280
  165SOPE  H16R18566   2.378   2.717   9.241  1.2769  2.4686  2.5629
  165SOPE  H16S18567   2.442   2.550   9.265  0.1428  0.1594 -2.6479
  165SOPE  C21718568   2.539   2.654   9.106 -0.0811 -0.1728  0.0414
  165SOPE  H17R18569   2.626   2.590   9.134 -1.0814 -0.5502  2.5700
  165SOPE  H17S18570   2.588   2.751   9.084 -2.5855  0.7234 -1.9773
  165SOPE  C21818571   2.472   2.600   8.985  0.5790 -1.1531  1.3071
  165SOPE  H18R18572   2.536   2.601   8.894 -0.1061 -0.9621  0.8228
  165SOPE  H18S18573   2.381   2.658   8.959  0.5143 -1.6385  0.4021
  165SOPE  H18T18574   2.448   2.493   9.005 -1.6938 -1.2151 -1.1291
  165SOPE   C3318575   1.874   2.574   9.990 -0.5571  0.5856 -0.1383
  165SOPE   H3X18576   1.881   2.682   9.965 -0.5711  0.4264 -0.8679
  165SOPE   H3Y18577   1.779   2.552  10.042 -2.1343  1.2911 -2.5355
  165SOPE   C3418578   1.864   2.515   9.848  0.1192 -0.2344  0.1963
  165SOPE   H4X18579   1.824   2.412   9.856  0.2913 -0.2249  1.5119
  165SOPE   H4Y18580   1.969   2.524   9.812  0.6644 -2.0706  1.1867
  165SOPE   C3518581   1.776   2.601   9.764 -0.6310  0.2926 -0.2175
  165SOPE   H5X18582   1.813   2.705   9.770  0.1294 -0.0053  0.2475
  165SOPE   H5Y18583   1.671   2.582   9.795 -0.6656  0.0085 -0.5077
  165SOPE   C3618584   1.796   2.574   9.615  0.1052  0.5134  0.1300
  165SOPE   H6X18585   1.769   2.467   9.603 -0.8900  0.7546  0.0976
  165SOPE   H6Y18586   1.904   2.587   9.591  0.3768 -1.2135  0.2979
  165SOPE   C3718587   1.725   2.668   9.511 -0.7147 -0.0774  0.3190
  165SOPE   H7X18588   1.776   2.766   9.498 -2.9476  1.2340  0.8804
  165SOPE   H7Y18589   1.631   2.700   9.561 -1.1940  0.8572 -1.1153
  165SOPE   C3818590   1.698   2.588   9.380  0.4391 -0.1730  0.4326
  165SOPE   H8X18591   1.596   2.546   9.395 -0.2336  0.8184 -1.0954
  165SOPE   H8Y18592   1.769   2.506   9.357 -0.9442 -1.3448  0.1609
  165SOPE   C3918593   1.695   2.672   9.254  0.7853 -0.5027  0.1701
  165SOPE   H9X18594   1.801   2.695   9.228 -0.0894  2.1920 -1.3496
  165SOPE   H9Y18595   1.637   2.765   9.267 -0.2938 -1.2676  1.0532
  165SOPE  C31018596   1.631   2.595   9.129  0.2525 -0.4496 -0.5327
  165SOPE  H10X18597   1.527   2.558   9.144  0.4868 -2.2242 -2.7767
  165SOPE  H10Y18598   1.691   2.505   9.106  0.2440 -0.7623  0.6071
  165SOPE  C31118599   1.633   2.685   9.012 -0.1749 -0.2875  0.3904
  165SOPE  H11X18600   1.734   2.704   8.969 -0.6273  0.0154 -0.5734
  165SOPE  H11Y18601   1.581   2.783   9.023 -0.8290 -0.5675 -0.1585
  165SOPE  C31218602   1.554   2.621   8.898 -0.1398 -0.4518  0.3360
  165SOPE  H12X18603   1.453   2.604   8.941  0.6878 -2.3182  1.6671
  165SOPE  H12Y18604   1.599   2.523   8.872  1.1770  0.1813  0.0977
  165SOPE  C31318605   1.552   2.712   8.774  0.3297 -0.1257  0.0132
  165SOPE  H13X18606   1.482   2.795   8.797 -2.4303 -2.7401  1.9013
  165SOPE  H13Y18607   1.503   2.657   8.691  2.8830 -0.2605 -1.5057
  165SOPE  C31418608   1.686   2.765   8.733 -0.1182  0.6041 -0.7939
  165SOPE  H14X18609   1.723   2.834   8.812 -0.4461 -0.5734  0.4169
  165SOPE  H14Y18610   1.672   2.824   8.640  3.0572  0.3353 -1.5631
  165SOPE  C31518611   1.787   2.658   8.686  0.3577  0.1164  0.1343
  165SOPE  H15X18612   1.731   2.572   8.643  1.4791  0.6756 -2.6901
  165SOPE  H15Y18613   1.838   2.621   8.777 -1.2436 -2.3995  0.1162
  165SOPE  C31618614   1.890   2.710   8.590 -0.5098  0.0996  0.1541
  165SOPE  H16X18615   1.972   2.635   8.596 -1.1058 -0.4769  1.2012
  165SOPE  H16Y18616   1.924   2.815   8.605  0.3319  0.2196 -2.1597
  165SOPE  C31718617   1.842   2.708   8.441 -0.3463 -0.2641 -0.3888
  165SOPE  H17X18618   1.758   2.780   8.438 -0.3033 -0.1252  1.0611
  165SOPE  H17Y18619   1.789   2.617   8.404 -1.1558 -2.2628  4.7972
  165SOPE  C31818620   1.944   2.749   8.329  0.1011  0.2540 -0.0718
  165SOPE  H18X18621   1.886   2.792   8.245  2.3191 -0.0539 -1.8475
  165SOPE  H18Y18622   1.998   2.664   8.282  2.0453  0.9303  0.8471
  165SOPE  H18Z18623   2.020   2.825   8.356 -1.2700  1.4055  0.7308
  166SOPE     N18624   6.295   1.503  10.953  0.3931 -0.0870  0.2718
  166SOPE   HN118625   6.254   1.581  11.008 -1.2224 -1.3676  0.9743
  166SOPE   HN218626   6.216   1.435  10.946 -1.5152  2.1467 -1.8294
  166SOPE   HN318627   6.372   1.467  11.013 -0.0276 -2.0329 -0.2826
  166SOPE   C1218628   6.351   1.529  10.818  0.4269  0.0374  0.4993
  166SOPE  H12A18629   6.330   1.436  10.760 -4.0356 -0.3644  2.3827
  166SOPE  H12B18630   6.461   1.543  10.828  0.5040 -0.3414  0.2243
  166SOPE   C1118631   6.295   1.666  10.752  0.1690 -0.0006  0.3117
  166SOPE  H11A18632   6.188   1.637  10.746  0.0920 -0.0840  1.7067
  166SOPE  H11B18633   6.329   1.669  10.646  1.6192 -1.1364  0.7066
  166SOPE     P18634   6.427   1.874  10.796 -0.5898 -0.4705 -0.1866
  166SOPE   O1318635   6.549   1.789  10.793  0.4293 -0.3689 -0.1359
  166SOPE   O1418636   6.429   1.986  10.894 -0.1041 -0.7931 -0.4286
  166SOPE   O1218637   6.305   1.784  10.836 -0.6973 -0.1800 -0.4448
  166SOPE   O1118638   6.382   1.921  10.655  0.5315 -0.1010  0.0191
  166SOPE    C118639   6.268   2.005  10.659  0.7027  0.2799  0.4405
  166SOPE    HA18640   6.268   2.076  10.744 -1.9512  0.0800  0.6847
  166SOPE    HB18641   6.174   1.947  10.673  0.4340  0.6905  0.3478
  166SOPE    C218642   6.262   2.095  10.532  0.2219 -0.9736 -0.2346
  166SOPE    HS18643   6.161   2.140  10.538  0.8675  0.3630  1.4869
  166SOPE   O2118644   6.302   2.024  10.412  0.0358  0.1570  0.0913
  166SOPE   C2118645   6.211   1.938  10.374  0.6412 -0.3836 -0.2201
  166SOPE   O2218646   6.102   1.928  10.431  0.0525 -0.6514 -0.4585
  166SOPE   C2218647   6.250   1.842  10.262 -0.0523 -0.1741  0.3520
  166SOPE   H2R18648   6.330   1.782  10.310 -0.0266  0.9665  1.7892
  166SOPE   H2S18649   6.301   1.890  10.175  0.8497 -2.3175 -0.3782
  166SOPE    C318650   6.367   2.210  10.545 -0.7045  0.3627 -0.4065
  166SOPE    HX18651   6.469   2.166  10.546  0.1128  2.1862 -0.4546
  166SOPE    HY18652   6.358   2.251  10.648  2.6305 -2.0093  1.0207
  166SOPE   O3118653   6.356   2.320  10.453 -0.4736  0.2343 -0.4997
  166SOPE   C3118654   6.452   2.321  10.360 -0.2590 -0.6507 -0.1317
  166SOPE   O3218655   6.553   2.251  10.361  0.0938 -0.0288 -0.2319
  166SOPE   C3218656   6.411   2.422  10.253  0.2126 -0.0047  0.4453
  166SOPE   H2X18657   6.397   2.525  10.291  1.0382  1.0271 -1.9026
  166SOPE   H2Y18658   6.316   2.396  10.201 -1.3197  0.3654  2.9157
  166SOPE   C2318659   6.124   1.766  10.216 -0.0697 -0.4003  0.3560
  166SOPE   H3R18660   6.057   1.735  10.299 -0.2929 -1.4440 -0.1896
  166SOPE   H3S18661   6.164   1.679  10.159  0.1803  1.5317 -2.6366
  166SOPE   C2418662   6.040   1.847  10.104  0.2931 -0.0683 -0.0695
  166SOPE   H4R18663   5.989   1.934  10.151  0.0730  1.4685 -2.9449
  166SOPE   H4S18664   6.105   1.887  10.024 -0.7058  0.8987 -0.4181
  166SOPE   C2518665   5.938   1.757  10.044  0.5550  0.1042  0.2543
  166SOPE   H5R18666   5.981   1.673   9.985 -1.8042  0.6923 -2.5365
  166SOPE   H5S18667   5.874   1.717  10.126 -1.6284  1.6150 -0.6309
  166SOPE   C2618668   5.847   1.831   9.943  0.2209 -0.4394  0.0511
  166SOPE   H6R18669   5.764   1.768   9.906 -0.7605  0.8433  0.0029
  166SOPE   H6S18670   5.810   1.918  10.002 -0.0385  0.0557 -0.8335
  166SOPE   C2718671   5.911   1.877   9.815 -0.1609  0.2764 -0.2629
  166SOPE   H7R18672   6.003   1.939   9.826 -0.3813  0.9962 -2.0967
  166SOPE   H7S18673   5.938   1.784   9.760 -3.3835 -0.9101 -0.0006
  166SOPE   C2818674   5.816   1.969   9.736 -0.1090 -0.5681 -0.0172
  166SOPE   H8R18675   5.719   1.915   9.728  0.3492 -1.8479  2.2765
  166SOPE   H8S18676   5.791   2.053   9.803 -3.2145 -0.7192 -0.8565
  166SOPE   C2918677   5.866   2.029   9.610 -0.6757  0.1274 -0.1434
  166SOPE   H9118678   5.957   2.092   9.613  0.5332 -1.2746 -3.1022
  166SOPE  C21018679   5.813   2.020   9.490 -0.1778 -0.0286 -0.4002
  166SOPE  H10118680   5.873   2.066   9.410 -1.4990  2.5826  0.0236
  166SOPE  C21118681   5.683   1.956   9.442 -0.0746  0.3529  0.1180
  166SOPE  H11R18682   5.596   1.995   9.500 -0.1590  2.2501 -1.1800
  166SOPE  H11S18683   5.695   1.846   9.445 -4.4720 -0.3351 -0.7185
  166SOPE  C21218684   5.645   1.976   9.292 -0.3202 -0.1958  0.0966
  166SOPE  H12R18685   5.630   2.084   9.266  0.4915  0.5910  2.6168
  166SOPE  H12S18686   5.544   1.933   9.273 -0.1355 -1.2003  1.3214
  166SOPE  C21318687   5.752   1.926   9.190  0.5041  0.0861 -0.3105
  166SOPE  H13R18688   5.826   2.009   9.186  0.5449  0.1616  1.2439
  166SOPE  H13S18689   5.710   1.908   9.089  0.3557 -0.8013 -0.1040
  166SOPE  C21418690   5.818   1.784   9.211 -0.8776 -0.0336 -0.4967
  166SOPE  H14R18691   5.730   1.719   9.228 -0.3985 -0.4011  0.6827
  166SOPE  H14S18692   5.874   1.777   9.307  0.4096 -0.0034 -1.2304
  166SOPE  C21518693   5.902   1.739   9.087 -0.6454 -0.1137 -0.1618
  166SOPE  H15R18694   5.975   1.819   9.065 -0.8706  0.2288  0.3453
  166SOPE  H15S18695   5.824   1.726   9.008 -1.6885  0.4137  0.7610
  166SOPE  C21618696   5.987   1.610   9.105  0.6049 -0.1422 -0.8442
  166SOPE  H16R18697   6.071   1.637   9.172 -1.0326  2.0765  0.4682
  166SOPE  H16S18698   6.020   1.579   9.003 -0.9170  1.5975 -1.9324
  166SOPE  C21718699   5.915   1.499   9.177 -0.2496 -0.4100 -0.4488
  166SOPE  H17R18700   5.884   1.527   9.280  0.5001 -0.3377 -0.2340
  166SOPE  H17S18701   5.982   1.410   9.172 -0.7969 -0.7734 -1.6888
  166SOPE  C21818702   5.801   1.438   9.092 -0.1885  0.2612 -0.2584
  166SOPE  H18R18703   5.718   1.511   9.084  0.6069  1.2910  0.5810
  166SOPE  H18S18704   5.769   1.339   9.130  1.0004 -0.6021 -1.4040
  166SOPE  H18T18705   5.846   1.417   8.992  0.4054  0.7725 -0.1046
  166SOPE   C3318706   6.524   2.412  10.145 -0.4460  0.1352 -0.3733
  166SOPE   H3X18707   6.619   2.434  10.200 -0.7647 -0.3865  0.4063
  166SOPE   H3Y18708   6.497   2.494  10.075 -0.2187  0.0399 -0.5708
  166SOPE   C3418709   6.534   2.279  10.067  0.7336  0.7154 -0.1642
  166SOPE   H4X18710   6.436   2.230  10.050  1.8016 -1.0598 -1.5674
  166SOPE   H4Y18711   6.597   2.210  10.127 -1.2927  0.8950  2.3761
  166SOPE   C3518712   6.596   2.304   9.926  0.1093  0.9781  0.5149
  166SOPE   H5X18713   6.547   2.396   9.890  1.0572  0.3970 -2.4750
  166SOPE   H5Y18714   6.572   2.227   9.850 -0.3288 -0.0073  1.6120
  166SOPE   C3618715   6.748   2.324   9.920  0.4756 -0.2453  0.0184
  166SOPE   H6X18716   6.809   2.231   9.912  1.1706  0.1904  0.1610
  166SOPE   H6Y18717   6.773   2.371  10.018 -2.4272  1.0983  0.2135
  166SOPE   C3718718   6.806   2.422   9.815  0.8943  0.6247  0.7551
  166SOPE   H7X18719   6.906   2.467   9.835  0.4572  2.1270 -0.2109
  166SOPE   H7Y18720   6.745   2.514   9.823 -0.9359 -0.6861  2.6153
  166SOPE   C3818721   6.810   2.356   9.678  0.7993  0.1529  0.6684
  166SOPE   H8X18722   6.815   2.246   9.685 -1.2344 -0.1560 -1.5496
  166SOPE   H8Y18723   6.903   2.389   9.627  1.1107  0.6435  1.5351
  166SOPE   C3918724   6.688   2.395   9.594  0.1298  0.9479  0.0016
  166SOPE   H9X18725   6.670   2.503   9.580 -1.4824  0.9281  1.5637
  166SOPE   H9Y18726   6.604   2.358   9.656  0.5173  0.3783  0.1944
  166SOPE  C31018727   6.688   2.321   9.455 -0.0555  0.0060  0.3025
  166SOPE  H10X18728   6.639   2.222   9.461  2.4464 -1.2164  1.8865
  166SOPE  H10Y18729   6.792   2.310   9.420  0.4082  0.3308  1.5316
  166SOPE  C31118730   6.631   2.422   9.350  0.0681  0.9476 -0.3482
  166SOPE  H11X18731   6.646   2.523   9.395 -1.5164  0.2098  2.0548
  166SOPE  H11Y18732   6.520   2.425   9.355  0.0920  1.6068 -0.1479
  166SOPE  C31218733   6.679   2.406   9.214 -0.0232 -1.2233  0.7886
  166SOPE  H12X18734   6.790   2.409   9.219 -0.0805  1.3390  4.8301
  166SOPE  H12Y18735   6.636   2.480   9.142  0.8589 -1.2206  0.2558
  166SOPE  C31318736   6.644   2.272   9.144  0.8541  0.1630 -0.3481
  166SOPE  H13X18737   6.533   2.267   9.139  0.6105  2.3589  1.4196
  166SOPE  H13Y18738   6.672   2.193   9.217 -0.7893 -0.7948 -0.7115
  166SOPE  C31418739   6.716   2.255   9.009  0.0035  0.3911  0.2613
  166SOPE  H14X18740   6.819   2.296   9.018  0.0752 -0.1685  2.6319
  166SOPE  H14Y18741   6.666   2.315   8.931 -0.9859 -0.5328  0.1563
  166SOPE  C31518742   6.721   2.105   8.962  0.9973  0.1164  0.8121
  166SOPE  H15X18743   6.770   2.043   9.040 -0.8736 -1.6476  0.6666
  166SOPE  H15Y18744   6.783   2.093   8.871  0.8680 -1.4909  0.8975
  166SOPE  C31618745   6.584   2.033   8.924 -0.0044  0.4394 -0.1762
  166SOPE  H16X18746   6.552   2.067   8.823  1.6684 -1.8836 -1.5945
  166SOPE  H16Y18747   6.511   2.079   8.993 -0.2232  0.5435 -0.4750
  166SOPE  C31718748   6.585   1.882   8.933  0.1614 -0.3912 -0.0543
  166SOPE  H17X18749   6.479   1.854   8.914 -0.3661  1.8766 -0.7627
  166SOPE  H17Y18750   6.616   1.856   9.037 -1.9197  0.4780  0.8466
  166SOPE  C31818751   6.680   1.794   8.850  0.0657 -0.3892 -0.4612
  166SOPE  H18X18752   6.785   1.830   8.856  0.1736 -0.8697  1.0992
  166SOPE  H18Y18753   6.663   1.813   8.742 -2.7416  2.1400  0.3076
  166SOPE  H18Z18754   6.669   1.685   8.866  1.3560 -1.1373 -3.9091
  167SOPE     N18755   1.193   6.218   6.266 -0.0337 -0.0961  0.1249
  167SOPE   HN118756   1.118   6.157   6.305 -0.3159 -0.2756 -0.6697
  167SOPE   HN218757   1.144   6.300   6.225 -0.1754 -0.0721  0.3404
  167SOPE   HN318758   1.253   6.172   6.194  1.2332 -0.0418  1.1179
  167SOPE   C1218759   1.277   6.290   6.366 -0.0342 -0.2017  0.5596
  167SOPE  H12A18760   1.379   6.304   6.324  0.8191  0.5917  2.7186
  167SOPE  H12B18761   1.300   6.225   6.453  3.1715  0.3684  0.2792
  167SOPE   C1118762   1.203   6.416   6.399  0.1634  0.9226  0.1065
  167SOPE  H11A18763   1.259   6.462   6.483  0.1950 -0.4536  0.8747
  167SOPE  H11B18764   1.104   6.391   6.445  0.9724  0.7185  1.8427
  167SOPE     P18765   1.281   6.609   6.253  0.0852  0.0083 -0.1539
  167SOPE   O1318766   1.251   6.664   6.120  0.4982 -0.5952 -0.1789
  167SOPE   O1418767   1.413   6.559   6.258  0.4236  0.1312 -0.3206
  167SOPE   O1218768   1.172   6.498   6.296 -0.1228 -0.1840  0.4593
  167SOPE   O1118769   1.271   6.725   6.367 -0.3460 -0.4974  0.2664
  167SOPE    C118770   1.178   6.828   6.326  0.3941  0.0284 -0.0180
  167SOPE    HA18771   1.073   6.792   6.316  0.2508  0.3273  0.3811
  167SOPE    HB18772   1.211   6.899   6.248  0.2723 -0.6808 -0.7210
  167SOPE    C218773   1.165   6.931   6.446  0.1372 -0.0421  0.6365
  167SOPE    HS18774   1.256   6.991   6.466 -0.2854  0.6090  0.6629
  167SOPE   O2118775   1.126   6.863   6.565  0.2053  0.1565  0.3297
  167SOPE   C2118776   1.228   6.814   6.638  0.1307  0.7343 -1.0145
  167SOPE   O2218777   1.344   6.839   6.627  0.0595 -0.1381 -0.5450
  167SOPE   C2218778   1.183   6.704   6.738 -0.0962  0.4401 -0.3386
  167SOPE   H2R18779   1.165   6.615   6.675 -0.7980  0.9719 -0.9157
  167SOPE   H2S18780   1.084   6.740   6.776  0.0178  1.5920 -1.0641
  167SOPE    C318781   1.054   7.036   6.421  0.9610  0.3878 -0.0926
  167SOPE    HX18782   0.973   6.971   6.380  1.2771  0.3365 -0.6460
  167SOPE    HY18783   1.088   7.103   6.339  0.4563 -1.9611 -2.3678
  167SOPE   O3118784   1.016   7.112   6.543 -0.0528 -0.2223  1.0340
  167SOPE   C3118785   1.099   7.211   6.574  0.5430  0.0108 -0.1971
  167SOPE   O3218786   1.197   7.249   6.510 -0.1284  0.1558  0.4931
  167SOPE   C3218787   1.039   7.277   6.701  0.1635  0.4361  0.0035
  167SOPE   H2X18788   1.085   7.226   6.789  3.2004  2.7719 -0.0208
  167SOPE   H2Y18789   0.931   7.254   6.698 -0.1246  1.5945 -3.4420
  167SOPE   C2318790   1.292   6.667   6.845 -0.1787  0.4208  0.4499
  167SOPE   H3R18791   1.346   6.759   6.877 -2.2191  1.5629  0.7572
  167SOPE   H3S18792   1.370   6.604   6.798 -1.3890 -1.2400  0.5985
  167SOPE   C2418793   1.223   6.607   6.972  0.1834 -0.0164 -0.0623
  167SOPE   H4R18794   1.171   6.687   7.028  1.4573  1.0667 -0.3720
  167SOPE   H4S18795   1.157   6.521   6.946 -0.0163  0.4624 -1.2253
  167SOPE   C2518796   1.325   6.546   7.075 -0.5472 -0.2400 -0.1811
  167SOPE   H5R18797   1.404   6.494   7.017 -0.7564 -1.3540  0.4974
  167SOPE   H5S18798   1.371   6.630   7.130 -0.6503  1.5978 -2.7333
  167SOPE   C2618799   1.283   6.443   7.188 -0.2656 -0.4683  0.2595
  167SOPE   H6R18800   1.241   6.499   7.274  0.2087  2.3677 -1.2115
  167SOPE   H6S18801   1.194   6.384   7.155 -0.3280  0.9451 -2.3833
  167SOPE   C2718802   1.398   6.353   7.234 -0.1801 -0.5189  0.3021
  167SOPE   H7R18803   1.444   6.302   7.146  0.0865 -1.8504  1.1879
  167SOPE   H7S18804   1.475   6.413   7.287  1.4500 -1.9323 -0.3647
  167SOPE   C2818805   1.346   6.239   7.317  0.6268  0.1829 -0.6835
  167SOPE   H8R18806   1.281   6.186   7.244 -0.9527 -1.1375  1.5527
  167SOPE   H8S18807   1.432   6.171   7.338  1.3432  1.6012  1.2092
  167SOPE   C2918808   1.264   6.253   7.443 -0.4071  0.0888  0.3647
  167SOPE   H9118809   1.157   6.250   7.416 -0.9876 -3.1498  2.4875
  167SOPE  C21018810   1.310   6.256   7.564 -0.9210  0.3282  0.4656
  167SOPE  H10118811   1.239   6.268   7.647  0.5355  2.1816  1.5230
  167SOPE  C21118812   1.461   6.258   7.602 -0.4684  0.2339 -0.5559
  167SOPE  H11R18813   1.518   6.243   7.508  1.2487 -3.2649  0.8427
  167SOPE  H11S18814   1.488   6.168   7.662  2.9262  1.7373  0.4307
  167SOPE  C21218815   1.510   6.387   7.678  0.1801 -0.0192 -1.0585
  167SOPE  H12R18816   1.607   6.355   7.722  0.6519 -1.2479 -2.8921
  167SOPE  H12S18817   1.439   6.426   7.755 -0.5016 -2.2801 -0.4839
  167SOPE  C21318818   1.550   6.496   7.573 -0.1129 -0.0659  0.6910
  167SOPE  H13R18819   1.470   6.483   7.497  0.6269 -1.9682  0.1858
  167SOPE  H13S18820   1.637   6.455   7.518  0.7445  1.6418  0.7025
  167SOPE  C21418821   1.572   6.634   7.635  0.5490 -0.5522 -0.0179
  167SOPE  H14R18822   1.659   6.625   7.704 -0.1802  1.6679  1.2870
  167SOPE  H14S18823   1.481   6.665   7.690  0.6355 -0.6504  0.1818
  167SOPE  C21518824   1.613   6.741   7.531  0.9857 -0.1396 -0.4777
  167SOPE  H15R18825   1.716   6.705   7.509  0.3768 -0.6262 -2.8035
  167SOPE  H15S18826   1.609   6.838   7.584 -0.0786 -1.2706  1.6534
  167SOPE  C21618827   1.530   6.752   7.400  0.1133 -0.3334  0.3350
  167SOPE  H16R18828   1.431   6.787   7.436  0.1659 -0.2544  0.4031
  167SOPE  H16S18829   1.523   6.652   7.351 -0.5360  0.2022 -0.6973
  167SOPE  C21718830   1.601   6.853   7.300  0.1336 -0.1357  0.2614
  167SOPE  H17R18831   1.710   6.834   7.301  0.2700  0.5903 -0.2202
  167SOPE  H17S18832   1.573   6.956   7.329 -0.9985 -0.3084 -0.1716
  167SOPE  C21818833   1.558   6.832   7.149  0.0047 -0.0802 -0.1117
  167SOPE  H18R18834   1.603   6.747   7.093 -0.8099 -0.7699  0.2568
  167SOPE  H18S18835   1.593   6.926   7.101  0.8740  0.0438  0.7211
  167SOPE  H18T18836   1.448   6.834   7.135  0.0503  0.6400 -0.4029
  167SOPE   C3318837   1.077   7.426   6.703 -0.4209 -0.3429  0.4155
  167SOPE   H3X18838   1.061   7.489   6.613 -0.1480  3.1272  2.5883
  167SOPE   H3Y18839   1.187   7.436   6.713 -0.3681 -0.7509  0.2432
  167SOPE   C3418840   1.001   7.494   6.815 -0.5648 -0.0696  0.0305
  167SOPE   H4X18841   0.897   7.457   6.819 -0.2548 -0.9156  0.4731
  167SOPE   H4Y18842   1.001   7.605   6.801  2.1212  0.1519  1.2149
  167SOPE   C3518843   1.058   7.450   6.947  0.0652 -0.6136  0.3432
  167SOPE   H5X18844   1.168   7.445   6.962  0.4390  3.4859  0.0600
  167SOPE   H5Y18845   1.022   7.345   6.957  0.5872 -0.8371 -0.0941
  167SOPE   C3618846   0.994   7.537   7.062  0.2893 -0.0141  0.7549
  167SOPE   H6X18847   0.886   7.530   7.040  0.5458 -1.0339 -0.2824
  167SOPE   H6Y18848   1.030   7.642   7.052 -1.5224  0.7626  1.9051
  167SOPE   C3718849   1.020   7.479   7.201 -0.4482  0.1123  0.0852
  167SOPE   H7X18850   1.129   7.472   7.224 -0.2655 -0.2643 -0.8579
  167SOPE   H7Y18851   0.975   7.378   7.198 -0.6643  0.2193 -0.6659
  167SOPE   C3818852   0.943   7.544   7.314  1.5066 -0.2561 -0.9941
  167SOPE   H8X18853   0.833   7.541   7.295  1.3687  2.2112 -0.8165
  167SOPE   H8Y18854   0.972   7.650   7.331 -1.1004  0.0869  2.1983
  167SOPE   C3918855   0.975   7.468   7.447 -0.0125  0.2863  0.5532
  167SOPE   H9X18856   1.074   7.499   7.486  0.6825 -1.0942 -0.0184
  167SOPE   H9Y18857   0.981   7.360   7.420  0.9755  0.2253  0.9790
  167SOPE  C31018858   0.856   7.484   7.536 -0.4217 -0.7664 -0.0225
  167SOPE  H10X18859   0.768   7.529   7.485 -1.2602  0.3279  2.2069
  167SOPE  H10Y18860   0.874   7.561   7.615 -0.1004  0.6489 -1.4373
  167SOPE  C31118861   0.806   7.354   7.608  0.2150  0.1203 -0.3536
  167SOPE  H11X18862   0.777   7.287   7.525  0.7765 -0.8708  0.2317
  167SOPE  H11Y18863   0.721   7.379   7.675 -0.9322  0.4024 -1.8453
  167SOPE  C31218864   0.909   7.281   7.688 -0.8710 -0.2643 -0.7771
  167SOPE  H12X18865   0.977   7.346   7.748 -0.9140 -0.6549 -0.3048
  167SOPE  H12Y18866   0.969   7.210   7.628  0.4351 -2.7581  3.1219
  167SOPE  C31318867   0.854   7.183   7.797 -0.0094  0.5418 -0.5213
  167SOPE  H13X18868   0.768   7.142   7.740  0.6009 -1.0359 -0.3614
  167SOPE  H13Y18869   0.817   7.233   7.890  3.2769 -1.0224  1.8175
  167SOPE  C31418870   0.944   7.063   7.845  0.1277 -0.5457  0.4227
  167SOPE  H14X18871   1.026   7.101   7.910  1.6748  0.7678 -2.1280
  167SOPE  H14Y18872   0.996   7.011   7.762  0.5455  1.1647 -0.4305
  167SOPE  C31518873   0.869   6.953   7.922 -0.7133 -0.3134  0.3221
  167SOPE  H15X18874   0.933   6.870   7.960 -2.2675 -1.3576  0.7288
  167SOPE  H15Y18875   0.798   6.900   7.856 -1.5472 -0.1878  1.1100
  167SOPE  C31618876   0.789   7.009   8.042  0.2299 -0.0539 -0.3743
  167SOPE  H16X18877   0.711   7.079   8.008  0.3123  0.1191 -0.2123
  167SOPE  H16Y18878   0.851   7.057   8.122 -0.0389  2.7299 -1.7233
  167SOPE  C31718879   0.723   6.886   8.112 -0.1337 -0.4568  0.9600
  167SOPE  H17X18880   0.785   6.795   8.098  0.6919 -0.0429  1.8057
  167SOPE  H17Y18881   0.626   6.874   8.060  0.0384  0.1483  0.4762
  167SOPE  C31818882   0.688   6.920   8.254 -0.1188 -0.2201 -0.1323
  167SOPE  H18X18883   0.607   6.996   8.253 -0.4889 -0.5388 -3.0085
  167SOPE  H18Y18884   0.765   6.967   8.318 -0.6191  3.1393 -1.7514
  167SOPE  H18Z18885   0.655   6.830   8.310  2.2786  1.0298  3.6808
  168SOPE     N18886   0.249   3.300   6.410 -0.1045  0.2996 -0.0224
  168SOPE   HN118887   0.345   3.334   6.430  0.4805 -1.4051  0.2422
  168SOPE   HN218888   0.248   3.264   6.313 -0.8769 -0.3854  0.2250
  168SOPE   HN318889   0.184   3.381   6.408  0.3538  0.6623 -0.5604
  168SOPE   C1218890   0.220   3.193   6.510  0.2644 -0.2698 -0.3739
  168SOPE  H12A18891   0.117   3.158   6.489  0.9449 -1.6859 -1.5478
  168SOPE  H12B18892   0.220   3.241   6.610  0.7868 -0.9422 -0.0385
  168SOPE   C1118893   0.310   3.076   6.509 -0.3663 -0.7428  0.0794
  168SOPE  H11A18894   0.266   3.002   6.579 -2.3063  1.3386  1.1849
  168SOPE  H11B18895   0.411   3.106   6.545 -1.3220 -0.0766  2.4347
  168SOPE     P18896   0.392   2.870   6.376  0.2392  0.1425  0.1370
  168SOPE   O1318897   0.409   2.828   6.238  0.0531 -0.5210  0.8494
  168SOPE   O1418898   0.319   2.778   6.468  0.7385 -0.5149 -0.1643
  168SOPE   O1218899   0.319   3.011   6.374 -0.1851 -0.1492 -0.8472
  168SOPE   O1118900   0.532   2.903   6.436  0.1862  0.3887  0.3164
  168SOPE    C118901   0.599   2.814   6.529  0.2481 -0.2407  0.6021
  168SOPE    HA18902   0.707   2.803   6.507  0.4141  1.1310  0.6584
  168SOPE    HB18903   0.570   2.707   6.520 -0.4039 -0.0934  0.9265
  168SOPE    C218904   0.590   2.867   6.670 -0.0009  0.7753 -0.2363
  168SOPE    HS18905   0.496   2.925   6.676  0.5662  1.6616  0.4345
  168SOPE   O2118906   0.710   2.946   6.695  0.3345 -0.2036 -0.0916
  168SOPE   C2118907   0.685   3.046   6.775 -0.4210 -0.0429  0.2325
  168SOPE   O2218908   0.577   3.095   6.800 -0.3711 -0.1172 -0.1062
  168SOPE   C2218909   0.818   3.115   6.809 -0.4980  0.2917  0.2177
  168SOPE   H2R18910   0.846   3.159   6.711 -2.2613  0.7785 -0.0898
  168SOPE   H2S18911   0.899   3.041   6.828  0.6124  0.7424 -2.3447
  168SOPE    C318912   0.568   2.752   6.769  1.1914  0.2345 -0.2148
  168SOPE    HX18913   0.639   2.668   6.753 -0.3984 -1.1311 -0.4953
  168SOPE    HY18914   0.472   2.700   6.748  0.4629  2.3643 -2.4963
  168SOPE   O3118915   0.574   2.802   6.900  0.4091 -0.1751  0.2492
  168SOPE   C3118916   0.462   2.836   6.956  0.0190  0.4780 -0.1531
  168SOPE   O3218917   0.350   2.830   6.909  0.6408  0.2260  0.2187
  168SOPE   C3218918   0.484   2.906   7.087  0.5444  0.0459 -0.3768
  168SOPE   H2X18919   0.420   2.996   7.086 -1.5427 -1.3088  1.8093
  168SOPE   H2Y18920   0.590   2.936   7.106 -0.2612  2.5051  0.6148
  168SOPE   C2318921   0.813   3.222   6.920 -0.0529 -0.3453  0.2779
  168SOPE   H3R18922   0.745   3.303   6.886 -0.2663 -0.0937  1.2953
  168SOPE   H3S18923   0.916   3.262   6.925 -0.9830  2.2714  0.0659
  168SOPE   C2418924   0.786   3.182   7.066  0.4240  0.0058  0.3365
  168SOPE   H4R18925   0.684   3.138   7.070  0.4691 -0.2275 -0.7542
  168SOPE   H4S18926   0.849   3.094   7.092  2.3760  0.8216 -1.3552
  168SOPE   C2518927   0.806   3.290   7.167  0.2480 -0.0781  0.7584
  168SOPE   H5R18928   0.911   3.328   7.171  0.3712 -0.5330  2.5083
  168SOPE   H5S18929   0.744   3.375   7.133 -1.1697 -1.6564 -0.8180
  168SOPE   C2618930   0.778   3.257   7.311  0.1985 -0.0252  0.7227
  168SOPE   H6R18931   0.679   3.210   7.327  0.9898 -2.6829 -1.3895
  168SOPE   H6S18932   0.847   3.178   7.347 -0.6768 -1.5873 -0.8461
  168SOPE   C2718933   0.805   3.385   7.395 -0.0351 -0.1711 -0.1638
  168SOPE   H7R18934   0.908   3.418   7.372 -0.0989  0.4597  0.4530
  168SOPE   H7S18935   0.722   3.453   7.368 -1.4266 -1.0402  1.7491
  168SOPE   C2818936   0.813   3.362   7.554  0.4280 -0.3301  0.3295
  168SOPE   H8R18937   0.906   3.305   7.577  0.4674  0.8033  3.5925
  168SOPE   H8S18938   0.834   3.461   7.600  0.1986 -0.0038 -0.2621
  168SOPE   C2918939   0.685   3.310   7.615  1.3118  0.1134 -0.2209
  168SOPE   H9118940   0.632   3.242   7.548 -1.5899 -0.3802  2.3664
  168SOPE  C21018941   0.647   3.315   7.744 -0.0273 -0.2455  0.9742
  168SOPE  H10118942   0.541   3.298   7.770  0.1243 -0.8820  1.1927
  168SOPE  C21118943   0.724   3.375   7.856 -0.3432 -0.1809  0.2896
  168SOPE  H11R18944   0.676   3.474   7.873 -2.9150 -1.3501  0.3465
  168SOPE  H11S18945   0.829   3.384   7.824 -1.0282 -0.4017 -2.2188
  168SOPE  C21218946   0.703   3.286   7.986  0.4088 -0.0872 -0.2737
  168SOPE  H12R18947   0.595   3.286   8.014  0.2988 -2.2311 -0.5269
  168SOPE  H12S18948   0.748   3.346   8.068 -0.6163  2.0814 -1.2233
  168SOPE  C21318949   0.755   3.144   7.975  0.2179 -0.1405  0.7206
  168SOPE  H13R18950   0.864   3.144   7.957  0.0571  0.8603 -0.3768
  168SOPE  H13S18951   0.718   3.078   7.893 -1.2781 -1.2929  2.2508
  168SOPE  C21418952   0.740   3.053   8.095  0.4552 -0.3867 -0.7680
  168SOPE  H14R18953   0.790   2.954   8.092  0.9147 -0.2945  1.6533
  168SOPE  H14S18954   0.630   3.035   8.100  0.6079 -3.0142 -3.8162
  168SOPE  C21518955   0.791   3.128   8.226  0.5503 -0.2280  0.1351
  168SOPE  H15R18956   0.749   3.231   8.219  0.7544 -0.2263 -1.6212
  168SOPE  H15S18957   0.902   3.133   8.222  0.6041 -1.3744 -0.2056
  168SOPE  C21618958   0.745   3.054   8.350  0.3693 -0.4028 -0.6419
  168SOPE  H16R18959   0.635   3.062   8.362  0.1271 -2.5564 -1.0845
  168SOPE  H16S18960   0.794   3.098   8.440  0.3810  2.0713 -1.7592
  168SOPE  C21718961   0.789   2.908   8.356 -0.0560  0.0841  0.0321
  168SOPE  H17R18962   0.892   2.901   8.317 -0.5765  0.6180 -1.5348
  168SOPE  H17S18963   0.723   2.855   8.284 -0.2125  0.1070  0.1561
  168SOPE  C21818964   0.783   2.846   8.499 -0.0082 -0.3452  0.2842
  168SOPE  H18R18965   0.789   2.930   8.572 -0.1343  0.3740 -0.5077
  168SOPE  H18S18966   0.866   2.772   8.503  0.2513 -0.0564  0.2986
  168SOPE  H18T18967   0.686   2.796   8.516  1.1312 -2.2528  1.5271
  168SOPE   C3318968   0.441   2.822   7.205  0.5876 -0.0107  0.4374
  168SOPE   H3X18969   0.507   2.736   7.229  0.3144 -0.5686 -0.7527
  168SOPE   H3Y18970   0.339   2.781   7.191 -0.2640  2.5103 -1.6131
  168SOPE   C3418971   0.447   2.908   7.331 -0.3444  0.2091 -0.2399
  168SOPE   H4X18972   0.375   2.991   7.312 -0.2477 -0.1502 -2.3184
  168SOPE   H4Y18973   0.551   2.943   7.346  0.1795 -0.7947 -1.3735
  168SOPE   C3518974   0.419   2.822   7.449 -0.9404  0.1707  0.5425
  168SOPE   H5X18975   0.508   2.756   7.452  0.5317  1.4619 -4.4856
  168SOPE   H5Y18976   0.333   2.756   7.425 -0.6608 -0.0345  0.0938
  168SOPE   C3618977   0.404   2.903   7.577 -0.1448  0.8294  0.4770
  168SOPE   H6X18978   0.316   2.971   7.567 -0.3437  0.3672 -1.3356
  168SOPE   H6Y18979   0.497   2.962   7.590 -0.1221  1.3855 -1.8535
  168SOPE   C3718980   0.390   2.813   7.707 -0.4092 -0.0203  0.9790
  168SOPE   H7X18981   0.472   2.739   7.698 -1.0534 -0.6082 -0.3137
  168SOPE   H7Y18982   0.291   2.764   7.707 -0.3177 -0.2411 -0.1215
  168SOPE   C3818983   0.402   2.886   7.849 -0.5235  0.9198 -0.2719
  168SOPE   H8X18984   0.503   2.932   7.863 -0.5470  0.4724  1.6504
  168SOPE   H8Y18985   0.385   2.820   7.936  1.3250 -0.3453 -0.8107
  168SOPE   C3918986   0.313   3.012   7.858  0.8086 -1.1498 -0.5867
  168SOPE   H9X18987   0.208   2.988   7.827  0.1217 -0.1290  0.8888
  168SOPE   H9Y18988   0.355   3.093   7.794 -0.4405 -0.4818 -0.5845
  168SOPE  C31018989   0.307   3.066   8.007 -0.5182 -0.4830  0.6648
  168SOPE  H10X18990   0.413   3.088   8.033 -0.5945  0.5232  0.1846
  168SOPE  H10Y18991   0.281   2.976   8.066  0.1737 -2.2823 -1.6222
  168SOPE  C31118992   0.225   3.191   8.031  0.3073 -0.0212 -0.2563
  168SOPE  H11X18993   0.126   3.195   7.981  0.9729  0.5112 -1.5800
  168SOPE  H11Y18994   0.280   3.281   7.997  0.2279  0.4256  0.7517
  168SOPE  C31218995   0.211   3.220   8.179 -0.4762  0.2329 -0.0139
  168SOPE  H12X18996   0.307   3.263   8.214 -0.8520 -0.3022  1.7789
  168SOPE  H12Y18997   0.177   3.139   8.248 -1.5324 -0.2646 -1.0830
  168SOPE  C31318998   0.097   3.326   8.202  0.3309  0.5174  0.6244
  168SOPE  H13X18999   0.118   3.396   8.118 -2.4318  0.0188 -0.5783
  168SOPE  H13Y19000   0.098   3.360   8.308 -1.3263 -2.0085  1.5446
  168SOPE  C31419001  -0.046   3.267   8.175 -0.9013 -0.0909  0.5177
  168SOPE  H14X19002  -0.058   3.230   8.071  0.3583 -0.0964  0.3591
  168SOPE  H14Y19003  -0.112   3.356   8.185  0.0688  0.8147 -0.9464
  168SOPE  C31519004  -0.095   3.162   8.270  0.6183  0.9609 -1.1943
  168SOPE  H15X19005  -0.017   3.085   8.289  0.5551  0.9107 -1.1380
  168SOPE  H15Y19006  -0.178   3.106   8.222 -0.9227  2.5266 -0.4654
  168SOPE  C31619007  -0.137   3.224   8.409  0.3344  0.3849  0.8575
  168SOPE  H16X19008  -0.183   3.318   8.374  2.1722  0.4531 -1.6118
  168SOPE  H16Y19009  -0.042   3.251   8.460  1.4962  0.1728 -1.1077
  168SOPE  C31719010  -0.234   3.129   8.480 -0.1198 -0.2523  0.0738
  168SOPE  H17X19011  -0.324   3.124   8.416  0.3846  3.0761 -1.0898
  168SOPE  H17Y19012  -0.261   3.174   8.578  0.6307  0.5585 -0.0732
  168SOPE  C31819013  -0.185   2.988   8.512  0.2449  0.0773 -0.2573
  168SOPE  H18X19014  -0.202   2.932   8.418 -0.3637  0.1212 -0.1780
  168SOPE  H18Y19015  -0.261   2.936   8.574 -2.1856  2.1560 -1.3126
  168SOPE  H18Z19016  -0.085   2.974   8.557 -0.9592 -1.2139  2.2592
  169SOPE     N19017   2.470   4.370   6.203  0.5912  0.2086 -0.1312
  169SOPE   HN119018   2.494   4.469   6.182  1.2544  0.2998  0.9679
  169SOPE   HN219019   2.549   4.304   6.189 -0.4745 -1.1097 -0.1651
  169SOPE   HN319020   2.399   4.342   6.132  0.2835  0.3174  0.1325
  169SOPE   C1219021   2.409   4.343   6.340 -1.0732  0.2498 -0.1461
  169SOPE  H12A19022   2.457   4.418   6.407  1.9899  0.3256 -2.2231
  169SOPE  H12B19023   2.434   4.239   6.369  1.3859  0.3342 -1.6042
  169SOPE   C1119024   2.255   4.349   6.340 -0.3674  1.3533  0.1205
  169SOPE  H11A19025   2.226   4.315   6.442  0.7991  1.5611  0.5337
  169SOPE  H11B19026   2.221   4.274   6.266 -0.3219  0.9304  0.5192
  169SOPE     P19027   2.183   4.609   6.408  0.0329  0.0215 -0.4031
  169SOPE   O1319028   2.059   4.591   6.490 -0.1759  0.8050 -0.3333
  169SOPE   O1419029   2.189   4.740   6.333 -0.8559  0.2688  0.0491
  169SOPE   O1219030   2.198   4.479   6.311  0.0808  0.0527 -0.2757
  169SOPE   O1119031   2.306   4.599   6.507  0.0862  0.0734 -0.1451
  169SOPE    C119032   2.375   4.713   6.550 -0.0174 -0.2936 -0.1341
  169SOPE    HA19033   2.315   4.803   6.526  0.1911 -0.3640 -0.9626
  169SOPE    HB19034   2.470   4.728   6.493  1.5366 -0.9097  2.1476
  169SOPE    C219035   2.417   4.699   6.701  0.3257 -1.1701 -0.5189
  169SOPE    HS19036   2.328   4.713   6.767  1.0826 -2.8249  0.9430
  169SOPE   O2119037   2.526   4.791   6.729  0.1040  0.4169 -0.1613
  169SOPE   C2119038   2.500   4.923   6.766  0.4172  0.9673  0.5592
  169SOPE   O2219039   2.384   4.958   6.787 -0.5622  0.0385  0.1938
  169SOPE   C2219040   2.628   4.990   6.798 -0.7000 -0.3578 -0.0517
  169SOPE   H2R19041   2.674   5.025   6.703 -0.7400 -1.3942 -0.4595
  169SOPE   H2S19042   2.704   4.923   6.842  0.0132  1.7914  2.2526
  169SOPE    C319043   2.471   4.557   6.720 -1.1590  0.8989 -0.4398
  169SOPE    HX19044   2.549   4.530   6.646 -0.2889  1.5973  0.2020
  169SOPE    HY19045   2.384   4.489   6.708 -0.1232 -0.4705 -0.3645
  169SOPE   O3119046   2.528   4.544   6.855  0.3865 -0.2149 -0.2941
  169SOPE   C3119047   2.568   4.423   6.884 -0.2748  0.0329 -0.1994
  169SOPE   O3219048   2.571   4.326   6.809  0.7482 -0.3428  0.2366
  169SOPE   C3219049   2.633   4.421   7.017  0.5797 -0.9841  0.2577
  169SOPE   H2X19050   2.743   4.436   7.004  0.9256 -1.9132  1.8034
  169SOPE   H2Y19051   2.636   4.312   7.039 -0.1663 -1.2501 -0.9158
  169SOPE   C2319052   2.604   5.110   6.893  0.0385 -0.0246 -0.3832
  169SOPE   H3R19053   2.511   5.162   6.863  0.6934  1.5318  0.1595
  169SOPE   H3S19054   2.684   5.188   6.893  0.9235 -0.8901  0.6340
  169SOPE   C2419055   2.592   5.053   7.037 -0.8162  0.0330 -0.6124
  169SOPE   H4R19056   2.492   5.007   7.053 -1.0699  1.1096  1.1819
  169SOPE   H4S19057   2.665   4.972   7.058  0.7081  1.4224 -0.3607
  169SOPE   C2519058   2.607   5.162   7.142  0.3100  0.0705  0.4685
  169SOPE   H5R19059   2.706   5.193   7.182  1.0240 -1.5144  0.0099
  169SOPE   H5S19060   2.564   5.257   7.104 -1.7992 -0.8419  0.4429
  169SOPE   C2619061   2.522   5.129   7.269  0.6839  0.3205 -0.2305
  169SOPE   H6R19062   2.498   5.230   7.310 -0.9629 -0.0988 -0.0822
  169SOPE   H6S19063   2.430   5.097   7.216 -0.0587  2.1019 -0.1043
  169SOPE   C2719064   2.585   5.038   7.360  0.1246  0.1922 -1.0278
  169SOPE   H7R19065   2.623   4.948   7.307 -1.1421  0.7040 -2.9120
  169SOPE   H7S19066   2.663   5.103   7.406  0.2896 -0.7350  0.0422
  169SOPE   C2819067   2.488   4.990   7.476 -0.8247 -0.5229  0.0954
  169SOPE   H8R19068   2.425   5.077   7.502 -0.2911 -0.3751  0.9519
  169SOPE   H8S19069   2.414   4.911   7.449 -1.8135  0.6718 -0.7757
  169SOPE   C2919070   2.560   4.946   7.600 -0.0285 -0.1325 -0.7291
  169SOPE   H9119071   2.612   4.850   7.589  1.4046  0.5118  0.0993
  169SOPE  C21019072   2.577   5.019   7.713  0.3722 -0.4955 -0.7272
  169SOPE  H10119073   2.643   4.978   7.790 -0.3021 -0.3598 -0.0696
  169SOPE  C21119074   2.526   5.160   7.752 -0.7471  0.1784 -0.3309
  169SOPE  H11R19075   2.452   5.197   7.678 -1.4043 -0.4745 -0.0145
  169SOPE  H11S19076   2.611   5.230   7.765  1.1059 -1.6104 -2.1339
  169SOPE  C21219077   2.453   5.157   7.881  0.6638 -0.2733 -0.2818
  169SOPE  H12R19078   2.525   5.116   7.955  0.7716  0.7348  0.1829
  169SOPE  H12S19079   2.372   5.081   7.870  0.1050  0.3647 -0.7162
  169SOPE  C21319080   2.390   5.296   7.922 -0.0140  0.3585 -0.2480
  169SOPE  H13R19081   2.309   5.317   7.849  0.7132 -1.5394 -1.6946
  169SOPE  H13S19082   2.468   5.370   7.893  0.4768 -0.9802 -2.5734
  169SOPE  C21419083   2.309   5.313   8.054  0.3388 -0.1864  0.1741
  169SOPE  H14R19084   2.233   5.237   8.078  0.1382  0.1543  0.6475
  169SOPE  H14S19085   2.250   5.407   8.045 -0.3352 -0.8323 -3.6057
  169SOPE  C21519086   2.412   5.332   8.173  0.2001 -0.8431  0.0314
  169SOPE  H15R19087   2.502   5.281   8.132  1.9566  2.3129 -0.3709
  169SOPE  H15S19088   2.383   5.267   8.258 -0.0607  1.1469  1.5273
  169SOPE  C21619089   2.434   5.476   8.208 -0.2812 -0.1286  0.7188
  169SOPE  H16R19090   2.366   5.495   8.294  2.4312  1.9862  2.5724
  169SOPE  H16S19091   2.406   5.538   8.120 -0.6937  0.1631  1.0498
  169SOPE  C21719092   2.581   5.499   8.248  0.3846 -0.1140 -0.6383
  169SOPE  H17R19093   2.622   5.418   8.312  0.7965 -0.2838 -1.1164
  169SOPE  H17S19094   2.581   5.594   8.306 -2.0429 -1.1870  1.3249
  169SOPE  C21819095   2.674   5.508   8.129 -0.2689  1.4235  0.1988
  169SOPE  H18R19096   2.669   5.427   8.053  0.4094  0.7407  0.8730
  169SOPE  H18S19097   2.783   5.508   8.150 -0.2422  0.0835  0.1501
  169SOPE  H18T19098   2.646   5.607   8.088 -4.2794  1.3312  2.2213
  169SOPE   C3319099   2.546   4.509   7.110 -0.2062 -0.2718 -0.3992
  169SOPE   H3X19100   2.437   4.488   7.117 -0.0175 -0.8815  1.0888
  169SOPE   H3Y19101   2.542   4.618   7.091 -1.5250 -0.0002  1.1674
  169SOPE   C3419102   2.592   4.491   7.259 -0.1060  0.2547 -0.0238
  169SOPE   H4X19103   2.617   4.385   7.278  0.3173 -0.2170 -2.7998
  169SOPE   H4Y19104   2.501   4.512   7.319  0.0177 -1.4779  0.8221
  169SOPE   C3519105   2.703   4.592   7.298  0.3555 -0.2711  0.8737
  169SOPE   H5X19106   2.675   4.699   7.289  2.2819  0.2792  0.8708
  169SOPE   H5Y19107   2.788   4.576   7.228 -0.9386  1.3865 -1.1785
  169SOPE   C3619108   2.754   4.567   7.442 -0.2061  0.3410 -0.0030
  169SOPE   H6X19109   2.833   4.639   7.474 -2.3582  2.1407  1.6224
  169SOPE   H6Y19110   2.808   4.470   7.441  0.6397  0.7748  1.2266
  169SOPE   C3719111   2.640   4.544   7.540 -0.6486  0.1319  0.1026
  169SOPE   H7X19112   2.591   4.447   7.519  3.5902 -2.7328  1.9815
  169SOPE   H7Y19113   2.571   4.628   7.520  0.1033  1.3130  2.1606
  169SOPE   C3819114   2.664   4.543   7.684  0.1107  0.0052  0.0442
  169SOPE   H8X19115   2.706   4.448   7.724 -0.1006  0.3423  1.0915
  169SOPE   H8Y19116   2.733   4.624   7.718  0.5277 -0.1605 -0.3884
  169SOPE   C3919117   2.539   4.572   7.771  1.0217  0.2777  0.1609
  169SOPE   H9X19118   2.448   4.517   7.737  0.8021  0.2063  0.8635
  169SOPE   H9Y19119   2.507   4.677   7.750  0.7290  0.2216  0.3316
  169SOPE  C31019120   2.562   4.570   7.923  0.4700 -0.0679 -0.7525
  169SOPE  H10X19121   2.665   4.609   7.939 -0.1428  1.5449 -0.5358
  169SOPE  H10Y19122   2.546   4.469   7.966 -0.5047  0.5709  0.4534
  169SOPE  C31119123   2.469   4.664   8.010  0.0294  0.1235 -0.1571
  169SOPE  H11X19124   2.361   4.654   7.985 -0.2008  1.9123 -0.0181
  169SOPE  H11Y19125   2.489   4.767   7.975  1.5958 -0.4999 -1.2442
  169SOPE  C31219126   2.474   4.656   8.165  0.4181 -0.2616  0.1494
  169SOPE  H12X19127   2.574   4.673   8.210  0.6305 -1.1471  0.0265
  169SOPE  H12Y19128   2.428   4.560   8.196 -1.7646  0.4038 -0.7998
  169SOPE  C31319129   2.379   4.766   8.231 -0.1693  0.3589 -0.0327
  169SOPE  H13X19130   2.273   4.736   8.219 -0.1820  0.1614  0.5435
  169SOPE  H13Y19131   2.394   4.864   8.180  0.0475  0.9014  1.0474
  169SOPE  C31419132   2.418   4.800   8.380 -0.7762 -0.3990  0.0848
  169SOPE  H14X19133   2.525   4.832   8.385 -0.9525  1.1567 -3.1028
  169SOPE  H14Y19134   2.415   4.710   8.444 -0.2010  0.9055  2.0531
  169SOPE  C31519135   2.329   4.906   8.436  0.5924  0.4320  0.6434
  169SOPE  H15X19136   2.230   4.863   8.465 -0.4947  1.5387 -1.2245
  169SOPE  H15Y19137   2.303   4.974   8.352 -1.2742 -3.0991 -1.8936
  169SOPE  C31619138   2.371   4.988   8.556  0.5435  0.1400 -0.4386
  169SOPE  H16X19139   2.303   5.069   8.589 -0.4939 -0.9166  0.0705
  169SOPE  H16Y19140   2.464   5.036   8.517  0.4476  0.0473 -0.7848
  169SOPE  C31719141   2.413   4.921   8.685  0.0861  0.7050  0.3074
  169SOPE  H17X19142   2.459   4.993   8.757 -1.5125  1.1080  0.9866
  169SOPE  H17Y19143   2.483   4.842   8.651 -0.9737  0.1452 -0.6386
  169SOPE  C31819144   2.294   4.851   8.756 -0.0488  0.3452 -0.1747
  169SOPE  H18X19145   2.205   4.918   8.761 -0.3434 -0.1299  1.5977
  169SOPE  H18Y19146   2.330   4.840   8.860 -2.0947  3.5162  1.0446
  169SOPE  H18Z19147   2.261   4.759   8.703 -1.8964  0.8652 -0.0093
  170SOPE     N19148   4.530   3.286   6.366 -0.1557 -0.1224 -0.2114
  170SOPE   HN119149   4.526   3.390   6.366  1.0487 -0.0179  2.0712
  170SOPE   HN219150   4.631   3.266   6.360 -0.6137 -3.5480  1.2684
  170SOPE   HN319151   4.470   3.250   6.289 -0.6899  1.9637 -0.8554
  170SOPE   C1219152   4.486   3.243   6.512 -0.0398  0.1156  0.0202
  170SOPE  H12A19153   4.560   3.265   6.591  0.0293 -2.4513  0.7735
  170SOPE  H12B19154   4.483   3.131   6.509 -0.0729  0.1078  0.3193
  170SOPE   C1119155   4.348   3.293   6.546  0.1435  0.7350  1.0166
  170SOPE  H11A19156   4.300   3.266   6.642 -1.2370 -0.8487 -0.0542
  170SOPE  H11B19157   4.286   3.241   6.470  1.3514 -1.4515  1.4418
  170SOPE     P19158   4.199   3.514   6.522 -0.7344 -0.1656  0.2873
  170SOPE   O1319159   4.089   3.450   6.457  0.5704  0.3728 -0.3912
  170SOPE   O1419160   4.234   3.651   6.479 -0.0495  0.9762 -0.9406
  170SOPE   O1219161   4.333   3.426   6.506 -0.4886 -0.4974 -0.4133
  170SOPE   O1119162   4.172   3.517   6.676  0.8629 -0.4617 -0.5217
  170SOPE    C119163   4.270   3.577   6.762  0.1374 -0.0848 -0.5765
  170SOPE    HA19164   4.278   3.686   6.748 -0.1898  0.2767  1.6593
  170SOPE    HB19165   4.370   3.529   6.754  0.5459 -0.2092  3.3020
  170SOPE    C219166   4.232   3.551   6.909 -0.6271  0.1876  0.5659
  170SOPE    HS19167   4.238   3.445   6.939 -0.6084  0.3063  0.9924
  170SOPE   O2119168   4.099   3.605   6.928  0.4536  0.0530  0.0495
  170SOPE   C2119169   4.004   3.506   6.907 -0.0962  0.2331  0.3924
  170SOPE   O2219170   4.028   3.390   6.878  0.7871  0.4828  0.1907
  170SOPE   C2219171   3.865   3.556   6.925  0.1508 -0.2758  0.0967
  170SOPE   H2R19172   3.794   3.472   6.911 -0.8715  0.5852 -0.0388
  170SOPE   H2S19173   3.846   3.641   6.856 -0.1443  0.9178  1.5794
  170SOPE    C319174   4.338   3.619   6.996  0.0854 -1.0632 -0.6243
  170SOPE    HX19175   4.349   3.720   6.951 -2.4993 -0.4877 -0.1678
  170SOPE    HY19176   4.431   3.561   6.980 -0.5033 -2.1503 -0.2605
  170SOPE   O3119177   4.301   3.603   7.137  0.0995  0.0268  0.2191
  170SOPE   C3119178   4.237   3.704   7.187  0.1791 -0.7911 -0.3814
  170SOPE   O3219179   4.219   3.811   7.133  0.1333 -0.1370 -0.3574
  170SOPE   C3219180   4.179   3.671   7.330  0.1706  0.0771  0.7312
  170SOPE   H2X19181   4.257   3.644   7.404  0.1095 -1.0601  0.4002
  170SOPE   H2Y19182   4.134   3.570   7.315  1.0223 -0.7130  3.0152
  170SOPE   C2319183   3.849   3.604   7.075 -0.2297  0.4368 -0.0863
  170SOPE   H3R19184   3.884   3.710   7.072  0.7061  0.1194 -2.0988
  170SOPE   H3S19185   3.907   3.538   7.142 -3.0563 -1.1716  0.9535
  170SOPE   C2419186   3.711   3.597   7.134 -0.4010  0.4894  0.3512
  170SOPE   H4R19187   3.686   3.670   7.214  4.0429  0.4256  2.1029
  170SOPE   H4S19188   3.643   3.611   7.047  1.1581  0.3313 -0.9450
  170SOPE   C2519189   3.686   3.458   7.195 -0.3753  0.6526  0.5912
  170SOPE   H5R19190   3.576   3.468   7.210 -0.2713  2.7159  0.1826
  170SOPE   H5S19191   3.712   3.369   7.134  0.2071  1.0675  0.2251
  170SOPE   C2619192   3.734   3.449   7.341 -0.7248 -0.2539 -0.4246
  170SOPE   H6R19193   3.845   3.458   7.347 -0.7746  0.3652 -0.3908
  170SOPE   H6S19194   3.692   3.535   7.397 -0.2208 -0.5691  0.4581
  170SOPE   C2719195   3.687   3.319   7.406 -0.6863 -0.1652  0.9429
  170SOPE   H7R19196   3.579   3.301   7.388 -0.9231  1.1848  0.8457
  170SOPE   H7S19197   3.737   3.228   7.367 -1.3790 -0.0440 -0.2790
  170SOPE   C2819198   3.707   3.308   7.563 -0.4320 -0.2862  0.3159
  170SOPE   H8R19199   3.666   3.404   7.601 -2.1382 -0.4812 -0.8943
  170SOPE   H8S19200   3.646   3.231   7.614  1.6753 -1.5599  1.0211
  170SOPE   C2919201   3.849   3.291   7.614  0.4524 -0.2295 -0.4857
  170SOPE   H9119202   3.914   3.221   7.560  1.0467  0.4442 -0.6534
  170SOPE  C21019203   3.891   3.350   7.727  0.3093 -0.1319 -0.3886
  170SOPE  H10119204   3.991   3.322   7.764 -0.3404  0.6240  2.1816
  170SOPE  C21119205   3.834   3.457   7.819  0.3557  0.7480 -0.2080
  170SOPE  H11R19206   3.776   3.534   7.763 -1.3171 -2.2012 -2.9047
  170SOPE  H11S19207   3.915   3.506   7.876 -1.0694  0.1808  2.4936
  170SOPE  C21219208   3.744   3.404   7.930 -0.1031  0.7095  0.1586
  170SOPE  H12R19209   3.658   3.345   7.892 -0.9420  1.4209  0.9172
  170SOPE  H12S19210   3.708   3.485   7.996  0.2019  1.2414 -0.3141
  170SOPE  C21319211   3.823   3.315   8.023  0.1233 -0.6844 -0.1678
  170SOPE  H13R19212   3.921   3.354   8.057 -0.8092  0.5904  1.1705
  170SOPE  H13S19213   3.838   3.216   7.974  1.6088 -1.3760  1.5749
  170SOPE  C21419214   3.738   3.290   8.159 -0.9560  0.4048 -1.1207
  170SOPE  H14R19215   3.645   3.239   8.127 -1.3149  0.4635 -0.1742
  170SOPE  H14S19216   3.713   3.383   8.214  0.2411 -0.8348  1.7232
  170SOPE  C21519217   3.811   3.194   8.255 -0.5878 -0.2390 -0.6525
  170SOPE  H15R19218   3.911   3.233   8.286 -0.0990 -0.4536 -1.9171
  170SOPE  H15S19219   3.815   3.090   8.216 -2.8780 -0.6546  0.1067
  170SOPE  C21619220   3.719   3.184   8.381 -0.5298  0.1358  0.0246
  170SOPE  H16R19221   3.727   3.277   8.441 -3.4400  2.2513 -2.4956
  170SOPE  H16S19222   3.755   3.101   8.445  2.4033  0.3708 -1.1789
  170SOPE  C21719223   3.573   3.148   8.362 -0.3882 -0.5497  0.3924
  170SOPE  H17R19224   3.527   3.199   8.274 -0.4929 -0.6925  0.3624
  170SOPE  H17S19225   3.526   3.181   8.457 -0.2634 -2.2262  1.0610
  170SOPE  C21819226   3.545   3.004   8.342 -0.7486 -0.6841  1.4702
  170SOPE  H18R19227   3.572   2.937   8.426 -0.3256 -0.2899  1.6487
  170SOPE  H18S19228   3.619   2.982   8.262  0.9339  2.7964  1.8875
  170SOPE  H18T19229   3.447   2.972   8.301  0.7258 -2.8096 -0.6541
  170SOPE   C3319230   4.087   3.774   7.390 -0.0386  0.1838 -0.6925
  170SOPE   H3X19231   3.993   3.784   7.332 -0.0839  0.0134 -0.6490
  170SOPE   H3Y19232   4.123   3.879   7.384 -0.0666  0.1744 -1.0386
  170SOPE   C3419233   4.074   3.736   7.534 -0.0400  0.2801 -0.2743
  170SOPE   H4X19234   4.160   3.757   7.601 -1.1207 -1.2810  1.7008
  170SOPE   H4Y19235   4.065   3.625   7.541  1.1542 -0.0962 -3.1223
  170SOPE   C3519236   3.962   3.800   7.611  0.4939 -1.0508 -0.3910
  170SOPE   H5X19237   3.867   3.744   7.594  1.0739 -1.8993 -0.9321
  170SOPE   H5Y19238   3.949   3.905   7.578 -1.7156 -0.9650  0.5473
  170SOPE   C3619239   3.978   3.806   7.763 -0.2308  0.3668 -0.4573
  170SOPE   H6X19240   4.047   3.884   7.803 -0.3979  0.7661 -0.9310
  170SOPE   H6Y19241   4.011   3.704   7.793  0.3356  0.6093 -0.2338
  170SOPE   C3719242   3.850   3.838   7.831 -0.0487 -0.4746 -0.3563
  170SOPE   H7X19243   3.770   3.760   7.829  0.8676 -1.4671  0.3083
  170SOPE   H7Y19244   3.805   3.925   7.779  0.0795 -0.6502 -0.7584
  170SOPE   C3819245   3.868   3.865   7.984  0.2619 -0.2546 -0.3061
  170SOPE   H8X19246   3.786   3.928   8.024  0.0536 -1.3080  1.0262
  170SOPE   H8Y19247   3.965   3.919   7.997  2.1963 -3.3654 -0.6778
  170SOPE   C3919248   3.859   3.740   8.067 -0.0804  1.0652 -0.5805
  170SOPE   H9X19249   3.925   3.660   8.027 -0.3774  0.0098  0.9803
  170SOPE   H9Y19250   3.753   3.707   8.072  0.6207 -1.6022 -1.7540
  170SOPE  C31019251   3.914   3.756   8.208 -0.0658 -0.6419 -0.2332
  170SOPE  H10X19252   3.855   3.836   8.258 -0.4621 -1.8882  1.3500
  170SOPE  H10Y19253   4.020   3.790   8.209 -0.1419 -0.3991  1.2493
  170SOPE  C31119254   3.896   3.626   8.286  0.5454 -0.1200 -0.6120
  170SOPE  H11X19255   3.997   3.589   8.313  1.1770  1.7218 -0.3343
  170SOPE  H11Y19256   3.848   3.546   8.225  0.1728  0.0620 -0.5599
  170SOPE  C31219257   3.816   3.655   8.422  0.3826 -0.0164  0.1702
  170SOPE  H12X19258   3.867   3.738   8.476  2.8049 -0.5008 -1.2341
  170SOPE  H12Y19259   3.834   3.566   8.486  2.0856  1.9608  2.6846
  170SOPE  C31319260   3.663   3.675   8.390  0.8814 -0.1725 -0.7167
  170SOPE  H13X19261   3.631   3.626   8.295  1.4468 -1.0511 -0.4707
  170SOPE  H13Y19262   3.657   3.781   8.359 -0.7825 -0.5516 -1.8558
  170SOPE  C31419263   3.571   3.635   8.508 -0.7847  0.1329  0.4785
  170SOPE  H14X19264   3.470   3.677   8.486 -0.5188  0.9255  0.7566
  170SOPE  H14Y19265   3.611   3.666   8.606  1.0077 -2.8670  0.8329
  170SOPE  C31519266   3.564   3.484   8.534 -0.0956  0.4758 -0.2751
  170SOPE  H15X19267   3.664   3.444   8.560  0.5802  0.2613 -2.9106
  170SOPE  H15Y19268   3.542   3.427   8.441  1.5212 -1.9963  0.7681
  170SOPE  C31619269   3.447   3.442   8.629  0.5039 -0.4452  0.1392
  170SOPE  H16X19270   3.384   3.364   8.582 -1.3503  1.6336 -0.9872
  170SOPE  H16Y19271   3.382   3.522   8.672 -1.6619 -2.2352  0.3846
  170SOPE  C31719272   3.513   3.395   8.760 -0.4663  0.7202 -0.0564
  170SOPE  H17X19273   3.552   3.472   8.830  1.6558 -0.2107 -0.1561
  170SOPE  H17Y19274   3.601   3.335   8.730 -0.7605  1.0392 -1.6579
  170SOPE  C31819275   3.402   3.329   8.850 -0.0798  0.4831  0.8189
  170SOPE  H18X19276   3.348   3.256   8.787 -0.3584  1.8462 -0.5843
  170SOPE  H18Y19277   3.327   3.408   8.873 -0.2121  0.8474 -0.7734
  170SOPE  H18Z19278   3.450   3.285   8.941  1.6341  0.5323 -0.0171
  171SOPE     N19279   3.607   6.035   6.131  0.1585 -0.0131 -0.2117
  171SOPE   HN119280   3.532   6.026   6.059  0.7595  1.3848 -1.0517
  171SOPE   HN219281   3.621   5.938   6.166  1.1088  0.0567 -0.3835
  171SOPE   HN319282   3.564   6.079   6.215 -2.8124  0.2638 -1.7261
  171SOPE   C1219283   3.731   6.087   6.072  0.4619 -0.0461 -0.5093
  171SOPE  H12A19284   3.734   6.080   5.962 -1.5573  0.2035 -0.6184
  171SOPE  H12B19285   3.817   6.038   6.123  0.3420 -0.6817 -0.9101
  171SOPE   C1119286   3.739   6.233   6.107 -0.1961 -0.7378 -0.0301
  171SOPE  H11A19287   3.658   6.280   6.046 -1.0534 -1.9835  0.1088
  171SOPE  H11B19288   3.833   6.265   6.057  1.3275 -0.8421  2.6064
  171SOPE     P19289   3.857   6.274   6.331  0.3355 -0.4513 -0.2341
  171SOPE   O1319290   3.894   6.412   6.347 -0.3291 -0.2884 -0.1150
  171SOPE   O1419291   3.964   6.191   6.275  0.0225  0.0433  0.7791
  171SOPE   O1219292   3.719   6.250   6.248 -0.3633 -0.7668 -0.4768
  171SOPE   O1119293   3.814   6.220   6.465  0.2120  0.3112 -0.0821
  171SOPE    C119294   3.775   6.081   6.488  0.1572  0.2100 -0.1268
  171SOPE    HA19295   3.844   6.006   6.446 -0.2293 -0.1296 -0.1564
  171SOPE    HB19296   3.677   6.059   6.441  0.2703 -1.5595  0.4120
  171SOPE    C219297   3.766   6.050   6.638  0.4685  0.1741  0.8758
  171SOPE    HS19298   3.724   5.949   6.661 -0.6242  0.4656  0.1939
  171SOPE   O2119299   3.692   6.159   6.696  0.6734  0.3992  0.5743
  171SOPE   C2119300   3.560   6.140   6.678 -0.4794 -0.1464 -0.6499
  171SOPE   O2219301   3.512   6.037   6.626  0.3073 -0.3679  0.0804
  171SOPE   C2219302   3.480   6.264   6.721  0.5866  0.0105  0.4329
  171SOPE   H2R19303   3.462   6.317   6.624 -0.7264 -1.2233 -0.0259
  171SOPE   H2S19304   3.533   6.330   6.793 -0.1734  0.2443  0.7925
  171SOPE    C319305   3.916   6.057   6.698 -0.0343 -0.1606  0.2000
  171SOPE    HX19306   3.970   6.135   6.641  1.8010  0.0807  2.1276
  171SOPE    HY19307   3.964   5.962   6.666 -1.8365 -1.2844  0.6539
  171SOPE   O3119308   3.930   6.077   6.848  0.3535  0.7251  0.8807
  171SOPE   C3119309   3.944   6.197   6.889  0.2897  0.4511  0.4824
  171SOPE   O3219310   3.984   6.292   6.819 -0.0157  0.0525  0.1697
  171SOPE   C3219311   3.907   6.211   7.032  0.5272  0.1188 -0.5609
  171SOPE   H2X19312   3.989   6.168   7.093  1.3118 -0.2402 -1.8221
  171SOPE   H2Y19313   3.818   6.148   7.054  0.9351 -0.2319  0.1086
  171SOPE   C2319314   3.341   6.235   6.782  0.3178 -0.0691  0.5588
  171SOPE   H3R19315   3.294   6.165   6.710  1.0555 -2.0533  1.9409
  171SOPE   H3S19316   3.286   6.330   6.800 -0.3212  0.0567 -1.7979
  171SOPE   C2419317   3.336   6.156   6.919 -1.0328  0.2489 -0.1958
  171SOPE   H4R19318   3.250   6.086   6.922 -0.2034 -0.9003 -1.7237
  171SOPE   H4S19319   3.428   6.093   6.915 -0.4335  1.0930  0.0692
  171SOPE   C2519320   3.343   6.245   7.045  0.3124  0.2502 -0.7556
  171SOPE   H5R19321   3.446   6.284   7.058  1.0501 -2.0404  0.7784
  171SOPE   H5S19322   3.267   6.324   7.024 -0.6448 -0.6897 -0.9014
  171SOPE   C2619323   3.304   6.163   7.168 -0.4063 -0.2476 -0.6723
  171SOPE   H6R19324   3.211   6.109   7.141 -0.8851  0.8669 -1.2808
  171SOPE   H6S19325   3.392   6.095   7.175  0.8689  1.2493 -1.5531
  171SOPE   C2719326   3.285   6.256   7.291 -0.3630 -0.2396  0.2348
  171SOPE   H7R19327   3.376   6.317   7.311 -0.5555 -0.3826  1.6366
  171SOPE   H7S19328   3.199   6.320   7.263 -1.1343 -0.7423  1.4077
  171SOPE   C2819329   3.256   6.173   7.413  0.1474 -0.2698 -0.2986
  171SOPE   H8R19330   3.184   6.096   7.378 -0.1345  0.2141 -0.7909
  171SOPE   H8S19331   3.345   6.110   7.434  1.2726  0.1293 -3.3000
  171SOPE   C2919332   3.203   6.269   7.515 -0.1296  0.0058 -0.1042
  171SOPE   H9119333   3.112   6.325   7.491 -1.1784 -1.7732 -0.3729
  171SOPE  C21019334   3.262   6.294   7.636  0.6775 -0.2060  0.0717
  171SOPE  H10119335   3.208   6.368   7.696 -1.3479  0.3702 -2.2934
  171SOPE  C21119336   3.396   6.238   7.690  0.4419 -0.0534  0.0699
  171SOPE  H11R19337   3.486   6.280   7.641  1.3825  1.4199  2.8522
  171SOPE  H11S19338   3.374   6.130   7.672  1.2107  0.0674 -1.9410
  171SOPE  C21219339   3.418   6.250   7.846 -0.0850  0.0112 -0.3163
  171SOPE  H12R19340   3.329   6.202   7.892  0.3723 -1.1519 -0.6050
  171SOPE  H12S19341   3.416   6.356   7.878 -1.8018 -0.2158  0.4735
  171SOPE  C21319342   3.549   6.187   7.887 -0.0583 -1.2637 -0.3939
  171SOPE  H13R19343   3.634   6.232   7.831  0.4959 -0.2432  1.2009
  171SOPE  H13S19344   3.549   6.078   7.866  2.6128 -1.2915 -0.6593
  171SOPE  C21419345   3.565   6.204   8.031  0.0596 -0.5558  0.6773
  171SOPE  H14R19346   3.641   6.140   8.080 -0.2286 -0.4657  1.2450
  171SOPE  H14S19347   3.470   6.187   8.085 -2.2181  1.5564 -2.2966
  171SOPE  C21519348   3.595   6.355   8.055 -0.2991  0.2607 -0.6640
  171SOPE  H15R19349   3.503   6.415   8.066 -1.1941 -1.3875  1.4136
  171SOPE  H15S19350   3.650   6.391   7.965  1.6685 -0.2621  0.2743
  171SOPE  C21619351   3.713   6.364   8.158  0.5177  0.1408  0.2600
  171SOPE  H16R19352   3.812   6.349   8.110  0.6278 -0.3716  0.6387
  171SOPE  H16S19353   3.693   6.274   8.221 -0.0725  0.2377  0.2158
  171SOPE  C21719354   3.703   6.487   8.249  0.0310  0.0717  0.2088
  171SOPE  H17R19355   3.784   6.490   8.325 -1.4043 -1.3182  1.8895
  171SOPE  H17S19356   3.609   6.490   8.309 -1.0824 -0.0243 -1.4774
  171SOPE  C21819357   3.710   6.610   8.159 -0.3223 -0.9018 -0.1904
  171SOPE  H18R19358   3.699   6.704   8.217  1.4644  1.1557 -2.9424
  171SOPE  H18S19359   3.637   6.613   8.076  1.4733 -2.3902 -1.9056
  171SOPE  H18T19360   3.815   6.613   8.121 -0.3223  2.7666 -0.3084
  171SOPE   C3319361   3.872   6.354   7.080 -0.2592 -0.0348  0.5230
  171SOPE   H3X19362   3.952   6.424   7.048  0.2769 -1.1835 -0.7950
  171SOPE   H3Y19363   3.861   6.347   7.190  3.7254  2.7680  1.3191
  171SOPE   C3419364   3.745   6.419   7.028  0.7178  0.1157  0.2295
  171SOPE   H4X19365   3.655   6.369   7.070 -0.2814  2.0443  0.4892
  171SOPE   H4Y19366   3.747   6.419   6.917 -1.3934 -0.3842  0.1642
  171SOPE   C3519367   3.737   6.565   7.077  0.5409  0.7859 -0.3259
  171SOPE   H5X19368   3.808   6.619   7.011  1.1580 -1.8568 -1.9805
  171SOPE   H5Y19369   3.776   6.563   7.181  0.1924 -0.9169 -0.1884
  171SOPE   C3619370   3.601   6.624   7.084 -0.4682  0.2783 -0.3885
  171SOPE   H6X19371   3.527   6.570   7.148  0.2691 -1.0462 -0.6176
  171SOPE   H6Y19372   3.565   6.628   6.979  1.7290 -1.6970 -1.2994
  171SOPE   C3719373   3.618   6.762   7.143  0.1045  0.1697 -0.7494
  171SOPE   H7X19374   3.666   6.826   7.066  0.4089  0.2464 -0.4955
  171SOPE   H7Y19375   3.685   6.756   7.231 -1.4366  0.0036  0.4550
  171SOPE   C3819376   3.481   6.814   7.191 -0.2830  0.1411 -0.2780
  171SOPE   H8X19377   3.430   6.735   7.249  2.3507 -2.6781 -1.5197
  171SOPE   H8Y19378   3.414   6.825   7.103  0.7097  1.8198 -0.8886
  171SOPE   C3919379   3.497   6.940   7.273 -0.1904  0.2081  0.7874
  171SOPE   H9X19380   3.541   7.017   7.206  0.9491 -0.1303  1.1261
  171SOPE   H9Y19381   3.572   6.930   7.354  0.1918 -0.5157  0.3442
  171SOPE  C31019382   3.363   6.984   7.330  0.1497 -0.4180 -0.0007
  171SOPE  H10X19383   3.293   6.956   7.248  1.1436  0.2256 -1.0998
  171SOPE  H10Y19384   3.367   7.095   7.334 -0.4870 -0.4189  1.0524
  171SOPE  C31119385   3.345   6.930   7.470 -0.6223 -0.0366  0.2506
  171SOPE  H11X19386   3.420   6.971   7.542  0.2983 -0.4210 -0.4690
  171SOPE  H11Y19387   3.365   6.821   7.467 -2.7705 -0.5134  1.5796
  171SOPE  C31219388   3.204   6.950   7.529  0.1720  0.2696 -0.2372
  171SOPE  H12X19389   3.121   6.938   7.455  0.2506  0.6323 -0.3845
  171SOPE  H12Y19390   3.207   7.058   7.553  0.5871  0.3595 -0.6876
  171SOPE  C31319391   3.176   6.881   7.661  0.2684 -0.1348 -0.7272
  171SOPE  H13X19392   3.166   6.771   7.648  3.2920 -0.5547 -0.3242
  171SOPE  H13Y19393   3.080   6.912   7.706 -0.1977 -1.2399 -0.9222
  171SOPE  C31419394   3.267   6.904   7.781  0.1851  0.3619  0.3868
  171SOPE  H14X19395   3.278   7.014   7.791  0.9210  0.2477  0.8868
  171SOPE  H14Y19396   3.365   6.860   7.749 -0.4538 -1.4049  0.7395
  171SOPE  C31519397   3.226   6.831   7.903  0.3441  0.2525  0.7276
  171SOPE  H15X19398   3.213   6.725   7.875  0.2191  0.7390 -1.1811
  171SOPE  H15Y19399   3.130   6.874   7.939 -0.9964 -0.8423 -1.3670
  171SOPE  C31619400   3.331   6.846   8.007  0.4229  0.8304 -0.0323
  171SOPE  H16X19401   3.350   6.953   8.029 -2.3743  1.6332 -1.1097
  171SOPE  H16Y19402   3.432   6.819   7.967 -0.3274  2.6736 -3.6391
  171SOPE  C31719403   3.289   6.773   8.132  0.8385 -0.2296 -0.5108
  171SOPE  H17X19404   3.380   6.771   8.195  2.0362 -0.9843 -2.2094
  171SOPE  H17Y19405   3.267   6.669   8.101  3.9994 -0.6067 -1.7996
  171SOPE  C31819406   3.181   6.844   8.213 -0.1949 -0.5971  0.1577
  171SOPE  H18X19407   3.190   6.828   8.323  2.1353 -1.6645 -0.1432
  171SOPE  H18Y19408   3.080   6.826   8.170  0.4970  0.9938 -2.3100
  171SOPE  H18Z19409   3.189   6.954   8.206 -1.3027 -0.4865  0.3899
  172SOPE     N19410   4.385   0.839   6.422  1.1433  0.1649  0.3235
  172SOPE   HN119411   4.415   0.847   6.521 -0.4223 -1.9465  1.0385
  172SOPE   HN219412   4.426   0.754   6.378  3.2615  1.5532 -0.5421
  172SOPE   HN319413   4.424   0.915   6.362 -0.2240 -1.7980 -3.4236
  172SOPE   C1219414   4.232   0.832   6.412  0.0943 -0.3540 -0.7572
  172SOPE  H12A19415   4.205   0.730   6.447 -2.0640  1.3765  3.2608
  172SOPE  H12B19416   4.204   0.855   6.307  2.6801  4.6892 -0.6824
  172SOPE   C1119417   4.150   0.938   6.495  0.0795  0.4652  0.4861
  172SOPE  H11A19418   4.164   0.923   6.604 -2.6290 -3.6012  0.5055
  172SOPE  H11B19419   4.046   0.911   6.466  0.3515  0.7556 -0.8442
  172SOPE     P19420   4.266   1.185   6.519  0.1392  0.3428  0.3443
  172SOPE   O1319421   4.348   1.229   6.404  0.5375  0.5269  0.2199
  172SOPE   O1419422   4.331   1.132   6.642  0.3426  0.1712  0.1733
  172SOPE   O1219423   4.172   1.074   6.462 -0.5035  0.2107  0.1595
  172SOPE   O1119424   4.161   1.297   6.553 -0.4006 -0.6642  0.4617
  172SOPE    C119425   4.025   1.266   6.582 -0.6689  0.4882  0.4926
  172SOPE    HA19426   3.984   1.185   6.518  0.6533 -0.0314  0.2844
  172SOPE    HB19427   3.979   1.357   6.537  1.6282  1.6199  0.3168
  172SOPE    C219428   3.996   1.256   6.732  0.0740 -0.0158 -0.3480
  172SOPE    HS19429   3.889   1.277   6.750 -0.7246 -1.7058 -2.6113
  172SOPE   O2119430   4.087   1.333   6.813 -0.0889  0.0984  0.4719
  172SOPE   C2119431   4.064   1.462   6.807  0.5892 -0.1977  0.5034
  172SOPE   O2219432   3.970   1.519   6.752 -0.5803 -0.1629 -0.0734
  172SOPE   C2219433   4.151   1.535   6.905  0.0340  0.2971  0.3858
  172SOPE   H2R19434   4.257   1.519   6.877 -0.2083 -1.3878  0.3511
  172SOPE   H2S19435   4.144   1.481   7.001 -0.4791  1.5308  1.0684
  172SOPE    C319436   4.007   1.112   6.783 -0.5575  0.7771  0.2856
  172SOPE    HX19437   4.114   1.082   6.780 -0.8158 -0.6440  2.5915
  172SOPE    HY19438   3.947   1.051   6.713  1.0444  0.8556 -1.2080
  172SOPE   O3119439   3.966   1.105   6.919  0.3952  0.3265 -0.3344
  172SOPE   C3119440   3.984   0.988   6.977  0.6479  0.2068 -0.1155
  172SOPE   O3219441   4.016   0.882   6.929  0.3314  0.4773  0.1286
  172SOPE   C3219442   3.951   1.009   7.118  0.6493 -0.4632 -0.7964
  172SOPE   H2X19443   3.845   1.040   7.127  0.8236 -0.0858  0.0113
  172SOPE   H2Y19444   4.006   1.092   7.168 -2.3793  1.1107  0.1869
  172SOPE   C2319445   4.115   1.684   6.930 -0.7097 -0.1561  0.0505
  172SOPE   H3R19446   4.004   1.685   6.942 -0.8531  0.2362 -1.1778
  172SOPE   H3S19447   4.133   1.754   6.845  0.4449  1.9660  1.9327
  172SOPE   C2419448   4.168   1.748   7.056  0.5881  0.2058 -0.2426
  172SOPE   H4R19449   4.278   1.731   7.061  0.4118 -3.4446 -3.4208
  172SOPE   H4S19450   4.137   1.855   7.047 -1.8812 -0.4794 -0.7012
  172SOPE   C2519451   4.089   1.689   7.167 -0.5286  0.0958 -0.0998
  172SOPE   H5R19452   4.015   1.758   7.213  1.3119 -0.4292  4.0550
  172SOPE   H5S19453   4.033   1.597   7.140  1.5939 -1.1209 -0.5700
  172SOPE   C2619454   4.171   1.677   7.296  0.0881  1.2310 -0.5033
  172SOPE   H6R19455   4.248   1.597   7.306 -1.2510 -0.0946 -0.3527
  172SOPE   H6S19456   4.227   1.773   7.306  1.4422  0.4760 -0.4968
  172SOPE   C2719457   4.082   1.650   7.420 -0.3423 -0.1546  0.2939
  172SOPE   H7R19458   4.152   1.656   7.506  0.7814 -2.7414 -0.3447
  172SOPE   H7S19459   4.008   1.733   7.428  0.4067  0.5198  0.3600
  172SOPE   C2819460   4.010   1.509   7.425 -0.3133 -0.1044  0.0869
  172SOPE   H8R19461   4.064   1.428   7.372 -0.5807  0.1868 -0.6509
  172SOPE   H8S19462   3.998   1.473   7.529  1.3126  0.1215  0.3798
  172SOPE   C2919463   3.870   1.511   7.364 -0.5126  0.2628 -0.7165
  172SOPE   H9119464   3.874   1.516   7.255  1.1116  0.9118 -0.6531
  172SOPE  C21019465   3.751   1.512   7.432 -0.0618  0.4362  0.1603
  172SOPE  H10119466   3.659   1.515   7.371 -1.9692 -0.7809  2.8116
  172SOPE  C21119467   3.735   1.506   7.582 -0.2527  0.6731 -0.3000
  172SOPE  H11R19468   3.822   1.558   7.629  0.3472  0.3339 -1.0092
  172SOPE  H11S19469   3.716   1.403   7.620 -1.6497  0.2143 -2.1159
  172SOPE  C21219470   3.626   1.600   7.632 -0.4478 -0.3159  0.6185
  172SOPE  H12R19471   3.530   1.570   7.585  0.2465 -0.6427 -0.6601
  172SOPE  H12S19472   3.643   1.708   7.617 -1.3770 -0.3484 -0.8651
  172SOPE  C21319473   3.598   1.570   7.784 -0.2967 -0.6287 -0.1422
  172SOPE  H13R19474   3.701   1.583   7.825  1.7043 -1.0229 -4.4339
  172SOPE  H13S19475   3.567   1.464   7.789 -0.1244 -0.8726 -2.8976
  172SOPE  C21419476   3.485   1.656   7.842 -0.5404 -0.2094 -0.4815
  172SOPE  H14R19477   3.390   1.647   7.786  0.0317  1.4644 -1.8014
  172SOPE  H14S19478   3.513   1.763   7.826 -2.5915  0.2675 -1.0949
  172SOPE  C21519479   3.459   1.642   7.993  0.2070  0.4376  0.3626
  172SOPE  H15R19480   3.549   1.678   8.048  0.4150  2.3931 -1.1380
  172SOPE  H15S19481   3.431   1.537   8.014 -2.4007  0.8532 -0.5713
  172SOPE  C21619482   3.337   1.721   8.047 -0.5221  0.5427  0.4297
  172SOPE  H16R19483   3.259   1.698   7.971 -1.2863  1.7537  0.8256
  172SOPE  H16S19484   3.355   1.830   8.032 -0.7908  0.6096  0.5975
  172SOPE  C21719485   3.277   1.680   8.184  0.4315 -0.5093  1.1220
  172SOPE  H17R19486   3.247   1.573   8.179  0.0658 -0.3722  0.3303
  172SOPE  H17S19487   3.190   1.748   8.190  0.4160 -0.3303 -0.6698
  172SOPE  C21819488   3.357   1.706   8.309  0.2077 -0.2328  0.0580
  172SOPE  H18R19489   3.466   1.694   8.286 -0.1821 -2.4142 -0.9755
  172SOPE  H18S19490   3.341   1.622   8.380  1.2943  0.4372  1.1313
  172SOPE  H18T19491   3.334   1.801   8.361  0.7037 -0.1677  0.1631
  172SOPE   C3319492   3.970   0.883   7.203 -0.0025 -0.8254  1.0556
  172SOPE   H3X19493   4.076   0.856   7.224  0.8694  1.2531 -0.4243
  172SOPE   H3Y19494   3.926   0.792   7.155  1.9679 -0.6492 -1.2470
  172SOPE   C3419495   3.901   0.892   7.343  0.0057 -0.2897  1.0558
  172SOPE   H4X19496   3.794   0.887   7.316  0.1405  0.9975  0.2105
  172SOPE   H4Y19497   3.910   0.995   7.383  2.3239 -1.1345  2.9354
  172SOPE   C3519498   3.931   0.784   7.449  0.5084  0.6866 -0.7774
  172SOPE   H5X19499   4.041   0.790   7.469  0.1069  1.7279  1.4719
  172SOPE   H5Y19500   3.891   0.682   7.437  0.4717  0.5867  0.1324
  172SOPE   C3619501   3.860   0.829   7.574 -0.2127  0.0169 -0.3410
  172SOPE   H6X19502   3.751   0.820   7.557 -0.1610 -0.7620 -0.3362
  172SOPE   H6Y19503   3.872   0.938   7.590 -0.7137  0.0460 -0.1375
  172SOPE   C3719504   3.902   0.750   7.691  0.3934  0.0543 -0.0313
  172SOPE   H7X19505   4.012   0.762   7.694  0.4160  0.0887 -0.8681
  172SOPE   H7Y19506   3.869   0.645   7.679  0.5850 -0.2082  1.5808
  172SOPE   C3819507   3.846   0.798   7.820  0.4271 -0.3923  0.1127
  172SOPE   H8X19508   3.735   0.803   7.815  0.4782 -0.1215 -1.2562
  172SOPE   H8Y19509   3.884   0.900   7.844 -0.9427  0.1248  0.1959
  172SOPE   C3919510   3.875   0.705   7.937  0.1881 -0.1391 -0.3311
  172SOPE   H9X19511   3.985   0.708   7.948  0.3664 -2.1002 -1.2302
  172SOPE   H9Y19512   3.835   0.606   7.909 -2.8844  1.0396 -0.5432
  172SOPE  C31019513   3.837   0.760   8.073  0.0729 -0.1022  0.1664
  172SOPE  H10X19514   3.726   0.772   8.079  0.1432  0.7797 -0.1766
  172SOPE  H10Y19515   3.869   0.866   8.072 -1.5903  0.4436 -0.9954
  172SOPE  C31119516   3.877   0.678   8.189 -0.1429  0.4621  0.4235
  172SOPE  H11X19517   3.981   0.639   8.182 -1.1332 -2.1273 -1.7283
  172SOPE  H11Y19518   3.809   0.591   8.179 -1.2782  1.4781 -1.1168
  172SOPE  C31219519   3.859   0.758   8.318 -0.0216  0.0115  0.2292
  172SOPE  H12X19520   3.751   0.783   8.326 -0.2606 -1.0833  0.6678
  172SOPE  H12Y19521   3.916   0.853   8.308  0.1931 -0.0293  1.0229
  172SOPE  C31319522   3.902   0.690   8.448  0.3639  0.0590  0.0929
  172SOPE  H13X19523   4.012   0.675   8.454  0.2618 -0.0983  1.8800
  172SOPE  H13Y19524   3.866   0.585   8.439 -0.7617  0.2472  1.8664
  172SOPE  C31419525   3.836   0.752   8.573 -0.4536  0.3706  0.6952
  172SOPE  H14X19526   3.725   0.760   8.565 -0.3415  0.2063 -3.7293
  172SOPE  H14Y19527   3.873   0.857   8.568 -0.7043  0.4751  0.9663
  172SOPE  C31519528   3.870   0.694   8.710 -0.6438  0.1482  0.0454
  172SOPE  H15X19529   3.980   0.704   8.721 -0.9553  3.2760  1.5009
  172SOPE  H15Y19530   3.853   0.584   8.705 -0.4470  0.0309  1.4079
  172SOPE  C31619531   3.801   0.762   8.828 -0.2076 -0.0991  0.1322
  172SOPE  H16X19532   3.805   0.873   8.817 -1.0533 -0.1881 -1.4299
  172SOPE  H16Y19533   3.843   0.732   8.926 -2.2239 -0.9475  0.7762
  172SOPE  C31719534   3.656   0.717   8.843  0.0992  0.0506  0.0968
  172SOPE  H17X19535   3.665   0.607   8.862 -1.1832 -0.0683  0.1538
  172SOPE  H17Y19536   3.602   0.720   8.746  0.5687 -2.8109 -0.3500
  172SOPE  C31819537   3.566   0.775   8.952  0.3499 -0.0593 -0.1045
  172SOPE  H18X19538   3.459   0.770   8.925  0.0556  2.5036  0.3676
  172SOPE  H18Y19539   3.605   0.879   8.956  1.3613 -0.3627 -1.3902
  172SOPE  H18Z19540   3.580   0.716   9.045 -1.9077 -1.6208 -0.6832
  173SAPI   C1219541   5.126   6.233  10.786 -0.4124  0.9149  0.4244
  173SAPI    H219542   5.099   6.128  10.813  1.5036 -0.0687 -1.1598
  173SAPI    O219543   5.065   6.238  10.656 -0.2570  0.3079 -0.3697
  173SAPI   HO219544   5.136   6.205  10.600 -0.7765  0.0477 -0.8816
  173SAPI   C1319545   5.052   6.329  10.878  0.4307 -0.1109  0.5767
  173SAPI    H319546   5.091   6.323  10.981  0.6914  1.5232  0.6000
  173SAPI    O319547   4.910   6.303  10.871  0.1526  0.3906 -0.2232
  173SAPI   HO319548   4.872   6.336  10.790 -0.6690  1.1786  0.4538
  173SAPI   C1419549   5.084   6.480  10.845  0.8212 -0.4016  0.2315
  173SAPI    H419550   5.040   6.498  10.745  1.8255  0.1157 -0.1271
  173SAPI    O419551   5.014   6.583  10.916 -0.3312  0.5849  0.3389
  173SAPI   HO419552   4.921   6.587  10.895 -0.3250 -1.0016 -0.0969
  173SAPI   C1519553   5.231   6.507  10.846 -0.6507  0.4933 -0.0281
  173SAPI    H519554   5.266   6.505  10.952 -1.5563 -1.0900  0.2753
  173SAPI    O519555   5.258   6.641  10.805 -0.3862  0.6093 -0.1432
  173SAPI   HO519556   5.202   6.673  10.735 -0.3878  1.0139  0.0409
  173SAPI   C1619557   5.309   6.408  10.762 -0.4714 -0.3828  0.4359
  173SAPI    H619558   5.292   6.424  10.653  2.0140 -2.3884 -0.3650
  173SAPI    O619559   5.450   6.419  10.787  0.1912 -0.4874 -0.0018
  173SAPI   HO619560   5.490   6.355  10.729  1.2403  0.7715 -0.7128
  173SAPI   C1119561   5.277   6.263  10.788 -0.5223 -0.4538 -0.4729
  173SAPI    H119562   5.296   6.233  10.893 -2.8535  0.8511  0.3851
  173SAPI     P19563   5.342   6.015  10.713 -0.0104 -0.3220 -0.5016
  173SAPI   O1319564   5.289   5.985  10.849 -0.4236  0.2480  0.1152
  173SAPI   O1419565   5.467   5.945  10.670 -0.4541 -0.0055 -0.4165
  173SAPI   O1219566   5.349   6.181  10.693  0.5872  0.1204  0.2201
  173SAPI   O1119567   5.236   5.991  10.596 -0.3587 -0.3970 -0.0537
  173SAPI    C119568   5.181   5.863  10.581  0.2488  0.7817 -0.7640
  173SAPI    HA19569   5.261   5.792  10.549 -0.7071  0.1530 -1.8291
  173SAPI    HB19570   5.124   5.828  10.670  1.2278  0.1045 -0.3825
  173SAPI    C219571   5.080   5.859  10.465 -0.7997 -0.2588 -0.2552
  173SAPI    HS19572   5.030   5.761  10.451 -0.0350 -0.8235  0.7880
  173SAPI   O2119573   5.149   5.895  10.344 -0.3308 -0.4042  0.3516
  173SAPI   C2119574   5.236   5.806  10.298 -0.4441 -0.7575  0.4172
  173SAPI   O2219575   5.243   5.688  10.318  0.7533  0.2973  0.1996
  173SAPI   C2219576   5.325   5.882  10.197  0.0859  0.0588  0.0295
  173SAPI   H2R19577   5.415   5.822  10.170  1.5130  1.4030  1.5945
  173SAPI   H2S19578   5.260   5.918  10.114  1.8638  0.9681 -1.0411
  173SAPI    C319579   4.972   5.962  10.494  0.0879  0.0338  0.4565
  173SAPI    HX19580   5.017   6.061  10.473 -1.8632  0.8358 -0.2280
  173SAPI    HY19581   4.934   5.961  10.599  0.4172  0.9068  0.5984
  173SAPI   O3119582   4.869   5.953  10.400 -0.0046  0.5565  0.0640
  173SAPI   C3119583   4.761   5.884  10.430 -0.5446  0.0572  0.4151
  173SAPI   O3219584   4.749   5.814  10.525  0.2144  0.1452 -0.7513
  173SAPI   C3219585   4.654   5.893  10.317  0.3283 -0.2427 -0.1296
  173SAPI   H2X19586   4.582   5.967  10.358 -0.0930 -1.4081  1.2912
  173SAPI   H2Y19587   4.601   5.796  10.326 -0.0577 -0.0753 -0.5552
  173SAPI   C2319588   5.380   6.013  10.264  0.4536  0.1300  0.1257
  173SAPI   H3R19589   5.423   5.990  10.365 -0.0382  0.2657  0.3673
  173SAPI   H3S19590   5.299   6.083  10.291  0.1578  0.0580 -0.5679
  173SAPI   C2419591   5.486   6.083  10.176 -0.0699 -0.0259  0.1030
  173SAPI   H4R19592   5.561   6.007  10.146  0.8066  0.8254  0.0907
  173SAPI   H4S19593   5.545   6.155  10.236  1.0977 -0.6542 -0.2636
  173SAPI   C2519594   5.416   6.149  10.056  1.0688  0.6512  0.6549
  173SAPI   H5R19595   5.354   6.236  10.084 -0.9996  0.1336 -1.8847
  173SAPI   C2619596   5.425   6.109   9.926 -0.4459  0.7671  0.4713
  173SAPI   H6R19597   5.365   6.155   9.846  0.5220  0.3413 -0.5221
  173SAPI   C2719598   5.504   5.993   9.869 -0.1176  0.3872 -0.2016
  173SAPI   H7R19599   5.432   5.943   9.801  1.0615 -2.4949  0.5286
  173SAPI   H7S19600   5.523   5.911   9.942  1.6640  1.2504  0.3596
  173SAPI   C2819601   5.632   6.015   9.791 -0.0853 -0.4334  0.2299
  173SAPI   H8R19602   5.728   6.007   9.844  0.1449  1.6547  0.1735
  173SAPI   C2919603   5.643   6.055   9.656  0.3654 -0.2186  0.4419
  173SAPI   H9R19604   5.744   6.070   9.616  0.2701 -1.6364 -0.3857
  173SAPI  C21019605   5.521   6.080   9.562  0.0334 -0.6204 -0.2084
  173SAPI  H10R19606   5.480   6.182   9.577 -1.3334 -0.8613 -2.0170
  173SAPI  H10S19607   5.452   5.995   9.580  0.7091 -0.7581  2.0146
  173SAPI  C21119608   5.565   6.077   9.417 -1.2151 -1.0096 -0.7704
  173SAPI  H11R19609   5.568   6.173   9.364 -2.2842 -0.6084 -0.1399
  173SAPI  C21219610   5.582   5.956   9.355 -0.0863 -0.2539  0.3069
  173SAPI  H12R19611   5.613   5.949   9.250  1.4094  0.5320  0.6705
  173SAPI  C21319612   5.553   5.819   9.411 -0.2485 -0.1002 -0.2492
  173SAPI  H13R19613   5.552   5.821   9.522  0.0169 -0.2425 -0.2409
  173SAPI  H13S19614   5.646   5.762   9.387  0.1267  0.3956  0.0217
  173SAPI  C21419615   5.432   5.754   9.352  0.6321 -0.3246 -0.3806
  173SAPI  H14R19616   5.379   5.796   9.266 -1.9244 -0.7517  0.8768
  173SAPI  C21519617   5.384   5.631   9.386 -0.4169 -0.4315  0.5420
  173SAPI  H15R19618   5.287   5.592   9.354 -0.3449 -1.5429  1.5831
  173SAPI  C21619619   5.447   5.541   9.488 -0.2325  0.0480  0.3656
  173SAPI  H16R19620   5.547   5.571   9.526 -0.2830  0.9670 -0.2076
  173SAPI  H16S19621   5.468   5.443   9.439 -1.8274  0.5832 -1.4988
  173SAPI  C21719622   5.362   5.514   9.615  0.9313  0.1965  0.0543
  173SAPI  H17R19623   5.387   5.412   9.652  1.6206  0.8785  1.5778
  173SAPI  H17S19624   5.255   5.509   9.585  1.2225 -2.0868 -0.8821
  173SAPI  C21819625   5.362   5.620   9.734 -0.0195  0.3105  0.6995
  173SAPI  H18R19626   5.303   5.701   9.687 -0.9597 -1.1843 -0.8231
  173SAPI  H18S19627   5.461   5.655   9.768 -0.9317  0.5819  3.3589
  173SAPI  C21919628   5.283   5.577   9.859 -0.4725  0.1497 -0.0067
  173SAPI  H19R19629   5.175   5.580   9.835 -0.2096 -0.3575 -1.2968
  173SAPI  H19S19630   5.313   5.661   9.925  2.5684  0.9275 -2.1945
  173SAPI  C22019631   5.314   5.447   9.919 -0.5280  0.7237 -0.1967
  173SAPI  H20R19632   5.268   5.448  10.020  1.3628  1.1152  0.7048
  173SAPI  H20S19633   5.424   5.432   9.931 -0.5333  1.3646  0.7708
  173SAPI  H20T19634   5.274   5.359   9.864  0.9638 -0.2866  0.2797
  173SAPI   C3319635   4.700   5.922  10.174 -0.9608 -0.6616  0.3488
  173SAPI   H3X19636   4.769   6.009  10.173 -2.4325  0.5430 -0.1380
  173SAPI   H3Y19637   4.618   5.959  10.109  0.4237  1.7375 -0.1385
  173SAPI   C3419638   4.750   5.799  10.095  0.9323  0.3361 -0.2591
  173SAPI   H4X19639   4.665   5.732  10.073  1.3383  0.1627 -1.3554
  173SAPI   H4Y19640   4.838   5.752  10.146  1.4736 -0.4913 -1.8911
  173SAPI   C3519641   4.802   5.847   9.960 -0.1884  0.7329 -0.8213
  173SAPI   H5X19642   4.887   5.914   9.986  0.4152 -0.2907 -0.1073
  173SAPI   H5Y19643   4.739   5.908   9.891 -2.3502  0.0126  0.3966
  173SAPI   C3619644   4.858   5.725   9.887 -0.1069 -0.6953  0.9506
  173SAPI   H6X19645   4.904   5.647   9.951  2.3191  0.5492  0.8602
  173SAPI   H6Y19646   4.939   5.764   9.822 -1.6219  0.0388 -0.5631
  173SAPI   C3719647   4.742   5.671   9.799 -0.2317 -0.2592  0.7816
  173SAPI   H7X19648   4.655   5.717   9.850  0.5784  3.2439 -0.6991
  173SAPI   H7Y19649   4.733   5.562   9.819  1.9189 -0.4366  1.0285
  173SAPI   C3819650   4.732   5.704   9.651  0.0706  0.0949  0.3317
  173SAPI   H8X19651   4.747   5.814   9.647 -0.1800  0.1578  0.9815
  173SAPI   H8Y19652   4.630   5.670   9.622 -0.0874 -0.9849  1.9756
  173SAPI   C3919653   4.841   5.634   9.566 -0.4106  0.3425  0.1059
  173SAPI   H9X19654   4.829   5.524   9.573  0.8690 -0.0206 -2.4051
  173SAPI   H9Y19655   4.936   5.670   9.610 -0.2806  0.4930 -0.2913
  173SAPI  C31019656   4.833   5.675   9.417  0.1015 -1.1717  0.1164
  173SAPI  H10X19657   4.871   5.779   9.413  1.3980 -1.6725 -1.5197
  173SAPI  H10Y19658   4.729   5.684   9.378 -0.3290 -1.6444  1.1259
  173SAPI  C31119659   4.925   5.592   9.324 -0.6001 -0.7179 -0.5332
  173SAPI  H11X19660   4.886   5.489   9.335 -1.5248 -0.0842  4.4529
  173SAPI  H11Y19661   5.023   5.601   9.376 -1.4096  1.6558  0.7128
  173SAPI  C31219662   4.935   5.636   9.174 -0.5759 -0.0094 -0.3145
  173SAPI  H12X19663   5.014   5.575   9.126  0.9082  1.5775  0.0208
  173SAPI  H12Y19664   4.960   5.743   9.154 -0.0663  0.2647  1.5620
  173SAPI  C31319665   4.802   5.619   9.097  0.6642  0.0743 -0.1788
  173SAPI  H13X19666   4.736   5.695   9.145  1.6514 -0.0107  1.3617
  173SAPI  H13Y19667   4.766   5.517   9.124  0.8318  0.2692  0.8299
  173SAPI  C31419668   4.821   5.634   8.942  0.0312 -0.2956 -0.7821
  173SAPI  H14X19669   4.893   5.555   8.912  1.6875  0.7574  0.2974
  173SAPI  H14Y19670   4.867   5.734   8.927  1.3297 -0.8015 -0.2953
  173SAPI  C31519671   4.692   5.602   8.864 -0.0875  0.0760 -0.0618
  173SAPI  H15X19672   4.618   5.662   8.921  1.8573  0.9615  1.6696
  173SAPI  H15Y19673   4.676   5.494   8.885 -0.2204  0.5005  2.3347
  173SAPI  C31619674   4.700   5.637   8.718 -0.1757  0.0948  0.0934
  173SAPI  H16X19675   4.793   5.591   8.677  0.2427 -1.1644  2.2579
  173SAPI  H16Y19676   4.726   5.745   8.724  3.0180 -0.5543  0.1081
  173SAPI  C31719677   4.583   5.605   8.630 -0.5354 -0.2639  0.4205
  173SAPI  H17X19678   4.489   5.644   8.676 -0.4569  0.1443  0.2420
  173SAPI  H17Y19679   4.565   5.496   8.635 -1.1125 -0.1226  3.6316
  173SAPI  C31819680   4.592   5.648   8.478  0.5588  0.3835 -0.0834
  173SAPI  H18X19681   4.668   5.585   8.427  0.4136 -0.4771  0.7442
  173SAPI  H18Y19682   4.625   5.753   8.468  1.2365  0.0163 -2.2658
  173SAPI  H18Z19683   4.494   5.625   8.431  1.0510  0.8842 -1.4160
  174SAPI   C1219684   2.422   2.150  10.832 -0.4852  0.1607  0.3901
  174SAPI    H219685   2.401   2.089  10.741 -3.2686  0.3331  0.8305
  174SAPI    O219686   2.517   2.257  10.801 -0.5871 -0.8067 -0.4064
  174SAPI   HO219687   2.607   2.223  10.800 -1.3725 -3.0784  0.5749
  174SAPI   C1319688   2.285   2.202  10.865  0.1718 -0.0930  0.0154
  174SAPI    H319689   2.218   2.114  10.873 -1.8681  1.2578 -1.4695
  174SAPI    O319690   2.230   2.264  10.747  0.6078  0.5042  0.4715
  174SAPI   HO319691   2.297   2.318  10.704  0.0245  0.9747  0.1523
  174SAPI   C1419692   2.279   2.282  10.995 -0.6717 -0.6448  0.4280
  174SAPI    H419693   2.341   2.372  10.981 -0.1716 -0.8730  1.1091
  174SAPI    O419694   2.146   2.331  11.012  0.1424 -0.0135 -0.3461
  174SAPI   HO419695   2.145   2.427  11.020 -0.6062 -0.1376  1.7521
  174SAPI   C1519696   2.338   2.199  11.102  0.0924  0.9078  0.6125
  174SAPI    H519697   2.266   2.115  11.115  1.1866 -0.1221  0.1942
  174SAPI    O519698   2.353   2.274  11.229 -0.0929  0.2106  0.1312
  174SAPI   HO519699   2.358   2.201  11.291  1.1163 -0.6813 -0.9626
  174SAPI   C1619700   2.478   2.139  11.067  0.0296 -0.2313  0.0314
  174SAPI    H619701   2.549   2.224  11.054 -2.8431  2.6620  1.7474
  174SAPI    O619702   2.529   2.056  11.164 -0.1979  0.0584 -0.2564
  174SAPI   HO619703   2.621   2.056  11.136 -0.3994 -0.4112 -0.9208
  174SAPI   C1119704   2.471   2.057  10.939  0.1415 -0.2621  0.2533
  174SAPI    H119705   2.396   1.976  10.951 -1.1558  0.6739 -1.2037
  174SAPI     P19706   2.601   1.852  10.835 -0.1852 -0.4528 -0.3582
  174SAPI   O1319707   2.513   1.772  10.927 -0.5625  0.7868 -0.2792
  174SAPI   O1419708   2.740   1.801  10.826 -0.1245 -0.1023 -0.1712
  174SAPI   O1219709   2.601   2.007  10.893  0.7092 -0.0056  0.1450
  174SAPI   O1119710   2.532   1.854  10.699  0.3042  0.0556  0.7043
  174SAPI    C119711   2.599   1.846  10.570  0.3902  0.5974  0.6463
  174SAPI    HA19712   2.659   1.939  10.558 -0.0539  0.6188 -1.7278
  174SAPI    HB19713   2.674   1.764  10.574 -0.4172 -0.2930 -1.3178
  174SAPI    C219714   2.502   1.811  10.452  0.3570  0.4495 -0.1505
  174SAPI    HS19715   2.535   1.713  10.412 -0.9152 -0.5614  1.1867
  174SAPI   O2119716   2.516   1.914  10.353 -0.5379 -0.1785 -0.0005
  174SAPI   C2119717   2.635   1.904  10.292 -0.1988  0.3158 -0.9371
  174SAPI   O2219718   2.712   1.806  10.304 -0.1723 -0.5145  0.0295
  174SAPI   C2219719   2.657   2.033  10.214  0.2661 -0.5255 -0.5159
  174SAPI   H2R19720   2.559   2.079  10.188  0.5737  0.5603  0.1920
  174SAPI   H2S19721   2.706   2.095  10.291  1.2025 -2.0638  0.1819
  174SAPI    C319722   2.356   1.786  10.505  0.1031 -0.2832  0.0080
  174SAPI    HX19723   2.331   1.883  10.553  1.2317  0.3402 -0.6268
  174SAPI    HY19724   2.352   1.700  10.576 -1.4446  0.3242  0.7002
  174SAPI   O3119725   2.271   1.773  10.389 -0.2924  0.2286  0.0829
  174SAPI   C3119726   2.258   1.650  10.338  0.7362  0.3102  0.0274
  174SAPI   O3219727   2.328   1.552  10.363 -0.2260  0.5146 -0.0952
  174SAPI   C3219728   2.164   1.666  10.222  0.1042  0.0919  0.4900
  174SAPI   H2X19729   2.088   1.739  10.257  1.3361  0.4554  2.5207
  174SAPI   H2Y19730   2.121   1.568  10.191  2.1103 -0.6487 -0.0906
  174SAPI   C2319731   2.747   2.013  10.096  0.0947 -0.3325 -0.1245
  174SAPI   H3R19732   2.844   1.967  10.125  0.1387  0.0593  0.3641
  174SAPI   H3S19733   2.761   2.113  10.051 -3.0645  0.7906  1.1204
  174SAPI   C2419734   2.679   1.925   9.991 -0.0488 -0.0112 -0.3923
  174SAPI   H4R19735   2.580   1.971   9.971 -1.1235 -1.1741  1.8439
  174SAPI   H4S19736   2.662   1.824  10.036  2.5528  0.2602  1.4506
  174SAPI   C2519737   2.769   1.908   9.872 -0.0046  0.9436  0.4039
  174SAPI   H5R19738   2.857   1.842   9.881 -0.3663  0.2079 -1.1252
  174SAPI   C2619739   2.746   1.951   9.746 -0.0551  0.1439 -0.2000
  174SAPI   H6R19740   2.824   1.951   9.667 -0.3540  3.3382 -0.6498
  174SAPI   C2719741   2.617   2.028   9.692  0.1597 -0.2714 -0.6011
  174SAPI   H7R19742   2.662   2.114   9.640  1.7313  0.4074  1.7064
  174SAPI   H7S19743   2.558   2.073   9.775  0.7835  0.5543 -0.5947
  174SAPI   C2819744   2.519   1.951   9.603  0.3526  0.2669 -0.1732
  174SAPI   H8R19745   2.461   1.876   9.658  1.0141 -0.6285 -0.6590
  174SAPI   C2919746   2.502   1.958   9.466 -0.6079 -0.1253 -0.3601
  174SAPI   H9R19747   2.409   1.915   9.427 -1.1299 -0.8015  1.4864
  174SAPI  C21019748   2.583   2.039   9.372 -0.2392 -0.7621 -0.3145
  174SAPI  H10R19749   2.613   1.975   9.286 -0.2328  0.8181 -1.5312
  174SAPI  H10S19750   2.676   2.068   9.426 -0.5416  1.1331 -0.7456
  174SAPI  C21119751   2.515   2.166   9.329  0.5616  0.5431 -0.3101
  174SAPI  H11R19752   2.479   2.236   9.406 -0.1792  0.5084 -0.6170
  174SAPI  C21219753   2.501   2.200   9.198 -0.3600 -1.2875  0.4537
  174SAPI  H12R19754   2.455   2.299   9.189  1.6723 -0.3748 -0.5933
  174SAPI  C21319755   2.548   2.129   9.071 -0.3886 -0.6877 -0.3591
  174SAPI  H13R19756   2.637   2.068   9.098 -0.8133 -0.9194  0.5697
  174SAPI  H13S19757   2.585   2.209   9.003 -0.7524  2.5016  2.9403
  174SAPI  C21419758   2.439   2.042   9.020 -0.0573  0.3271 -0.7003
  174SAPI  H14R19759   2.389   1.983   9.099 -0.6070  2.7042  0.8376
  174SAPI  C21519760   2.392   2.040   8.897 -0.5371 -0.2781  0.4911
  174SAPI  H15R19761   2.310   1.968   8.882 -0.0842 -0.8883  0.8794
  174SAPI  C21619762   2.444   2.126   8.781 -0.1117 -0.1702  0.0069
  174SAPI  H16R19763   2.555   2.128   8.783 -0.0150 -1.4171 -2.0746
  174SAPI  H16S19764   2.406   2.230   8.794 -0.4320 -0.1832 -0.8200
  174SAPI  C21719765   2.405   2.078   8.638 -0.1405  0.9071 -0.1709
  174SAPI  H17R19766   2.296   2.094   8.630 -0.3175  0.4379  1.0449
  174SAPI  H17S19767   2.430   1.972   8.619 -1.0057  1.0753 -2.5472
  174SAPI  C21819768   2.465   2.168   8.525  0.2208  0.1215 -0.6831
  174SAPI  H18R19769   2.575   2.154   8.525  0.2256 -0.4089 -3.2432
  174SAPI  H18S19770   2.450   2.273   8.558  0.4039 -0.4424  1.2892
  174SAPI  C21919771   2.422   2.138   8.385  0.2131 -1.1575  0.8786
  174SAPI  H19R19772   2.311   2.128   8.378  0.2531 -0.8864 -0.3730
  174SAPI  H19S19773   2.457   2.046   8.334  1.0476 -0.8318  0.8494
  174SAPI  C22019774   2.466   2.249   8.296  0.2003 -0.8678 -0.0208
  174SAPI  H20R19775   2.444   2.234   8.188  1.5141  1.2891 -0.6503
  174SAPI  H20S19776   2.574   2.274   8.308 -0.0652  0.0788  0.5057
  174SAPI  H20T19777   2.414   2.342   8.326  0.9882  0.1304 -1.5529
  174SAPI   C3319778   2.227   1.720  10.094  0.3224  0.6192  0.0397
  174SAPI   H3X19779   2.286   1.642  10.040  0.8151  0.9997  0.0280
  174SAPI   H3Y19780   2.301   1.801  10.109 -1.2933  1.9364  1.4581
  174SAPI   C3419781   2.132   1.785   9.994 -0.6559  0.1386 -0.5776
  174SAPI   H4X19782   2.089   1.876  10.040  0.7060 -0.0677  1.2032
  174SAPI   H4Y19783   2.051   1.711   9.978  0.5680 -1.0946 -1.2360
  174SAPI   C3519784   2.194   1.827   9.864  0.0115 -0.2806 -0.0428
  174SAPI   H5X19785   2.233   1.738   9.810  4.2021  1.0939  0.3260
  174SAPI   H5Y19786   2.286   1.887   9.878 -0.5354  0.6867 -0.5166
  174SAPI   C3619787   2.104   1.915   9.782  0.0710  0.3109 -0.2906
  174SAPI   H6X19788   2.135   2.020   9.803  0.3927  0.1243  0.1927
  174SAPI   H6Y19789   1.996   1.895   9.799  0.3880 -0.6818  0.6681
  174SAPI   C3719790   2.122   1.909   9.625  0.3027  1.1717  0.3302
  174SAPI   H7X19791   2.221   1.951   9.595 -0.4829  2.7241 -0.1977
  174SAPI   H7Y19792   2.054   1.980   9.574  0.5402 -0.0193 -1.7460
  174SAPI   C3819793   2.097   1.769   9.563  0.4067 -0.5535 -1.0548
  174SAPI   H8X19794   1.990   1.740   9.570 -0.0613  1.1182 -0.7406
  174SAPI   H8Y19795   2.147   1.687   9.618  1.3587  1.0319  0.5587
  174SAPI   C3919796   2.129   1.761   9.415 -0.3199 -0.2360 -0.1182
  174SAPI   H9X19797   2.111   1.654   9.392 -2.6236  0.1347 -0.2588
  174SAPI   H9Y19798   2.232   1.801   9.408 -1.4838  2.7999 -2.0619
  174SAPI  C31019799   2.029   1.845   9.333 -0.0666  0.4524 -0.3241
  174SAPI  H10X19800   2.041   1.954   9.350  0.6370  0.8929 -3.0733
  174SAPI  H10Y19801   1.928   1.817   9.368  0.2710 -2.0870 -1.1906
  174SAPI  C31119802   2.020   1.808   9.187  0.7137  0.2272  0.2717
  174SAPI  H11X19803   1.995   1.700   9.181 -0.7562  0.5758 -0.6034
  174SAPI  H11Y19804   2.110   1.838   9.129 -0.8167  1.2350 -1.7186
  174SAPI  C31219805   1.910   1.882   9.119 -0.5609  0.7704  0.4461
  174SAPI  H12X19806   1.939   1.989   9.111 -1.0521  0.8061 -1.1951
  174SAPI  H12Y19807   1.820   1.886   9.184 -0.7027  0.7760  0.2504
  174SAPI  C31319808   1.875   1.825   8.981  0.4772  0.3552 -0.3988
  174SAPI  H13X19809   1.809   1.904   8.938 -0.9363 -1.0460 -0.9198
  174SAPI  H13Y19810   1.813   1.733   8.987  0.2728  0.4458 -1.0950
  174SAPI  C31419811   1.992   1.790   8.898  0.0597  0.2028 -0.0436
  174SAPI  H14X19812   2.061   1.714   8.940  0.7569  1.7228  1.6977
  174SAPI  H14Y19813   2.056   1.881   8.902  0.2135  0.1371 -0.9055
  174SAPI  C31519814   1.949   1.764   8.752 -0.2177  0.0731  0.1288
  174SAPI  H15X19815   1.893   1.668   8.748  0.2591 -0.1843 -2.8368
  174SAPI  H15Y19816   2.041   1.743   8.694 -0.4998  0.9819 -0.6837
  174SAPI  C31619817   1.867   1.868   8.683  1.0259 -0.7243  0.0297
  174SAPI  H16X19818   1.868   1.963   8.741  1.7433 -0.8364  0.2010
  174SAPI  H16Y19819   1.759   1.846   8.695  1.2765 -1.7945  0.4106
  174SAPI  C31719820   1.907   1.877   8.542 -0.2810 -0.3081 -0.0974
  174SAPI  H17X19821   1.909   1.772   8.504 -3.4719 -1.1144  1.5771
  174SAPI  H17Y19822   2.002   1.931   8.524 -0.4717 -0.2198 -0.9172
  174SAPI  C31819823   1.803   1.948   8.456 -0.2841 -0.3306 -0.5446
  174SAPI  H18X19824   1.707   1.892   8.462 -1.1499  1.1080 -0.4033
  174SAPI  H18Y19825   1.824   1.962   8.348 -1.1601  0.5284 -0.6222
  174SAPI  H18Z19826   1.789   2.051   8.494 -1.5655 -0.6274 -0.1432
  175SAPI   C1219827   5.167   5.082   6.230  0.2246  0.0445 -0.5436
  175SAPI    H219828   5.163   5.104   6.121 -0.1742 -0.7912 -0.7080
  175SAPI    O219829   5.047   5.124   6.293  0.4433 -0.5733  0.0924
  175SAPI   HO219830   5.034   5.215   6.267  0.1444  0.0004  2.0739
  175SAPI   C1319831   5.182   4.923   6.241 -0.0907 -0.1179  0.3211
  175SAPI    H319832   5.268   4.896   6.176 -1.6001  2.1561 -2.9044
  175SAPI    O319833   5.066   4.850   6.196 -0.4993  0.1279  0.2562
  175SAPI   HO319834   5.079   4.759   6.222  0.4395  0.2112  0.1061
  175SAPI   C1419835   5.218   4.884   6.380  0.5253 -0.8539  0.1123
  175SAPI    H419836   5.135   4.915   6.447  0.3149 -1.1933  0.0142
  175SAPI    O419837   5.240   4.741   6.395 -0.1764 -0.1706  0.2972
  175SAPI   HO419838   5.333   4.726   6.376  0.3944  2.0875  0.9211
  175SAPI   C1519839   5.345   4.954   6.428 -0.1724 -1.1924 -0.5240
  175SAPI    H519840   5.429   4.926   6.360  1.2706 -0.1349  0.7376
  175SAPI    O519841   5.380   4.914   6.564  0.7684 -0.7077 -1.0274
  175SAPI   HO519842   5.472   4.889   6.566  0.9978  0.0868 -1.5067
  175SAPI   C1619843   5.331   5.104   6.426 -0.3412 -0.4346 -0.7606
  175SAPI    H619844   5.257   5.131   6.505 -0.8906  1.7135 -1.9119
  175SAPI    O619845   5.447   5.166   6.472 -0.4810  0.0575 -0.0339
  175SAPI   HO619846   5.452   5.258   6.443  1.4165  1.2217  3.3800
  175SAPI   C1119847   5.294   5.143   6.289 -0.9032 -0.8668 -0.0562
  175SAPI    H119848   5.381   5.108   6.230 -0.1744 -1.8104  1.5329
  175SAPI     P19849   5.414   5.391   6.255  0.0778 -0.1713  0.2498
  175SAPI   O1319850   5.375   5.524   6.195  0.0864  0.7860  0.0363
  175SAPI   O1419851   5.530   5.325   6.196 -0.3157 -0.2500 -0.4890
  175SAPI   O1219852   5.282   5.286   6.272  0.7899  0.2013 -0.0286
  175SAPI   O1119853   5.463   5.424   6.405 -0.4181 -0.0969  0.1509
  175SAPI    C119854   5.375   5.514   6.474  0.3254  0.5026  0.2177
  175SAPI    HA19855   5.402   5.618   6.448  0.9424  0.9016  2.2656
  175SAPI    HB19856   5.267   5.488   6.466  0.2002  0.3235  2.1116
  175SAPI    C219857   5.401   5.507   6.626  0.7896 -0.1930  0.4437
  175SAPI    HS19858   5.511   5.516   6.641  1.0574  1.1378 -1.9277
  175SAPI   O2119859   5.351   5.380   6.669  0.1881 -0.2274 -0.5643
  175SAPI   C2119860   5.416   5.317   6.760 -0.3881 -0.4589  0.2653
  175SAPI   O2219861   5.509   5.364   6.830  0.3087 -0.0848 -0.3939
  175SAPI   C2219862   5.362   5.181   6.777 -0.0948 -0.3096 -0.1899
  175SAPI   H2R19863   5.265   5.167   6.725 -1.1067  0.8765  1.3257
  175SAPI   H2S19864   5.424   5.105   6.723  0.0393 -0.2737 -0.0868
  175SAPI    C319865   5.316   5.618   6.699  0.2915 -0.2903 -0.4882
  175SAPI    HX19866   5.214   5.627   6.656 -0.6574  2.5877  1.9207
  175SAPI    HY19867   5.353   5.719   6.672 -0.3177  0.7304  2.1166
  175SAPI   O3119868   5.320   5.618   6.847 -0.5189 -0.5588  0.1904
  175SAPI   C3119869   5.438   5.637   6.896  0.2318 -0.4540 -0.1776
  175SAPI   O3219870   5.540   5.660   6.833 -0.0555  0.4422  0.3553
  175SAPI   C3219871   5.427   5.631   7.048  0.4044  0.2238  0.4090
  175SAPI   H2X19872   5.417   5.735   7.084 -2.6641 -0.0624  0.6681
  175SAPI   H2Y19873   5.524   5.591   7.085 -0.1980  0.7336  2.6744
  175SAPI   C2319874   5.343   5.136   6.923 -0.0638 -0.1707 -0.1158
  175SAPI   H3R19875   5.274   5.051   6.941  0.1595  0.1242  2.5339
  175SAPI   H3S19876   5.310   5.219   6.988  2.3204  1.1347 -0.4450
  175SAPI   C2419877   5.471   5.084   6.991 -0.3065 -0.7026  0.0079
  175SAPI   H4R19878   5.457   5.086   7.102 -0.4957  0.6453 -0.0250
  175SAPI   H4S19879   5.560   5.148   6.979 -0.3725 -0.3738  1.1436
  175SAPI   C2519880   5.503   4.949   6.932  0.7245 -0.0985 -0.2230
  175SAPI   H5R19881   5.540   4.955   6.829 -0.6728  1.5186 -0.6804
  175SAPI   C2619882   5.486   4.823   6.989  0.3644 -0.4068 -0.5020
  175SAPI   H6R19883   5.508   4.746   6.913  0.5268  0.0553 -0.9303
  175SAPI   C2719884   5.419   4.793   7.121 -0.2993 -0.3908  0.8926
  175SAPI   H7R19885   5.365   4.886   7.147 -0.9639  0.1345 -2.0132
  175SAPI   H7S19886   5.498   4.781   7.198 -0.2728  0.3275  0.9866
  175SAPI   C2819887   5.320   4.680   7.132 -0.1338  0.2431  0.0850
  175SAPI   H8R19888   5.324   4.621   7.039 -3.1566  0.2249 -0.1418
  175SAPI   C2919889   5.211   4.675   7.212  0.1563 -0.2325 -0.7722
  175SAPI   H9R19890   5.142   4.592   7.196  1.8427 -1.9130  0.2074
  175SAPI  C21019891   5.164   4.770   7.328  0.1907  0.1301  0.1852
  175SAPI  H10R19892   5.249   4.809   7.388 -0.4824  0.2739  1.0626
  175SAPI  H10S19893   5.106   4.724   7.410  0.9729 -2.9385 -0.8610
  175SAPI  C21119894   5.083   4.883   7.270 -0.1329  0.3754  0.1421
  175SAPI  H11R19895   5.031   4.862   7.176 -0.0119 -0.8160  0.3314
  175SAPI  C21219896   5.062   5.010   7.314 -0.8654  0.1432  0.4092
  175SAPI  H12R19897   4.999   5.084   7.262  0.6478  0.6913 -0.7194
  175SAPI  C21319898   5.123   5.061   7.445  0.4634  0.0845 -0.2887
  175SAPI  H13R19899   5.163   5.163   7.427 -0.5912  0.9065  1.6257
  175SAPI  H13S19900   5.211   4.996   7.467  1.6216  1.0869 -1.8010
  175SAPI  C21419901   5.019   5.055   7.560 -0.3157 -0.4226 -0.2864
  175SAPI  H14R19902   4.923   5.009   7.531 -0.8775  1.3272 -1.3831
  175SAPI  C21519903   5.039   5.097   7.693 -0.1438 -0.2650 -0.4596
  175SAPI  H15R19904   4.967   5.063   7.768  1.0524 -4.8856 -1.0714
  175SAPI  C21619905   5.165   5.164   7.740  0.3461 -0.7756  0.7351
  175SAPI  H16R19906   5.134   5.241   7.813 -3.3689 -0.0220 -1.4057
  175SAPI  H16S19907   5.223   5.207   7.655 -0.6241 -1.7089 -0.4330
  175SAPI  C21719908   5.264   5.063   7.793  0.2241 -0.4984  0.0411
  175SAPI  H17R19909   5.344   5.126   7.839  0.2262 -0.2950 -0.2441
  175SAPI  H17S19910   5.314   5.005   7.713  0.0963 -0.2264 -0.2325
  175SAPI  C21819911   5.213   4.937   7.872 -0.2153  0.4057 -0.0990
  175SAPI  H18R19912   5.299   4.867   7.875 -0.6313 -0.4729 -3.8830
  175SAPI  H18S19913   5.120   4.889   7.834 -0.3766  0.5604  0.0966
  175SAPI  C21919914   5.161   4.981   8.009 -0.4527 -0.1216 -0.6297
  175SAPI  H19R19915   5.064   5.035   8.003  0.2664  1.2020 -0.5657
  175SAPI  H19S19916   5.237   5.057   8.036  0.5093 -1.1241 -0.4728
  175SAPI  C22019917   5.158   4.867   8.106  0.3124 -0.6701 -0.0694
  175SAPI  H20R19918   5.256   4.816   8.094  1.4670  1.8127 -2.0548
  175SAPI  H20S19919   5.080   4.792   8.082  1.5326 -1.8449 -0.5067
  175SAPI  H20T19920   5.141   4.901   8.211 -0.6748  1.9934 -1.0032
  175SAPI   C3319921   5.308   5.544   7.102  0.2417 -0.3784  0.1052
  175SAPI   H3X19922   5.287   5.461   7.031 -0.8442 -1.0451  1.1602
  175SAPI   H3Y19923   5.214   5.604   7.104  1.1207  1.0097  1.7527
  175SAPI   C3419924   5.327   5.477   7.236 -0.7387  0.8032  0.7454
  175SAPI   H4X19925   5.410   5.406   7.222  0.2077  1.5084  2.4415
  175SAPI   H4Y19926   5.230   5.433   7.268 -1.4295  1.2519 -0.6371
  175SAPI   C3519927   5.368   5.571   7.347  0.3969  0.5740 -0.5575
  175SAPI   H5X19928   5.284   5.643   7.363  1.1469  1.1976  0.7491
  175SAPI   H5Y19929   5.459   5.632   7.327  0.6571  0.4857  0.3209
  175SAPI   C3619930   5.378   5.496   7.481  0.3095  0.5045  0.0486
  175SAPI   H6X19931   5.409   5.390   7.467  1.0996  0.6830  0.4166
  175SAPI   H6Y19932   5.275   5.479   7.521  1.3147  0.8695  3.0254
  175SAPI   C3719933   5.474   5.560   7.579 -0.2364  0.1729  0.2430
  175SAPI   H7X19934   5.429   5.661   7.591 -1.1791 -0.2517  0.3417
  175SAPI   H7Y19935   5.569   5.566   7.521 -0.6660 -0.7994 -0.5935
  175SAPI   C3819936   5.492   5.491   7.719 -0.3736 -0.6688 -0.0830
  175SAPI   H8X19937   5.536   5.390   7.701  0.9914 -0.3779  1.4916
  175SAPI   H8Y19938   5.395   5.491   7.772 -1.1832 -0.7916 -1.5054
  175SAPI   C3919939   5.602   5.558   7.798  0.0367 -0.2570  0.0962
  175SAPI   H9X19940   5.581   5.664   7.823 -1.3806 -0.3497 -0.5653
  175SAPI   H9Y19941   5.696   5.557   7.740  0.2406  1.7870  0.3279
  175SAPI  C31019942   5.608   5.490   7.935 -0.0667  0.7747 -0.6135
  175SAPI  H10X19943   5.710   5.519   7.970  0.7960 -2.1965 -0.3574
  175SAPI  H10Y19944   5.612   5.381   7.916 -0.0274  0.5397  0.6557
  175SAPI  C31119945   5.507   5.525   8.042  0.0542 -0.0891  0.2218
  175SAPI  H11X19946   5.413   5.561   7.995 -0.2258 -0.0189  0.8247
  175SAPI  H11Y19947   5.551   5.617   8.087 -1.4907 -0.5701  2.9457
  175SAPI  C31219948   5.481   5.427   8.155 -0.0199  0.1988 -0.2952
  175SAPI  H12X19949   5.390   5.475   8.197 -0.6267 -1.0118 -0.1976
  175SAPI  H12Y19950   5.562   5.434   8.231  0.4331 -0.1631 -0.7469
  175SAPI  C31319951   5.460   5.285   8.118  0.1382  0.4842 -0.1118
  175SAPI  H13X19952   5.565   5.256   8.098 -0.2686 -0.9399 -0.3501
  175SAPI  H13Y19953   5.397   5.271   8.027 -0.9182 -0.5553  0.7432
  175SAPI  C31419954   5.387   5.193   8.227  1.0167 -0.4934  1.1749
  175SAPI  H14X19955   5.420   5.092   8.193  3.2660  0.7483 -0.6887
  175SAPI  H14Y19956   5.277   5.200   8.213  1.0412 -1.8560  0.0673
  175SAPI  C31519957   5.424   5.215   8.369 -0.3482 -0.2968  0.2080
  175SAPI  H15X19958   5.381   5.312   8.402 -1.5093 -1.2069  1.5125
  175SAPI  H15Y19959   5.535   5.213   8.369 -0.3350 -2.1422 -0.5070
  175SAPI  C31619960   5.384   5.102   8.463  0.5233  0.3280  0.1773
  175SAPI  H16X19961   5.398   5.118   8.572 -0.4805  1.0341  0.2238
  175SAPI  H16Y19962   5.446   5.013   8.438  0.4337  0.1765  0.4853
  175SAPI  C31719963   5.233   5.067   8.456 -0.1361  0.1708 -0.7447
  175SAPI  H17X19964   5.211   5.019   8.359  2.4373 -0.7322 -0.9538
  175SAPI  H17Y19965   5.166   5.153   8.480 -0.4993 -0.2464 -0.2556
  175SAPI  C31819966   5.210   4.947   8.553 -0.6107  0.0524  0.6036
  175SAPI  H18X19967   5.229   4.984   8.656  2.2773 -0.9934  0.5430
  175SAPI  H18Y19968   5.287   4.868   8.542 -1.1476 -0.9365  3.0966
  175SAPI  H18Z19969   5.111   4.899   8.539  0.7964 -2.6774 -0.8498
  176SAPI   C1219970   4.716   3.868   6.529 -0.2369  0.0790 -0.7288
  176SAPI    H219971   4.721   3.952   6.601 -0.4712 -1.1429  0.7594
  176SAPI    O219972   4.847   3.837   6.485  0.0191 -0.1623  0.5419
  176SAPI   HO219973   4.872   3.903   6.419 -0.1668 -2.1271 -1.5967
  176SAPI   C1319974   4.656   3.749   6.607  0.5843 -0.9105  0.8869
  176SAPI    H319975   4.549   3.767   6.631  1.1410  3.1744  0.9196
  176SAPI    O319976   4.732   3.713   6.723  0.4417  0.0265  0.1880
  176SAPI   HO319977   4.816   3.687   6.684  0.8315  0.7068  0.5526
  176SAPI   C1419978   4.638   3.637   6.503 -0.2699  1.0162  0.4789
  176SAPI    H419979   4.734   3.604   6.460 -1.3123 -0.9367 -0.4563
  176SAPI    O419980   4.608   3.511   6.558 -0.0225 -0.2961  0.5629
  176SAPI   HO419981   4.516   3.527   6.580 -0.3687  1.9545 -1.9744
  176SAPI   C1519982   4.547   3.671   6.385  0.5874  0.0544  0.7241
  176SAPI    H519983   4.450   3.700   6.431  0.0309 -2.1182  1.0667
  176SAPI    O519984   4.536   3.558   6.296  1.1372  0.2703 -0.8775
  176SAPI   HO519985   4.472   3.569   6.226  1.0510  0.7023 -0.7330
  176SAPI   C1619986   4.611   3.786   6.313 -0.4256  0.6330 -0.9266
  176SAPI    H619987   4.718   3.778   6.284 -0.0044  1.5864  0.2879
  176SAPI    O619988   4.532   3.823   6.203  0.2194  0.2447  0.3332
  176SAPI   HO619989   4.446   3.851   6.237  0.4834  0.4182  0.8695
  176SAPI   C1119990   4.627   3.901   6.411 -1.0197 -0.6497  0.5715
  176SAPI    H119991   4.526   3.931   6.444 -1.1254 -0.0032 -0.2965
  176SAPI     P19992   4.633   4.175   6.382 -0.0633  0.0113  0.3882
  176SAPI   O1319993   4.486   4.177   6.405  0.1335 -0.4652  0.7018
  176SAPI   O1419994   4.697   4.262   6.285  0.9817 -0.1657 -0.4424
  176SAPI   O1219995   4.676   4.017   6.344 -0.6091 -0.3958  0.3318
  176SAPI   O1119996   4.710   4.193   6.511  0.0436  0.0256  0.6678
  176SAPI    C119997   4.818   4.285   6.528 -0.0185  0.3004 -0.1996
  176SAPI    HA19998   4.906   4.246   6.472  0.6732  0.2562  0.8931
  176SAPI    HB19999   4.787   4.382   6.485 -0.5224 -0.8800 -2.6543
  176SAPI    C220000   4.869   4.294   6.676  0.2856  0.6815 -0.3698
  176SAPI    HS20001   4.972   4.335   6.679  0.6694 -0.2571  2.6610
  176SAPI   O2120002   4.883   4.161   6.722  0.4429 -0.0975 -0.6971
  176SAPI   C2120003   4.986   4.086   6.699 -0.2257  0.2564  0.3696
  176SAPI   O2220004   5.077   4.110   6.622  0.1123 -0.0654  0.2238
  176SAPI   C2220005   4.978   3.974   6.809 -0.1161 -0.0759  0.7789
  176SAPI   H2R20006   5.009   4.014   6.908  1.6111 -0.9922  0.6451
  176SAPI   H2S20007   4.871   3.943   6.814 -0.2323  0.5195  2.8489
  176SAPI    C320008   4.769   4.368   6.767 -0.2680 -0.2942 -0.0767
  176SAPI    HX20009   4.683   4.299   6.778  0.6134 -1.2179  1.3130
  176SAPI    HY20010   4.751   4.462   6.709  0.5117 -0.5847 -0.8078
  176SAPI   O3120011   4.834   4.379   6.895 -0.2252  0.0087  0.5753
  176SAPI   C3120012   4.797   4.487   6.967  0.0423  0.4237  0.4472
  176SAPI   O3220013   4.703   4.558   6.937  0.1377 -0.7262 -0.2103
  176SAPI   C3220014   4.887   4.507   7.091 -0.1231 -0.4534  0.5377
  176SAPI   H2X20015   4.936   4.606   7.076 -1.1642 -0.2023 -1.5578
  176SAPI   H2Y20016   4.967   4.430   7.085  1.5476  1.2087  0.7653
  176SAPI   C2320017   5.069   3.848   6.782  0.1594 -0.3376 -0.3154
  176SAPI   H3R20018   5.091   3.821   6.677  0.2624  0.9817 -0.6369
  176SAPI   H3S20019   5.013   3.762   6.825  1.5200 -0.8111  0.5845
  176SAPI   C2420020   5.205   3.841   6.857 -0.0746  0.2342  0.7539
  176SAPI   H4R20021   5.237   3.738   6.834 -1.3200  0.0039 -0.0907
  176SAPI   H4S20022   5.179   3.842   6.965 -4.0742  0.8634 -0.0566
  176SAPI   C2520023   5.303   3.953   6.812  0.0256 -0.7091 -0.5252
  176SAPI   H5R20024   5.292   3.980   6.706 -0.6777  0.8936 -0.0681
  176SAPI   C2620025   5.392   4.007   6.894  0.2694 -0.0091  0.6948
  176SAPI   H6R20026   5.466   4.075   6.846  0.2473 -0.8942 -0.6540
  176SAPI   C2720027   5.416   3.964   7.037 -0.3158  0.6847 -0.4613
  176SAPI   H7R20028   5.403   3.854   7.047  0.5442  0.5243 -1.0683
  176SAPI   H7S20029   5.359   4.013   7.120  1.5916 -0.6368  1.7526
  176SAPI   C2820030   5.564   3.998   7.069 -0.2656  0.1733 -0.3754
  176SAPI   H8R20031   5.627   4.055   7.000  2.6884 -1.4978  0.7609
  176SAPI   C2920032   5.629   3.968   7.181  0.2568  0.8619 -0.2000
  176SAPI   H9R20033   5.732   4.005   7.191  0.2987  1.3337 -2.0864
  176SAPI  C21020034   5.558   3.885   7.290 -0.3776  0.2483  0.6710
  176SAPI  H10R20035   5.574   3.775   7.288 -0.4824  0.2356 -0.8876
  176SAPI  H10S20036   5.449   3.904   7.285 -0.3209  0.3131 -1.0135
  176SAPI  C21120037   5.623   3.899   7.423  0.4152  1.0298  0.0750
  176SAPI  H11R20038   5.727   3.932   7.422  0.3676  1.1936  0.3066
  176SAPI  C21220039   5.560   3.876   7.539  0.1157  0.1519 -0.7397
  176SAPI  H12R20040   5.617   3.884   7.633 -1.7209 -1.1866  0.5630
  176SAPI  C21320041   5.418   3.830   7.552 -0.1237  0.1104 -0.3332
  176SAPI  H13R20042   5.391   3.758   7.472 -1.8697  0.7793 -0.3927
  176SAPI  H13S20043   5.341   3.910   7.551 -1.0602 -0.7399  0.9668
  176SAPI  C21420044   5.402   3.770   7.690  0.3651  0.2242  0.1560
  176SAPI  H14R20045   5.409   3.660   7.693  0.3895  0.1687 -1.4353
  176SAPI  C21520046   5.370   3.834   7.812 -0.1947  0.2686 -0.0283
  176SAPI  H15R20047   5.359   3.770   7.901  1.1468 -1.1299 -0.8231
  176SAPI  C21620048   5.357   3.981   7.831 -1.1277  0.1956 -0.7382
  176SAPI  H16R20049   5.250   3.991   7.860 -2.2868 -4.8255 -2.3276
  176SAPI  H16S20050   5.376   4.040   7.739  2.7118  0.7939  0.2488
  176SAPI  C21720051   5.455   4.051   7.930 -0.2164 -0.1093 -0.2601
  176SAPI  H17R20052   5.451   4.162   7.933 -1.1868 -0.1561  0.7277
  176SAPI  H17S20053   5.551   4.013   7.888 -0.9183  0.5547 -2.5902
  176SAPI  C21820054   5.441   4.001   8.073  0.1718 -0.1048  0.0586
  176SAPI  H18R20055   5.412   3.894   8.077 -1.6121  0.3870  2.4794
  176SAPI  H18S20056   5.355   4.049   8.125 -0.1214 -0.6554  0.0933
  176SAPI  C21920057   5.559   4.025   8.171 -0.3004  0.1950 -0.1614
  176SAPI  H19R20058   5.660   3.998   8.132  0.6065  1.5506  1.1458
  176SAPI  H19S20059   5.553   3.959   8.260  2.3009  0.9873  0.6879
  176SAPI  C22020060   5.564   4.176   8.210 -0.0619  0.4165 -0.3428
  176SAPI  H20R20061   5.662   4.216   8.244 -0.0898  0.9592 -0.8848
  176SAPI  H20S20062   5.479   4.198   8.279 -0.5302  0.7047 -0.9992
  176SAPI  H20T20063   5.544   4.237   8.119 -0.2229 -0.0259 -0.6046
  176SAPI   C3320064   4.821   4.493   7.230 -0.0861 -0.2596 -0.0680
  176SAPI   H3X20065   4.756   4.403   7.225 -1.6138  0.8024 -0.0361
  176SAPI   H3Y20066   4.754   4.579   7.251 -0.5890 -0.5053 -0.6497
  176SAPI   C3420067   4.930   4.468   7.335  0.1952  0.0235 -0.7766
  176SAPI   H4X20068   4.981   4.566   7.352  0.4543  0.0387 -1.6116
  176SAPI   H4Y20069   5.016   4.402   7.309  1.6492  0.8433  1.5937
  176SAPI   C3520070   4.865   4.427   7.467  0.3270 -1.2656 -0.1398
  176SAPI   H5X20071   4.849   4.318   7.453 -0.0605 -1.1424 -0.6944
  176SAPI   H5Y20072   4.766   4.478   7.468  0.1266 -1.5236 -2.3706
  176SAPI   C3620073   4.946   4.446   7.589  0.0552 -0.2961 -0.0792
  176SAPI   H6X20074   4.932   4.546   7.636 -0.7441 -0.9031  1.0097
  176SAPI   H6Y20075   5.056   4.443   7.569  0.3408  1.8770  0.8724
  176SAPI   C3720076   4.902   4.343   7.698 -0.3015 -0.5559  0.2672
  176SAPI   H7X20077   4.792   4.326   7.694 -0.5461  1.1523 -1.1429
  176SAPI   H7Y20078   4.936   4.380   7.798 -0.6956  2.8817 -0.7581
  176SAPI   C3820079   4.958   4.201   7.688 -0.0861 -0.3336 -0.0106
  176SAPI   H8X20080   5.067   4.211   7.703  0.1739 -0.2422 -1.7806
  176SAPI   H8Y20081   4.933   4.161   7.587  1.2809  0.6883 -0.7812
  176SAPI   C3920082   4.898   4.107   7.796 -0.2398 -0.6644  0.0304
  176SAPI   H9X20083   4.950   4.013   7.769  0.1261 -0.8245  1.2359
  176SAPI   H9Y20084   4.789   4.089   7.787 -0.3999  0.6615 -0.9105
  176SAPI  C31020085   4.934   4.148   7.942 -0.1611 -0.7102 -1.0164
  176SAPI  H10X20086   5.019   4.220   7.945 -1.1474  0.4713 -0.2731
  176SAPI  H10Y20087   4.950   4.052   7.994 -3.6470 -1.5748 -1.2903
  176SAPI  C31120088   4.809   4.221   8.008 -0.6199  0.0417 -0.0381
  176SAPI  H11X20089   4.726   4.147   8.010 -0.9121  0.3783  0.3699
  176SAPI  H11Y20090   4.770   4.290   7.931 -0.3071 -0.3177 -0.5261
  176SAPI  C31220091   4.831   4.277   8.148 -0.2559 -0.2572  0.2582
  176SAPI  H12X20092   4.900   4.364   8.145 -0.0507 -0.4118 -2.7947
  176SAPI  H12Y20093   4.892   4.202   8.203 -0.0119 -1.0625 -1.0530
  176SAPI  C31320094   4.699   4.314   8.210  0.0028 -0.7350 -0.0633
  176SAPI  H13X20095   4.639   4.221   8.221 -0.1329 -0.7130 -0.5779
  176SAPI  H13Y20096   4.645   4.381   8.139 -0.1842  0.1973  0.9257
  176SAPI  C31420097   4.713   4.379   8.353  0.3418 -0.0141  0.3612
  176SAPI  H14X20098   4.792   4.457   8.349  2.3031 -1.9783 -1.2611
  176SAPI  H14Y20099   4.751   4.300   8.420  1.2974  0.6570  0.6253
  176SAPI  C31520100   4.576   4.430   8.397 -0.1450 -0.0978 -0.2508
  176SAPI  H15X20101   4.492   4.356   8.396  0.8599 -1.3409  1.4381
  176SAPI  H15Y20102   4.540   4.503   8.322 -1.7276 -0.8396 -0.2675
  176SAPI  C31620103   4.555   4.497   8.539 -0.5378  0.1336 -0.3466
  176SAPI  H16X20104   4.646   4.548   8.577  0.1759 -2.4209  1.7014
  176SAPI  H16Y20105   4.540   4.417   8.615 -0.7512 -2.6507 -3.1379
  176SAPI  C31720106   4.429   4.587   8.557  0.0113 -0.0908 -0.2807
  176SAPI  H17X20107   4.338   4.527   8.535  0.4019  0.0080 -2.4296
  176SAPI  H17Y20108   4.439   4.667   8.480  2.4317  0.1366  0.2015
  176SAPI  C31820109   4.422   4.651   8.695 -0.3617  0.3444  0.6705
  176SAPI  H18X20110   4.392   4.583   8.777 -1.5407 -1.8008 -1.4383
  176SAPI  H18Y20111   4.341   4.727   8.686 -2.3145 -1.7261  0.0595
  176SAPI  H18Z20112   4.516   4.704   8.725 -0.4674 -0.3029  2.2047
  177SLPC     N20113   3.245   1.685  11.166  0.5807 -0.2913 -0.3935
  177SLPC   C1320114   3.149   1.805  11.175 -0.3719  0.2062  1.3942
  177SLPC  H13A20115   3.087   1.794  11.263 -2.3640 -0.3309 -0.0086
  177SLPC  H13B20116   3.215   1.891  11.167  2.2581 -1.8673 -1.3868
  177SLPC  H13C20117   3.083   1.802  11.090  2.6289 -0.9767 -1.0687
  177SLPC   C1420118   3.160   1.562  11.163  0.0718 -0.0114 -0.0142
  177SLPC  H14A20119   3.101   1.552  11.073 -0.8061 -0.3329  0.5719
  177SLPC  H14B20120   3.226   1.477  11.159  1.9455  1.2172  2.2872
  177SLPC  H14C20121   3.097   1.551  11.251  1.8818  0.9764  1.4815
  177SLPC   C1520122   3.326   1.683  11.298  0.0365 -0.0251  0.2563
  177SLPC  H15A20123   3.264   1.666  11.385  0.6589  1.2164  0.9626
  177SLPC  H15B20124   3.407   1.612  11.296 -1.0110 -1.6064  4.1223
  177SLPC  H15C20125   3.372   1.779  11.318  1.6871 -1.1434  2.0770
  177SLPC   C1220126   3.335   1.697  11.043 -0.5217  0.0498 -0.3521
  177SLPC  H12A20127   3.408   1.618  11.046  0.0292  0.5834  1.2904
  177SLPC  H12B20128   3.390   1.790  11.054 -0.6166 -0.1221  2.1237
  177SLPC   C1120129   3.274   1.686  10.907 -0.2025  0.1145 -0.1454
  177SLPC  H11A20130   3.215   1.592  10.906  1.4874 -1.0155 -1.5069
  177SLPC  H11B20131   3.363   1.657  10.847 -0.8276 -1.7190 -0.2209
  177SLPC     P20132   3.267   1.911  10.788  0.4825  0.2518  0.6537
  177SLPC   O1320133   3.165   2.016  10.766 -0.2593  0.4707  0.3744
  177SLPC   O1420134   3.403   1.947  10.836 -0.6147 -0.6644 -0.1944
  177SLPC   O1220135   3.200   1.800  10.875 -0.0333  0.4567  0.1190
  177SLPC   O1120136   3.263   1.826  10.656 -0.2423  0.2705  0.3632
  177SLPC    C120137   3.371   1.837  10.567 -0.1032  0.3474  0.2327
  177SLPC    HA20138   3.395   1.942  10.537  1.3873 -0.0490 -0.0225
  177SLPC    HB20139   3.465   1.806  10.617 -0.3057  2.0173  1.7503
  177SLPC    C220140   3.350   1.739  10.453 -0.0955 -0.0658  0.4099
  177SLPC    HS20141   3.445   1.736  10.395  1.2638  2.4243  2.2827
  177SLPC   O2120142   3.240   1.777  10.365  0.3687 -0.5397  0.4819
  177SLPC   C2120143   3.277   1.875  10.277 -0.5075 -0.2439  0.5574
  177SLPC   O2220144   3.386   1.933  10.283 -0.2549 -0.2859  1.0422
  177SLPC   C2220145   3.179   1.896  10.170  0.2883  0.0618  1.0133
  177SLPC   H2R20146   3.180   1.804  10.109 -2.0103  0.0134  0.9667
  177SLPC   H2S20147   3.080   1.919  10.215 -0.3458 -0.0151 -0.2947
  177SLPC    C320148   3.297   1.604  10.505 -0.3817 -0.3743  0.4238
  177SLPC    HX20149   3.189   1.619  10.527 -0.6413  0.9695 -1.5072
  177SLPC    HY20150   3.357   1.591  10.597  0.9803 -0.9078 -0.4895
  177SLPC   O3120151   3.313   1.495  10.409 -0.0928  0.2908 -0.4865
  177SLPC   C3120152   3.420   1.422  10.431 -0.8465 -0.2202 -0.0654
  177SLPC   O3220153   3.497   1.435  10.525 -0.4362 -0.0774  0.3178
  177SLPC   C3220154   3.440   1.327  10.314 -0.2409 -0.5199 -0.9455
  177SLPC   H2X20155   3.357   1.253  10.314  0.5665 -1.4484 -1.1203
  177SLPC   H2Y20156   3.539   1.279  10.331  0.2821  1.0536  0.8163
  177SLPC   C2320157   3.221   2.014  10.075 -0.2564  0.5673 -0.2657
  177SLPC   H3R20158   3.326   2.012  10.037 -0.7710 -1.7463 -1.7414
  177SLPC   H3S20159   3.216   2.110  10.131 -0.7049  0.6507 -0.4521
  177SLPC   C2420160   3.116   2.038   9.960 -0.1079  0.3529 -0.0051
  177SLPC   H4R20161   3.016   2.036  10.006  0.5749  5.3560  2.3903
  177SLPC   H4S20162   3.129   1.948   9.896  0.0994 -1.0456  1.9191
  177SLPC   C2520163   3.147   2.164   9.881 -0.2634  0.2170 -0.0637
  177SLPC   H5R20164   3.250   2.174   9.841 -0.4814  0.9865 -0.4616
  177SLPC   H5S20165   3.149   2.248   9.955  2.8838  0.8171 -0.6759
  177SLPC   C2620166   3.059   2.171   9.757  0.5768  0.0161 -0.6389
  177SLPC   H6R20167   2.952   2.169   9.786  1.0495  1.2915  1.3926
  177SLPC   H6S20168   3.091   2.079   9.703  0.2884 -0.9660  0.8065
  177SLPC   C2720169   3.102   2.299   9.678  0.2580  0.2446  0.0216
  177SLPC   H7R20170   3.212   2.291   9.663  0.5226  0.5987  1.6796
  177SLPC   H7S20171   3.084   2.389   9.739 -0.5446 -0.1450  0.3750
  177SLPC   C2820172   3.040   2.306   9.538 -0.0842  0.0495  1.1041
  177SLPC   H8R20173   3.079   2.215   9.487 -0.0949 -0.6830  2.3500
  177SLPC   H8S20174   3.088   2.397   9.495 -1.3479  0.3328  0.2601
  177SLPC   C2920175   2.895   2.337   9.532 -0.9482  0.1476  0.2134
  177SLPC   H9R20176   2.854   2.331   9.634  1.6918 -2.1590  1.2886
  177SLPC  C21020177   2.835   2.365   9.416 -0.2223 -1.4133 -0.2743
  177SLPC  H10R20178   2.725   2.363   9.415 -0.4201  0.0940  3.2458
  177SLPC  C21120179   2.902   2.380   9.290  0.1809  0.0700  0.3999
  177SLPC  H11R20180   3.011   2.367   9.305  0.2337  0.8839  0.7522
  177SLPC  H11S20181   2.863   2.295   9.229 -1.3557 -0.0420  1.4818
  177SLPC  C21220182   2.886   2.511   9.225  0.0630  0.6908 -0.1430
  177SLPC  H12R20183   2.876   2.591   9.300 -1.7492  0.8300 -0.4797
  177SLPC  C21320184   2.875   2.550   9.094 -0.2657  0.3824  0.2412
  177SLPC  H13R20185   2.862   2.656   9.068  1.2812  0.1584 -1.6312
  177SLPC  C21420186   2.881   2.457   8.978  0.3918 -1.2709 -0.2688
  177SLPC  H14R20187   2.778   2.445   8.938 -0.1532 -1.3342  1.1183
  177SLPC  H14S20188   2.920   2.356   9.005  0.8083 -1.0263  0.0530
  177SLPC  C21520189   2.975   2.506   8.866 -0.3433 -0.5407  0.0833
  177SLPC  H15R20190   3.079   2.486   8.901 -0.1632  2.2044  1.3884
  177SLPC  H15S20191   2.945   2.611   8.848 -2.2093 -1.2761 -1.4213
  177SLPC  C21620192   2.963   2.429   8.731 -0.0693  0.1338 -0.4636
  177SLPC  H16R20193   2.931   2.325   8.751 -0.8960  0.3776 -0.4941
  177SLPC  H16S20194   3.059   2.430   8.675  0.4353 -0.4235  0.3725
  177SLPC  C21720195   2.861   2.479   8.629  0.4236 -0.6754  0.5536
  177SLPC  H17R20196   2.906   2.572   8.587 -1.3109  0.5522  1.2867
  177SLPC  H17S20197   2.769   2.510   8.684 -0.8159 -1.3990 -1.0258
  177SLPC  C21820198   2.825   2.387   8.517 -0.2004 -0.2870  0.5838
  177SLPC  H18R20199   2.760   2.439   8.444  0.5458  0.3457  0.3527
  177SLPC  H18S20200   2.777   2.294   8.554 -0.9402 -1.5610 -3.1709
  177SLPC  H18T20201   2.915   2.345   8.467  1.8468 -1.6894  4.8863
  177SLPC   C3320202   3.445   1.403  10.178 -0.6027  0.4425  0.5467
  177SLPC   H3X20203   3.372   1.485  10.161 -0.5173  0.7665  1.7033
  177SLPC   H3Y20204   3.437   1.329  10.095  2.1655  0.4394  0.1928
  177SLPC   C3420205   3.582   1.471  10.155 -0.0587 -0.0493 -0.2457
  177SLPC   H4X20206   3.628   1.414  10.071  0.4576  0.2084 -0.1448
  177SLPC   H4Y20207   3.646   1.443  10.241  0.0690  2.8607  0.7299
  177SLPC   C3520208   3.591   1.618  10.129 -0.0396 -0.6600 -0.6829
  177SLPC   H5X20209   3.690   1.644  10.085 -0.8298  0.2274 -2.0215
  177SLPC   H5Y20210   3.568   1.680  10.218  1.4818 -0.6939 -0.2320
  177SLPC   C3620211   3.504   1.657  10.003  0.6560  0.8496  0.2130
  177SLPC   H6X20212   3.396   1.658  10.030  0.7898  0.3116  0.7953
  177SLPC   H6Y20213   3.528   1.577   9.930  0.9241  1.5445 -0.4775
  177SLPC   C3720214   3.542   1.787   9.935 -0.3195  0.4408 -0.6869
  177SLPC   H7X20215   3.646   1.785   9.896 -0.3749 -1.5338 -0.8465
  177SLPC   H7Y20216   3.523   1.872  10.004 -0.5685 -0.9723  1.0551
  177SLPC   C3820217   3.455   1.819   9.820  0.7948 -0.5434 -0.4265
  177SLPC   H8X20218   3.351   1.821   9.858  1.2751  0.9221  0.8791
  177SLPC   H8Y20219   3.465   1.731   9.752 -1.0370 -1.0342 -0.1061
  177SLPC   C3920220   3.489   1.943   9.740 -0.3542  0.1483 -0.1436
  177SLPC   H9X20221   3.600   1.942   9.733 -0.3074  1.7823  0.0092
  177SLPC   H9Y20222   3.441   2.027   9.794 -1.2408  0.0935 -0.8338
  177SLPC  C31020223   3.434   1.942   9.596 -0.0687 -0.4749  0.2951
  177SLPC  H10X20224   3.326   1.920   9.614  0.0759 -0.8509  0.7241
  177SLPC  H10Y20225   3.478   1.862   9.533 -0.6242 -0.2766 -0.3608
  177SLPC  C31120226   3.451   2.081   9.522  0.1285  1.6562  0.0046
  177SLPC  H11X20227   3.559   2.104   9.532  1.2058 -1.6018 -2.3095
  177SLPC  H11Y20228   3.380   2.149   9.574 -0.3979 -0.3708  2.0957
  177SLPC  C31220229   3.432   2.058   9.370 -0.4924 -0.2316  0.1148
  177SLPC  H12X20230   3.330   2.039   9.332  0.0706  0.9734 -2.1769
  177SLPC  H12Y20231   3.494   1.970   9.345  0.1897  0.0840  0.6472
  177SLPC  C31320232   3.504   2.165   9.274  0.1072  1.0511 -0.4484
  177SLPC  H13X20233   3.485   2.137   9.168 -0.1742 -2.6133  0.4600
  177SLPC  H13Y20234   3.614   2.161   9.290  0.1252  0.7088 -0.6656
  177SLPC  C31420235   3.470   2.309   9.304  0.1218  0.1816  0.0063
  177SLPC  H14X20236   3.513   2.349   9.398 -2.2150 -1.4373  1.8942
  177SLPC  H14Y20237   3.360   2.320   9.309  0.0251 -1.1219  2.6726
  177SLPC  C31520238   3.523   2.392   9.192  0.2573  0.3197 -0.2353
  177SLPC  H15X20239   3.488   2.348   9.096 -0.0851 -0.4433  0.2355
  177SLPC  H15Y20240   3.634   2.395   9.193  0.2819 -0.4371  0.1062
  177SLPC  C31620241   3.459   2.533   9.185  0.4820 -0.2623 -0.1052
  177SLPC  H16X20242   3.489   2.607   9.262 -0.5118  1.1131 -0.9928
  177SLPC  H16Y20243   3.350   2.514   9.200 -0.7055  2.6064 -3.7001
  177SLPC  C31720244   3.464   2.594   9.041  0.6627  0.3322 -0.0984
  177SLPC  H17X20245   3.395   2.545   8.968  2.1122 -1.7251 -0.1987
  177SLPC  H17Y20246   3.570   2.593   9.008  0.9634 -1.4973  0.7891
  177SLPC  C31820247   3.420   2.738   9.049 -0.6771 -0.2159  0.6825
  177SLPC  H18X20248   3.392   2.779   8.950 -2.0885 -1.0360  0.7139
  177SLPC  H18Y20249   3.499   2.799   9.098 -0.7686  1.0489 -0.6771
  177SLPC  H18Z20250   3.332   2.751   9.116  0.6517 -0.8688  2.6212
  178SLPC     N20251   5.936   3.098  10.829  0.1161  0.5439 -0.6063
  178SLPC   C1320252   6.058   3.182  10.831  0.1069  0.2823 -0.2538
  178SLPC  H13A20253   6.096   3.192  10.730  2.9738  1.0374  0.7852
  178SLPC  H13B20254   6.035   3.282  10.862 -0.9272 -0.4298  1.4350
  178SLPC  H13C20255   6.138   3.138  10.890  0.5261  0.6732 -0.5224
  178SLPC   C1420256   5.975   2.963  10.773 -0.5252 -0.2224  0.3112
  178SLPC  H14A20257   6.065   2.925  10.820  0.0529 -0.3269 -0.8539
  178SLPC  H14B20258   5.899   2.886  10.777  2.2498 -3.1173  2.0003
  178SLPC  H14C20259   6.001   2.974  10.669 -1.5675 -1.7008 -0.1409
  178SLPC   C1520260   5.846   3.162  10.718  0.5019  0.3886 -0.2680
  178SLPC  H15A20261   5.754   3.106  10.716  1.2390 -0.9672  1.5559
  178SLPC  H15B20262   5.830   3.268  10.730 -3.0722  0.0765 -1.1900
  178SLPC  H15C20263   5.893   3.145  10.622  2.9503  1.9898  0.5606
  178SLPC   C1220264   5.875   3.088  10.969  0.2202 -0.2140 -0.2460
  178SLPC  H12A20265   5.957   3.063  11.035 -0.5514 -0.6952  0.5587
  178SLPC  H12B20266   5.805   3.006  10.968  0.4634 -0.4237 -0.1871
  178SLPC   C1120267   5.793   3.212  11.025  0.6325 -0.0653 -0.0832
  178SLPC  H11A20268   5.773   3.207  11.134  1.0486 -0.2170 -0.0136
  178SLPC  H11B20269   5.692   3.211  10.979  0.1803  0.8959  0.8501
  178SLPC     P20270   5.801   3.467  10.983 -0.5215 -0.0143 -0.4493
  178SLPC   O1320271   5.662   3.454  11.032  0.2617  0.7638 -0.5550
  178SLPC   O1420272   5.880   3.576  11.052 -0.4611  0.2968 -0.1647
  178SLPC   O1220273   5.865   3.328  11.008  0.3285 -0.2883 -0.5649
  178SLPC   O1120274   5.804   3.475  10.823 -0.5247 -0.2671  0.3741
  178SLPC    C120275   5.897   3.560  10.760 -0.7207 -0.2975  0.6477
  178SLPC    HA20276   5.908   3.662  10.804  0.6445 -0.6791  1.2377
  178SLPC    HB20277   6.000   3.518  10.757 -0.6173 -0.0715  0.9290
  178SLPC    C220278   5.863   3.580  10.605 -0.0702 -0.0639 -0.0548
  178SLPC    HS20279   5.838   3.688  10.594 -1.3494 -0.3717 -0.3536
  178SLPC   O2120280   5.756   3.489  10.558 -0.0760 -0.3957  0.2891
  178SLPC   C2120281   5.637   3.543  10.580  0.3497  0.1604 -0.1048
  178SLPC   O2220282   5.626   3.652  10.634  0.6464  0.1090 -0.7802
  178SLPC   C2220283   5.523   3.452  10.528  0.2801 -0.6267  0.5705
  178SLPC   H2R20284   5.559   3.399  10.437 -0.5463  0.8637 -0.6844
  178SLPC   H2S20285   5.495   3.378  10.606 -4.3665  0.1132 -0.1053
  178SLPC    C320286   5.989   3.548  10.513 -0.1869  0.0796 -0.4848
  178SLPC    HX20287   6.017   3.443  10.535  2.2643  0.7020 -0.3424
  178SLPC    HY20288   6.078   3.606  10.546  0.3506 -0.5377 -0.8320
  178SLPC   O3120289   5.958   3.559  10.375  0.0985 -0.3587 -0.2250
  178SLPC   C3120290   5.964   3.688  10.329 -0.6127  1.0454 -0.3903
  178SLPC   O3220291   6.019   3.778  10.387  0.3831  0.1061 -0.4091
  178SLPC   C3220292   5.909   3.690  10.185  0.3898 -0.1970  0.4499
  178SLPC   H2X20293   5.816   3.749  10.198  0.3683 -0.2884  0.7224
  178SLPC   H2Y20294   5.891   3.584  10.155 -0.4696  0.4519 -1.4543
  178SLPC   C2320295   5.395   3.528  10.485  0.2719 -0.6399  0.1972
  178SLPC   H3R20296   5.377   3.619  10.546 -1.2331  0.1934 -1.3938
  178SLPC   H3S20297   5.307   3.460  10.495 -0.2774 -0.0139 -0.2331
  178SLPC   C2420298   5.409   3.562  10.334 -0.1018  0.0505  0.1933
  178SLPC   H4R20299   5.397   3.459  10.293 -1.9776  0.6388 -0.8201
  178SLPC   H4S20300   5.505   3.602  10.294 -0.6046  0.2064 -0.8730
  178SLPC   C2520301   5.298   3.646  10.269 -0.4016  0.8752 -0.2274
  178SLPC   H5R20302   5.280   3.729  10.341 -0.0250  1.2185 -0.5216
  178SLPC   H5S20303   5.207   3.584  10.255  0.4008 -0.1125 -1.3543
  178SLPC   C2620304   5.340   3.722  10.145  0.0820 -0.0338  0.4037
  178SLPC   H6R20305   5.428   3.785  10.169  1.7701 -1.2198 -2.2248
  178SLPC   H6S20306   5.260   3.790  10.108  2.1241  2.2774  0.0006
  178SLPC   C2720307   5.376   3.626  10.031 -0.5476 -0.2302 -0.1639
  178SLPC   H7R20308   5.321   3.653   9.939 -1.5096 -2.2623 -0.2463
  178SLPC   H7S20309   5.338   3.523  10.048 -1.9849  0.3268  0.1676
  178SLPC   C2820310   5.524   3.620  10.000 -0.2128  0.0621 -0.4219
  178SLPC   H8R20311   5.540   3.529   9.938 -1.5870 -0.5102  0.0402
  178SLPC   H8S20312   5.574   3.601  10.097  0.7779 -1.1207 -1.1381
  178SLPC   C2920313   5.582   3.749   9.941  0.6667 -0.2525  0.4861
  178SLPC   H9R20314   5.623   3.819  10.016  1.5897 -1.1530  0.8503
  178SLPC  C21020315   5.556   3.786   9.814  0.0424 -0.3530 -0.3554
  178SLPC  H10R20316   5.606   3.881   9.792  0.3004 -0.9343 -2.6417
  178SLPC  C21120317   5.486   3.711   9.697 -0.0652 -0.2524 -0.1084
  178SLPC  H11R20318   5.433   3.621   9.734 -1.2695  0.4597 -0.0477
  178SLPC  H11S20319   5.561   3.670   9.627  0.1416 -2.5588  1.3680
  178SLPC  C21220320   5.380   3.799   9.629 -0.4976 -0.2130 -0.1708
  178SLPC  H12R20321   5.313   3.834   9.709  2.0939  0.7460  1.7354
  178SLPC  C21320322   5.376   3.829   9.501 -0.2647 -0.3920  0.3227
  178SLPC  H13R20323   5.294   3.890   9.460  0.0865 -0.3797 -0.3947
  178SLPC  C21420324   5.473   3.785   9.399 -1.6294  0.2399 -0.2709
  178SLPC  H14R20325   5.466   3.674   9.398 -1.7794  0.1764  1.9668
  178SLPC  H14S20326   5.578   3.816   9.419 -1.0807 -0.9554 -1.1816
  178SLPC  C21520327   5.417   3.827   9.264  0.6109 -0.2055  0.6678
  178SLPC  H15R20328   5.499   3.832   9.189 -0.2383  1.1220 -0.2283
  178SLPC  H15S20329   5.381   3.933   9.264  1.4633  0.0958 -0.0098
  178SLPC  C21620330   5.318   3.729   9.188 -0.3201 -0.2315 -0.7668
  178SLPC  H16R20331   5.297   3.765   9.085 -0.9289  2.6735  0.2892
  178SLPC  H16S20332   5.223   3.727   9.245 -0.3014  0.5761 -0.7031
  178SLPC  C21720333   5.368   3.584   9.164 -0.4872 -0.2454 -0.2015
  178SLPC  H17R20334   5.327   3.526   9.249 -1.4468  1.5103  0.6036
  178SLPC  H17S20335   5.479   3.585   9.168 -0.4676 -0.8772 -0.5262
  178SLPC  C21820336   5.319   3.521   9.035  0.2594  0.9798  0.5783
  178SLPC  H18R20337   5.212   3.495   9.052  0.1638  1.7935  1.2528
  178SLPC  H18S20338   5.380   3.433   9.006 -0.4487  0.1636  1.4796
  178SLPC  H18T20339   5.325   3.589   8.948  2.0952 -2.0218 -1.8258
  178SLPC   C3320340   6.009   3.730  10.084 -0.2288  0.0982  0.5454
  178SLPC   H3X20341   6.109   3.710  10.127  0.8901  0.0538 -1.9065
  178SLPC   H3Y20342   6.004   3.839  10.063 -1.2201 -0.1925 -0.8157
  178SLPC   C3420343   5.990   3.668   9.940 -0.1529  0.9265 -0.1441
  178SLPC   H4X20344   5.884   3.685   9.912 -0.5550 -1.7865 -0.4612
  178SLPC   H4Y20345   6.003   3.558   9.943  0.3766  0.9915  2.3170
  178SLPC   C3520346   6.092   3.724   9.841 -0.0224 -0.2405  0.3861
  178SLPC   H5X20347   6.195   3.686   9.857  0.3818  0.2525 -0.8912
  178SLPC   H5Y20348   6.099   3.834   9.853 -1.7042 -0.1405  0.7338
  178SLPC   C3620349   6.048   3.685   9.697 -0.0586  0.4270  0.7791
  178SLPC   H6X20350   5.947   3.724   9.671 -0.0258 -1.5654 -3.1216
  178SLPC   H6Y20351   6.033   3.575   9.690 -1.4332  0.6676 -0.7851
  178SLPC   C3720352   6.152   3.708   9.586 -0.3511  0.4018  0.3122
  178SLPC   H7X20353   6.233   3.632   9.592  0.2259  0.5861 -3.2700
  178SLPC   H7Y20354   6.184   3.813   9.605  0.7687  0.2452 -0.6007
  178SLPC   C3820355   6.078   3.697   9.455  0.5920  0.0765 -0.0615
  178SLPC   H8X20356   5.977   3.743   9.459 -0.4284 -1.9363 -0.9250
  178SLPC   H8Y20357   6.059   3.588   9.459  1.3727 -0.0364  1.6976
  178SLPC   C3920358   6.141   3.752   9.334  0.6719  0.9231  1.0216
  178SLPC   H9X20359   6.229   3.686   9.319 -0.0681 -0.0192  0.7468
  178SLPC   H9Y20360   6.176   3.855   9.357 -0.1726  1.0534  1.7840
  178SLPC  C31020361   6.047   3.741   9.210  0.4791 -0.0715  0.3722
  178SLPC  H10X20362   5.996   3.642   9.211 -1.3482  0.8131  1.3471
  178SLPC  H10Y20363   6.108   3.743   9.118 -2.1505 -0.1068 -1.4872
  178SLPC  C31120364   5.945   3.846   9.190  0.4776  0.4660  0.0459
  178SLPC  H11X20365   5.990   3.946   9.209 -0.1739  0.6398  0.7149
  178SLPC  H11Y20366   5.858   3.835   9.258 -0.3915  0.2283 -1.0669
  178SLPC  C31220367   5.891   3.838   9.041 -0.3334 -0.1745 -0.7551
  178SLPC  H12X20368   5.974   3.860   8.971  0.2726  1.5770  0.4514
  178SLPC  H12Y20369   5.820   3.923   9.035 -0.1825  0.1040  0.8715
  178SLPC  C31320370   5.807   3.724   9.002  0.1603  0.4913  0.4694
  178SLPC  H13X20371   5.714   3.721   9.062  0.6949  2.9616  1.5479
  178SLPC  H13Y20372   5.867   3.633   9.022 -1.0225 -0.3277  0.4099
  178SLPC  C31420373   5.776   3.717   8.852  0.7654  0.4882 -1.0244
  178SLPC  H14X20374   5.727   3.617   8.840  0.2277  0.6211 -0.0751
  178SLPC  H14Y20375   5.867   3.711   8.789 -0.7114  1.9545 -3.4340
  178SLPC  C31520376   5.689   3.830   8.806  0.2685 -0.5958 -0.0272
  178SLPC  H15X20377   5.642   3.889   8.888 -0.1234  1.5168 -1.6800
  178SLPC  H15Y20378   5.749   3.909   8.755 -2.7715  1.6837 -0.3550
  178SLPC  C31620379   5.579   3.774   8.711  0.4481 -0.6179 -0.1971
  178SLPC  H16X20380   5.565   3.666   8.730  0.8211 -0.5253  0.6615
  178SLPC  H16Y20381   5.613   3.798   8.608  0.0649 -1.7021 -0.5904
  178SLPC  C31720382   5.436   3.837   8.737  0.6536  0.3254  0.4010
  178SLPC  H17X20383   5.425   3.815   8.845  0.9588  2.9145  1.0139
  178SLPC  H17Y20384   5.361   3.785   8.673 -2.0994  2.6669  1.4908
  178SLPC  C31820385   5.425   3.989   8.707  0.1142 -0.5352 -0.2862
  178SLPC  H18X20386   5.500   4.047   8.765 -0.8955  0.8942 -0.3629
  178SLPC  H18Y20387   5.325   4.032   8.727 -0.0986 -1.4105  0.6763
  178SLPC  H18Z20388   5.445   3.997   8.598  1.5325 -1.0112 -0.0823
  179SLPC     N20389   1.258   0.222  10.393  0.3909  0.5423  0.3298
  179SLPC   C1320390   1.313   0.116  10.486  0.5723  0.4287 -0.2103
  179SLPC  H13A20391   1.289   0.144  10.588 -1.0798  1.3717 -0.8267
  179SLPC  H13B20392   1.270   0.019  10.465  0.5193 -0.1766  2.3740
  179SLPC  H13C20393   1.421   0.106  10.481  0.3683 -4.6880  0.3804
  179SLPC   C1420394   1.264   0.354  10.456 -0.6595  0.4943 -0.0971
  179SLPC  H14A20395   1.228   0.434  10.393  0.8014 -0.9066 -2.8674
  179SLPC  H14B20396   1.200   0.357  10.543 -2.3512  0.0659 -1.2778
  179SLPC  H14C20397   1.365   0.383  10.482 -0.0232 -0.8822 -0.9442
  179SLPC   C1520398   1.119   0.186  10.364 -0.0949  0.1296 -0.8177
  179SLPC  H15A20399   1.064   0.253  10.300 -1.4767 -1.2221 -1.1326
  179SLPC  H15B20400   1.125   0.089  10.316 -0.9931 -0.0668 -0.5532
  179SLPC  H15C20401   1.067   0.164  10.456  1.5580 -0.6210 -0.0201
  179SLPC   C1220402   1.337   0.226  10.265  0.4575 -0.1491  0.1684
  179SLPC  H12A20403   1.346   0.125  10.227  0.2187  1.2479 -4.1040
  179SLPC  H12B20404   1.442   0.249  10.275  0.4952  0.0227 -0.5576
  179SLPC   C1120405   1.291   0.323  10.157 -0.1798 -0.6721  0.0894
  179SLPC  H11A20406   1.184   0.302  10.135 -0.0229 -1.7566  0.3230
  179SLPC  H11B20407   1.347   0.297  10.064 -0.7242  1.1521 -0.8052
  179SLPC     P20408   1.423   0.546  10.162 -0.0023 -0.0968 -0.3168
  179SLPC   O1320409   1.400   0.683  10.217  0.4505 -0.4247 -0.4756
  179SLPC   O1420410   1.548   0.479  10.213  0.1531  0.2138  0.2767
  179SLPC   O1220411   1.295   0.462  10.196  0.1886  0.0648  0.4906
  179SLPC   O1120412   1.422   0.550  10.006 -0.2443 -0.4274  0.0171
  179SLPC    C120413   1.312   0.594   9.922  0.1268 -0.2787 -0.5043
  179SLPC    HA20414   1.245   0.659   9.983 -0.6429 -0.5373 -1.0743
  179SLPC    HB20415   1.355   0.657   9.841  0.6567  1.1618  0.8449
  179SLPC    C220416   1.237   0.478   9.852  0.2370  0.2232 -0.1533
  179SLPC    HS20417   1.237   0.404   9.936 -0.1939  0.4773  0.0738
  179SLPC   O2120418   1.310   0.450   9.732 -0.4506  0.6654  0.6166
  179SLPC   C2120419   1.336   0.324   9.714  0.2975  0.0125 -0.2586
  179SLPC   O2220420   1.297   0.227   9.781  0.0595  0.2098 -0.3354
  179SLPC   C2220421   1.419   0.313   9.587 -0.2179  0.4164  1.0643
  179SLPC   H2R20422   1.401   0.401   9.521  0.6045 -0.4808 -0.4188
  179SLPC   H2S20423   1.524   0.320   9.622  0.4197  1.5532 -0.9114
  179SLPC    C320424   1.093   0.513   9.816 -0.8164  0.3965  0.3896
  179SLPC    HX20425   1.096   0.603   9.751 -1.3137  1.0074  1.1914
  179SLPC    HY20426   1.034   0.544   9.906  1.2693 -3.4621  3.4001
  179SLPC   O3120427   1.036   0.405   9.748  0.3824 -0.3283 -0.3548
  179SLPC   C3120428   1.008   0.301   9.825  0.1142 -0.1229  0.6978
  179SLPC   O3220429   1.011   0.297   9.947  0.4476  0.1755  0.0687
  179SLPC   C3220430   0.972   0.175   9.735  0.4245 -0.2725  0.1461
  179SLPC   H2X20431   0.996   0.086   9.798 -1.5605 -0.1602  1.1508
  179SLPC   H2Y20432   1.032   0.181   9.642  1.1220 -0.2750  0.5816
  179SLPC   C2320433   1.403   0.187   9.503 -0.1425  0.1532 -0.2670
  179SLPC   H3R20434   1.363   0.096   9.552 -0.3279  0.8810  0.9697
  179SLPC   H3S20435   1.503   0.148   9.474 -0.2290 -1.1760  1.1373
  179SLPC   C2420436   1.332   0.227   9.369 -0.2378  0.5205  0.1593
  179SLPC   H4R20437   1.388   0.314   9.328 -0.5632  2.0468  2.7285
  179SLPC   H4S20438   1.225   0.247   9.389 -0.4590 -0.0273 -0.4558
  179SLPC   C2520439   1.331   0.112   9.268 -0.1869  0.1893 -0.0429
  179SLPC   H5R20440   1.245   0.047   9.298  0.1569 -0.5383 -0.5885
  179SLPC   H5S20441   1.431   0.065   9.276 -1.0306 -1.7541 -0.2525
  179SLPC   C2620442   1.304   0.157   9.123 -0.0921  0.2699  0.0904
  179SLPC   H6R20443   1.325   0.074   9.052 -0.5236  0.5690 -0.3959
  179SLPC   H6S20444   1.350   0.254   9.095 -1.8129  1.0738 -0.0803
  179SLPC   C2720445   1.155   0.174   9.118 -0.5514  0.4088  0.4012
  179SLPC   H7R20446   1.125   0.245   9.198 -0.1315  0.6088  0.3877
  179SLPC   H7S20447   1.101   0.078   9.134 -0.1714 -0.6492 -3.6658
  179SLPC   C2820448   1.100   0.223   8.977 -0.5342 -0.3637 -0.7664
  179SLPC   H8R20449   1.147   0.318   8.943 -0.6375  0.1750  0.5332
  179SLPC   H8S20450   0.992   0.244   8.988 -0.0504  1.2738  1.4773
  179SLPC   C2920451   1.126   0.124   8.868  0.0227  0.0747  0.4357
  179SLPC   H9R20452   1.056   0.039   8.873  0.5445 -0.3910 -0.0470
  179SLPC  C21020453   1.222   0.116   8.773  0.4247  0.1452  0.1556
  179SLPC  H10R20454   1.204   0.047   8.689 -0.6283 -0.9862  1.2855
  179SLPC  C21120455   1.338   0.209   8.753  0.2555 -0.4206  0.8084
  179SLPC  H11R20456   1.419   0.188   8.827 -0.1517  0.6105  1.5632
  179SLPC  H11S20457   1.318   0.316   8.775 -0.5293 -0.8159  2.1700
  179SLPC  C21220458   1.394   0.200   8.607 -0.3278 -0.7730  0.0086
  179SLPC  H12R20459   1.497   0.165   8.591 -0.1828  0.0029 -0.7860
  179SLPC  C21320460   1.330   0.227   8.494 -0.2439  0.7012 -0.0002
  179SLPC  H13R20461   1.368   0.182   8.401  0.0388  3.2724 -1.2013
  179SLPC  C21420462   1.184   0.262   8.492  0.4334 -0.3142  0.4264
  179SLPC  H14R20463   1.160   0.323   8.582 -1.1634 -0.7190  0.3007
  179SLPC  H14S20464   1.126   0.168   8.501 -0.1863  0.0133 -0.0209
  179SLPC  C21520465   1.169   0.330   8.351  0.7386  0.2041 -0.1583
  179SLPC  H15R20466   1.214   0.267   8.271  0.4995 -1.1375  0.7256
  179SLPC  H15S20467   1.233   0.421   8.347  3.3270 -1.5601 -3.2987
  179SLPC  C21620468   1.019   0.365   8.329 -0.5261 -0.2887 -0.0084
  179SLPC  H16R20469   0.985   0.419   8.420  1.9929 -1.5551  1.8062
  179SLPC  H16S20470   0.968   0.266   8.318  2.7001 -1.8759 -2.5577
  179SLPC  C21720471   0.989   0.459   8.213 -0.8087  0.2338  0.2423
  179SLPC  H17R20472   0.996   0.414   8.112 -2.9573 -2.1069  1.0301
  179SLPC  H17S20473   1.065   0.539   8.228  1.2252 -1.3687 -1.0314
  179SLPC  C21820474   0.849   0.519   8.229  0.0409  0.1415  0.2501
  179SLPC  H18R20475   0.818   0.612   8.177  1.2835  0.3421 -0.1860
  179SLPC  H18S20476   0.844   0.548   8.336  0.7065 -0.7939  0.5494
  179SLPC  H18T20477   0.773   0.439   8.222  0.2730 -0.2320  1.6357
  179SLPC   C3320478   0.826   0.170   9.708  0.7112  0.5231 -0.0362
  179SLPC   H3X20479   0.800   0.234   9.620  0.2315 -0.8970 -0.9590
  179SLPC   H3Y20480   0.765   0.195   9.798  1.7485 -0.1956  0.8886
  179SLPC   C3420481   0.779   0.027   9.659  0.8065  0.7446 -0.2454
  179SLPC   H4X20482   0.669   0.023   9.674  0.7035 -0.2422 -1.2005
  179SLPC   H4Y20483   0.816  -0.056   9.723  0.5345  0.4730 -0.4396
  179SLPC   C3520484   0.844  -0.014   9.525  0.1682 -0.2305 -0.1130
  179SLPC   H5X20485   0.954  -0.029   9.530  0.2709  0.0309 -1.3227
  179SLPC   H5Y20486   0.818   0.071   9.459  0.0758 -0.1385  0.0428
  179SLPC   C3620487   0.783  -0.144   9.474 -0.5432 -0.1690  1.0534
  179SLPC   H6X20488   0.674  -0.129   9.482 -0.2803  2.9586  0.0799
  179SLPC   H6Y20489   0.820  -0.231   9.532  0.3713 -0.0921  0.6118
  179SLPC   C3720490   0.829  -0.155   9.327 -0.1185  0.6135 -0.1257
  179SLPC   H7X20491   0.940  -0.154   9.319  0.0403  0.8221  1.6844
  179SLPC   H7Y20492   0.793  -0.074   9.260  1.7573 -0.8991 -3.1813
  179SLPC   C3820493   0.791  -0.278   9.265  0.0603  0.2370 -0.2971
  179SLPC   H8X20494   0.690  -0.297   9.307  0.5679  0.2300  0.9859
  179SLPC   H8Y20495   0.846  -0.364   9.309 -0.7069 -0.8241 -1.3519
  179SLPC   C3920496   0.804  -0.301   9.116 -0.4002  0.0691 -0.0904
  179SLPC   H9X20497   0.910  -0.280   9.093  0.1606 -0.6411  1.6744
  179SLPC   H9Y20498   0.748  -0.217   9.069 -1.9161  0.2055  1.8072
  179SLPC  C31020499   0.734  -0.430   9.076  0.2620  0.9769  0.3693
  179SLPC  H10X20500   0.627  -0.433   9.106 -0.3340 -2.2417 -1.6449
  179SLPC  H10Y20501   0.760  -0.528   9.120  0.3294  1.0869  0.5755
  179SLPC  C31120502   0.730  -0.459   8.927  0.1281 -0.1042  0.7721
  179SLPC  H11X20503   0.733  -0.366   8.866  1.9859 -1.5811 -1.5837
  179SLPC  H11Y20504   0.642  -0.521   8.901  1.7687 -0.7130 -4.6364
  179SLPC  C31220505   0.852  -0.532   8.877  0.6928  0.3435  0.0488
  179SLPC  H12X20506   0.849  -0.638   8.911  1.4930  1.1028  2.7214
  179SLPC  H12Y20507   0.939  -0.480   8.922 -1.7109  2.5083  2.5631
  179SLPC  C31320508   0.863  -0.518   8.729  0.1288  0.2322 -0.2267
  179SLPC  H13X20509   0.825  -0.419   8.695 -1.0963 -0.0010  0.4157
  179SLPC  H13Y20510   0.801  -0.598   8.683  0.5502 -1.0512  1.3637
  179SLPC  C31420511   1.014  -0.524   8.676  0.2839 -0.0582 -0.0309
  179SLPC  H14X20512   1.055  -0.623   8.702  0.7865  0.5886  1.8139
  179SLPC  H14Y20513   1.059  -0.445   8.741 -0.5331  1.1807 -0.9071
  179SLPC  C31520514   1.010  -0.492   8.531 -0.9099 -0.7708 -0.4431
  179SLPC  H15X20515   0.959  -0.394   8.517  1.5286  0.8801  1.5168
  179SLPC  H15Y20516   0.954  -0.569   8.474 -0.2088 -0.4251 -1.6281
  179SLPC  C31620517   1.144  -0.481   8.465 -0.4500  0.1384  0.4313
  179SLPC  H16X20518   1.132  -0.472   8.355 -1.2034 -2.2267  0.2672
  179SLPC  H16Y20519   1.201  -0.576   8.474  0.0113  0.2008 -1.4416
  179SLPC  C31720520   1.238  -0.370   8.504 -0.1204  0.4699  0.8039
  179SLPC  H17X20521   1.295  -0.399   8.594  1.7707  1.3881 -0.0520
  179SLPC  H17Y20522   1.199  -0.270   8.535  0.7501  1.5767 -1.4723
  179SLPC  C31820523   1.337  -0.335   8.397 -0.1636  0.0683  0.0753
  179SLPC  H18X20524   1.383  -0.425   8.351  0.9366  0.8229 -0.3462
  179SLPC  H18Y20525   1.424  -0.281   8.440 -0.8151 -0.3677  2.0230
  179SLPC  H18Z20526   1.295  -0.271   8.316 -2.7464 -1.8326 -0.2458
  180SLPC     N20527   2.457   5.478  11.070 -0.5613  0.1780  0.2034
  180SLPC   C1320528   2.554   5.583  11.100  0.1035 -0.4239  0.2632
  180SLPC  H13A20529   2.527   5.674  11.049  0.1758 -0.5296  0.0326
  180SLPC  H13B20530   2.558   5.607  11.205  1.0216 -1.9551  0.6066
  180SLPC  H13C20531   2.653   5.550  11.069  0.0621 -0.3508  0.0500
  180SLPC   C1420532   2.320   5.530  11.117 -0.4985  0.7113 -0.0937
  180SLPC  H14A20533   2.289   5.620  11.065  1.3609 -0.1040 -2.8309
  180SLPC  H14B20534   2.246   5.453  11.096 -0.1833  0.1184  0.8755
  180SLPC  H14C20535   2.320   5.550  11.223  1.9449 -0.1966  0.1300
  180SLPC   C1520536   2.491   5.358  11.150 -0.3485  0.6924  0.2019
  180SLPC  H15A20537   2.574   5.304  11.106  1.4471  2.3749  1.3466
  180SLPC  H15B20538   2.537   5.385  11.244 -1.2986 -0.5864  1.0664
  180SLPC  H15C20539   2.408   5.290  11.160 -0.3633  0.7125  0.2188
  180SLPC   C1220540   2.446   5.453  10.919 -0.4682 -0.5067  0.1251
  180SLPC  H12A20541   2.408   5.548  10.881  0.9909  0.1910  0.3594
  180SLPC  H12B20542   2.364   5.385  10.899  0.9668 -1.9368 -1.1069
  180SLPC   C1120543   2.564   5.412  10.825  0.0884  0.2029 -0.1319
  180SLPC  H11A20544   2.647   5.485  10.840 -1.1601  1.7300 -0.4178
  180SLPC  H11B20545   2.535   5.410  10.718  0.3623  1.6620 -0.2541
  180SLPC     P20546   2.529   5.158  10.855 -0.0107  0.0035  0.0185
  180SLPC   O1320547   2.537   5.091  10.984 -0.6432  0.1050 -0.1186
  180SLPC   O1420548   2.392   5.174  10.802  0.2454 -0.6167  0.5282
  180SLPC   O1220549   2.615   5.285  10.856 -0.4228 -0.2143  0.6360
  180SLPC   O1120550   2.617   5.070  10.748 -0.2444  0.2633  0.0033
  180SLPC    C120551   2.634   5.132  10.616  0.4622 -0.4255 -0.3202
  180SLPC    HA20552   2.644   5.242  10.625 -0.3591 -0.5294  3.4600
  180SLPC    HB20553   2.736   5.124  10.571  0.8347  1.9175  0.0011
  180SLPC    C220554   2.519   5.093  10.512  0.4318  0.1972  0.7887
  180SLPC    HS20555   2.432   5.060  10.572  0.5222 -0.9791  0.3001
  180SLPC   O2120556   2.558   4.986  10.425 -0.2557 -0.1206  0.8734
  180SLPC   C2120557   2.465   4.916  10.373 -0.0547 -0.2005  0.0704
  180SLPC   O2220558   2.345   4.931  10.399  0.1451 -0.0842  0.4301
  180SLPC   C2220559   2.522   4.811  10.272 -0.0101 -0.0057  0.2141
  180SLPC   H2R20560   2.610   4.855  10.222  0.2329  1.0257  1.4920
  180SLPC   H2S20561   2.555   4.728  10.338 -0.4307  1.9020  3.0139
  180SLPC    C320562   2.502   5.228  10.426 -0.0028  0.0188 -0.2880
  180SLPC    HX20563   2.461   5.301  10.499  0.7803  0.3352 -0.1517
  180SLPC    HY20564   2.427   5.207  10.346 -0.7766  0.6025  0.2646
  180SLPC   O3120565   2.622   5.278  10.365  0.3146  0.0180 -0.9772
  180SLPC   C3120566   2.623   5.401  10.317  0.9882 -0.5419  0.1019
  180SLPC   O3220567   2.523   5.475  10.319 -0.0297  0.2725  0.6604
  180SLPC   C3220568   2.754   5.432  10.247  1.3400  0.2910  0.0768
  180SLPC   H2X20569   2.808   5.336  10.234 -1.6669 -1.4646 -0.3817
  180SLPC   H2Y20570   2.819   5.499  10.309  3.1637  0.4596 -1.8968
  180SLPC   C2320571   2.420   4.752  10.166  0.5103 -0.7094 -0.4779
  180SLPC   H3R20572   2.362   4.837  10.123  1.9480  1.6661  1.9415
  180SLPC   H3S20573   2.346   4.686  10.216 -0.1834  0.2735 -0.1793
  180SLPC   C2420574   2.476   4.675  10.046 -0.1871  0.2215  0.0277
  180SLPC   H4R20575   2.537   4.587  10.075  2.2816  1.6483 -0.4495
  180SLPC   H4S20576   2.553   4.733   9.990  0.2358 -0.1424  0.2236
  180SLPC   C2520577   2.371   4.625   9.942  0.6244  0.1407  0.2395
  180SLPC   H5R20578   2.338   4.716   9.888  0.2666 -0.1587 -0.0573
  180SLPC   H5S20579   2.290   4.578  10.002  0.9394  1.4801  1.7589
  180SLPC   C2620580   2.423   4.527   9.845  0.3097 -0.5595  0.0878
  180SLPC   H6R20581   2.456   4.434   9.896  0.6163  0.6065  2.1265
  180SLPC   H6S20582   2.511   4.579   9.800 -0.3156  1.6066  1.1886
  180SLPC   C2720583   2.323   4.485   9.733 -0.2131 -0.3319  0.1803
  180SLPC   H7R20584   2.216   4.475   9.763  0.0588 -1.7347  0.7920
  180SLPC   H7S20585   2.357   4.383   9.704  0.5349 -0.8033  2.5412
  180SLPC   C2820586   2.328   4.564   9.605 -0.1443  0.1851  0.0730
  180SLPC   H8R20587   2.438   4.568   9.585 -0.6611 -0.1170 -3.4417
  180SLPC   H8S20588   2.314   4.671   9.630  1.5732  0.1478  1.4212
  180SLPC   C2920589   2.258   4.508   9.484 -0.0902 -0.1254  0.2032
  180SLPC   H9R20590   2.152   4.497   9.510 -0.3639  2.2481  0.2791
  180SLPC  C21020591   2.294   4.469   9.358  0.3013  0.2146  0.0630
  180SLPC  H10R20592   2.212   4.459   9.286 -0.4422 -0.6026  0.9850
  180SLPC  C21120593   2.434   4.464   9.297  0.0666 -0.7814 -1.1409
  180SLPC  H11R20594   2.443   4.375   9.232 -0.4687 -1.6889 -0.0065
  180SLPC  H11S20595   2.495   4.446   9.388 -5.2615 -1.4982  2.7772
  180SLPC  C21220596   2.485   4.590   9.229  0.4312 -0.2401  0.1408
  180SLPC  H12R20597   2.549   4.655   9.291  0.3327  0.5625 -0.5821
  180SLPC  C21320598   2.465   4.628   9.099  0.2397  0.0017  0.4351
  180SLPC  H13R20599   2.510   4.723   9.069  0.0078  0.1616  0.5914
  180SLPC  C21420600   2.388   4.552   8.993 -0.0397  0.6834  0.6752
  180SLPC  H14R20601   2.287   4.596   8.977 -0.4823 -0.9136 -1.2245
  180SLPC  H14S20602   2.388   4.445   9.021  4.8988  0.0890 -0.6003
  180SLPC  C21520603   2.473   4.580   8.867 -0.5526  0.7461 -0.4158
  180SLPC  H15R20604   2.468   4.691   8.856  1.2991  0.8472 -0.4521
  180SLPC  H15S20605   2.438   4.541   8.769 -1.6793  0.4881  0.0684
  180SLPC  C21620606   2.621   4.538   8.880  0.2811  0.4507 -0.4016
  180SLPC  H16R20607   2.613   4.432   8.913 -1.9163  0.8477  0.5084
  180SLPC  H16S20608   2.681   4.589   8.958  1.4735 -0.5955 -0.6103
  180SLPC  C21720609   2.706   4.545   8.747  0.5244 -0.4948 -0.1066
  180SLPC  H17R20610   2.652   4.477   8.678 -3.0610  1.3948  0.5905
  180SLPC  H17S20611   2.804   4.493   8.763 -0.3947 -2.1079  0.5503
  180SLPC  C21820612   2.725   4.686   8.688  0.0142 -0.1773  0.6455
  180SLPC  H18R20613   2.831   4.694   8.653 -0.2440  0.2960 -0.0474
  180SLPC  H18S20614   2.714   4.757   8.774 -0.4357 -0.6226  0.9584
  180SLPC  H18T20615   2.655   4.703   8.604  1.1223 -0.9448 -0.4764
  180SLPC   C3320616   2.728   5.488  10.103  0.3991  0.4960  0.3659
  180SLPC   H3X20617   2.645   5.561  10.115  0.1853  0.1889  0.7658
  180SLPC   H3Y20618   2.684   5.407  10.041 -0.5841  0.9746  0.4174
  180SLPC   C3420619   2.848   5.546  10.029  0.4484  0.4494 -0.2018
  180SLPC   H4X20620   2.945   5.527  10.080 -0.1952 -1.1877  0.4769
  180SLPC   H4Y20621   2.838   5.657  10.029  1.5744  0.5634 -0.6823
  180SLPC   C3520622   2.845   5.507   9.880 -1.6057 -0.0842 -0.2063
  180SLPC   H5X20623   2.846   5.396   9.883  0.8077 -0.1551 -1.0999
  180SLPC   H5Y20624   2.942   5.538   9.835 -0.2597 -0.7465  2.0943
  180SLPC   C3620625   2.732   5.559   9.798  0.2244 -0.0026  0.0959
  180SLPC   H6X20626   2.732   5.670   9.803  0.9738 -0.0351  1.0495
  180SLPC   H6Y20627   2.638   5.517   9.838  0.7769  1.1572  2.8249
  180SLPC   C3720628   2.747   5.516   9.651  0.2296 -0.6865  0.5241
  180SLPC   H7X20629   2.641   5.508   9.620  0.5320  0.9564 -1.0706
  180SLPC   H7Y20630   2.794   5.415   9.647 -1.0874 -1.3027  0.2044
  180SLPC   C3820631   2.807   5.620   9.555  0.8797  0.2546  0.3222
  180SLPC   H8X20632   2.913   5.623   9.586  1.3821  1.6616 -1.3663
  180SLPC   H8Y20633   2.759   5.720   9.560 -0.5055 -0.1977 -2.1417
  180SLPC   C3920634   2.797   5.577   9.408  0.3270 -0.0580 -0.0957
  180SLPC   H9X20635   2.691   5.572   9.372  1.2051  2.1240 -3.4939
  180SLPC   H9Y20636   2.847   5.478   9.399  1.8515  0.7394 -0.7532
  180SLPC  C31020637   2.862   5.673   9.318  0.1159 -0.2754  0.0882
  180SLPC  H10X20638   2.960   5.698   9.363  0.4733 -1.8348  0.2431
  180SLPC  H10Y20639   2.799   5.764   9.311  2.2576  1.2958  0.1228
  180SLPC  C31120640   2.900   5.614   9.181  0.0790 -0.4749 -0.0125
  180SLPC  H11X20641   2.809   5.588   9.121 -0.6637 -1.4432  1.4609
  180SLPC  H11Y20642   2.964   5.527   9.206  1.2687  0.8068  1.6425
  180SLPC  C31220643   2.986   5.708   9.098  0.3979  0.5413 -0.4697
  180SLPC  H12X20644   3.089   5.713   9.140  0.8669  0.7883 -1.6092
  180SLPC  H12Y20645   2.932   5.804   9.086  1.7565  1.4769  0.5551
  180SLPC  C31320646   2.997   5.667   8.947  0.3927  0.6759 -0.2311
  180SLPC  H13X20647   2.896   5.666   8.899 -1.0545  0.0918  2.6241
  180SLPC  H13Y20648   3.021   5.558   8.942  1.4765  0.8473  0.9135
  180SLPC  C31420649   3.097   5.738   8.863  0.6891 -0.0423  0.3394
  180SLPC  H14X20650   3.125   5.677   8.775 -1.5637  1.5376 -1.5898
  180SLPC  H14Y20651   3.176   5.761   8.938 -0.4988  0.2100  1.5579
  180SLPC  C31520652   3.063   5.876   8.803  0.0337  0.4347  0.3394
  180SLPC  H15X20653   3.046   5.947   8.887  1.7506 -1.2882  2.2491
  180SLPC  H15Y20654   2.975   5.870   8.736  0.2413 -1.4199  0.2005
  180SLPC  C31620655   3.177   5.925   8.719 -0.5847  0.4726  0.8987
  180SLPC  H16X20656   3.214   5.841   8.656 -1.6201 -0.2667  1.2363
  180SLPC  H16Y20657   3.257   5.969   8.782  1.2881  0.5167 -1.3929
  180SLPC  C31720658   3.157   6.035   8.620  0.5352  0.1673  0.5360
  180SLPC  H17X20659   3.078   6.024   8.543  1.3779  2.4638 -0.7764
  180SLPC  H17Y20660   3.248   6.036   8.557  0.7718  3.0420  0.7655
  180SLPC  C31820661   3.132   6.171   8.690 -0.3214 -0.1584 -0.4188
  180SLPC  H18X20662   3.057   6.168   8.772  0.4532 -0.8239  0.2831
  180SLPC  H18Y20663   3.115   6.254   8.619 -0.1363  1.9235  1.8223
  180SLPC  H18Z20664   3.229   6.187   8.741 -1.2266  1.1219  0.9961
  181SLPC     N20665   4.572   2.923  11.268  0.4951  0.1548 -0.2581
  181SLPC   C1320666   4.523   3.067  11.251  0.6103 -0.0123 -1.2873
  181SLPC  H13A20667   4.594   3.131  11.201  0.0333  0.4135 -1.5822
  181SLPC  H13B20668   4.433   3.067  11.191 -1.0947 -0.1814  1.0827
  181SLPC  H13C20669   4.501   3.114  11.346  0.8356  1.1572 -1.7923
  181SLPC   C1420670   4.461   2.841  11.328 -0.9977 -1.1333 -0.0776
  181SLPC  H14A20671   4.370   2.831  11.269 -0.9610 -0.3543 -0.2801
  181SLPC  H14B20672   4.492   2.740  11.350 -0.5353 -1.5962 -2.5314
  181SLPC  H14C20673   4.422   2.879  11.421 -1.9414 -1.6538 -0.2371
  181SLPC   C1520674   4.690   2.912  11.362 -0.0335 -0.3951 -0.7239
  181SLPC  H15A20675   4.665   2.944  11.462 -0.0397  2.1657 -1.4974
  181SLPC  H15B20676   4.728   2.811  11.370 -1.2486 -0.7121  2.4298
  181SLPC  H15C20677   4.766   2.981  11.329  0.0089  0.2296  0.6354
  181SLPC   C1220678   4.620   2.867  11.136  0.1399  0.4425  0.3129
  181SLPC  H12A20679   4.535   2.882  11.071 -0.2860  0.7568  0.9303
  181SLPC  H12B20680   4.626   2.760  11.145 -0.6366  0.3212 -0.4313
  181SLPC   C1120681   4.741   2.933  11.068 -0.2211  0.0728 -0.8165
  181SLPC  H11A20682   4.713   3.040  11.056  0.3311  0.0499 -2.5931
  181SLPC  H11B20683   4.743   2.897  10.963 -0.3045  3.2888 -2.0587
  181SLPC     P20684   4.976   3.029  11.134 -0.0266  0.1793  0.0182
  181SLPC   O1320685   4.904   3.150  11.178  0.0729 -0.4210  0.4331
  181SLPC   O1420686   5.091   2.984  11.209 -0.0023  0.3856 -0.3237
  181SLPC   O1220687   4.867   2.915  11.132 -0.5100  0.1066 -0.1704
  181SLPC   O1120688   5.014   3.038  10.984  0.2792  0.2853  0.4602
  181SLPC    C120689   5.065   2.924  10.914  0.4458 -0.2411  0.1818
  181SLPC    HA20690   5.127   2.865  10.984  1.7221 -0.1695 -0.8598
  181SLPC    HB20691   4.976   2.873  10.870 -0.0688 -0.1568  1.0925
  181SLPC    C220692   5.166   2.969  10.805 -0.3114 -0.0296 -0.3216
  181SLPC    HS20693   5.238   3.032  10.862  0.5010  0.4320 -1.8230
  181SLPC   O2120694   5.096   3.048  10.702 -0.0685 -0.0924  0.0925
  181SLPC   C2120695   5.174   3.116  10.618 -0.5025  0.5157 -0.0845
  181SLPC   O2220696   5.298   3.115  10.615  0.3162  0.1014 -0.0441
  181SLPC   C2220697   5.098   3.210  10.527  0.3413  0.5675  0.1265
  181SLPC   H2R20698   5.005   3.245  10.577 -0.6641  0.5674 -1.6824
  181SLPC   H2S20699   5.161   3.302  10.516  0.2279  0.5451 -0.7890
  181SLPC    C320700   5.241   2.843  10.753  0.2801 -0.3698  0.1133
  181SLPC    HX20701   5.309   2.800  10.829 -1.2077  0.7702  2.1883
  181SLPC    HY20702   5.316   2.876  10.679  1.1727 -1.2466  0.6107
  181SLPC   O3120703   5.150   2.746  10.690 -0.4917  0.0892 -0.1411
  181SLPC   C3120704   5.204   2.629  10.672 -0.1195  0.6295  0.4337
  181SLPC   O3220705   5.328   2.604  10.691  0.0067  0.2612  0.0090
  181SLPC   C3220706   5.103   2.538  10.615  0.0983 -0.1275  0.5046
  181SLPC   H2X20707   5.018   2.530  10.686  0.4540  0.5917  1.0186
  181SLPC   H2Y20708   5.144   2.435  10.607 -1.0613 -0.5947  0.5146
  181SLPC   C2320709   5.088   3.152  10.386 -0.1130 -0.0675  0.4017
  181SLPC   H3R20710   4.995   3.092  10.386 -0.7416  0.8694 -0.4645
  181SLPC   H3S20711   5.182   3.096  10.365 -0.6751 -0.2548 -1.8934
  181SLPC   C2420712   5.069   3.254  10.275 -0.3135 -0.0399  0.3120
  181SLPC   H4R20713   5.156   3.323  10.264 -0.8960  0.5201 -1.0653
  181SLPC   H4S20714   4.984   3.324  10.291 -0.6189 -0.7151  1.7646
  181SLPC   C2520715   5.049   3.190  10.129  0.4606 -0.3483  0.2468
  181SLPC   H5R20716   4.979   3.257  10.075  1.2206 -0.7971 -1.3384
  181SLPC   H5S20717   5.000   3.091  10.129 -1.1336  0.4045 -1.0281
  181SLPC   C2620718   5.177   3.201  10.050 -0.4235  0.1914 -0.1854
  181SLPC   H6R20719   5.222   3.100  10.050  1.5694  1.0236  0.6975
  181SLPC   H6S20720   5.255   3.269  10.089  0.4877  0.4653 -2.3892
  181SLPC   C2720721   5.159   3.233   9.900 -0.4126  0.1397 -0.3401
  181SLPC   H7R20722   5.146   3.343   9.892  0.0312  0.1176 -1.4638
  181SLPC   H7S20723   5.066   3.180   9.872 -1.2537  0.9995  0.7453
  181SLPC   C2820724   5.259   3.173   9.800 -0.5595  0.4648  0.5262
  181SLPC   H8R20725   5.232   3.194   9.694 -3.3500 -1.0897  0.8365
  181SLPC   H8S20726   5.257   3.062   9.805 -1.4355  0.4219 -0.4652
  181SLPC   C2920727   5.405   3.227   9.818  0.6341  0.0126 -0.5097
  181SLPC   H9R20728   5.432   3.241   9.924 -0.7809  0.0281 -0.1327
  181SLPC  C21020729   5.487   3.246   9.714  0.1677  0.2622 -0.8214
  181SLPC  H10R20730   5.589   3.279   9.740 -0.3324  1.6181 -0.5470
  181SLPC  C21120731   5.480   3.232   9.562  0.2417 -0.2474 -0.7359
  181SLPC  H11R20732   5.569   3.269   9.507  0.3821 -1.2536 -1.1986
  181SLPC  H11S20733   5.390   3.288   9.528 -2.8904 -4.8321 -0.9603
  181SLPC  C21220734   5.464   3.085   9.530 -0.5416  0.3234  0.2421
  181SLPC  H12R20735   5.429   3.019   9.610  0.2793 -0.2983  0.1047
  181SLPC  C21320736   5.468   3.038   9.403  0.3588  0.3734 -0.6739
  181SLPC  H13R20737   5.454   2.930   9.386 -2.3281  0.5726 -0.1493
  181SLPC  C21420738   5.480   3.126   9.282  0.1296 -0.2140  0.1150
  181SLPC  H14R20739   5.576   3.113   9.228  0.2114  3.2005 -0.7491
  181SLPC  H14S20740   5.492   3.234   9.303 -3.4050  0.4615 -0.7892
  181SLPC  C21520741   5.366   3.099   9.184  0.3159  0.4367  0.6073
  181SLPC  H15R20742   5.378   3.194   9.128 -0.9657  0.1122 -0.2623
  181SLPC  H15S20743   5.268   3.093   9.236  1.7745 -0.1793  3.4561
  181SLPC  C21620744   5.393   2.990   9.076 -0.2198 -0.2356 -0.4200
  181SLPC  H16R20745   5.297   2.967   9.025 -0.0579 -2.5690  0.2052
  181SLPC  H16S20746   5.414   2.890   9.120 -3.0383 -0.5993  0.3138
  181SLPC  C21720747   5.505   3.027   8.975  0.3414 -0.3429 -0.1322
  181SLPC  H17R20748   5.591   3.080   9.021  0.1488 -0.8780  0.8711
  181SLPC  H17S20749   5.467   3.106   8.906  1.0811  0.7849  0.7099
  181SLPC  C21820750   5.551   2.912   8.887 -0.0092  0.3696  0.1180
  181SLPC  H18R20751   5.578   2.836   8.964 -0.3063  0.7573  0.6131
  181SLPC  H18S20752   5.641   2.945   8.830 -1.0709  2.0774 -0.6456
  181SLPC  H18T20753   5.471   2.869   8.824 -1.3634  0.3572  1.7780
  181SLPC   C3320754   5.057   2.563  10.473 -0.5776 -0.8043  0.1426
  181SLPC   H3X20755   5.018   2.667  10.462  1.8344  0.0229 -1.3406
  181SLPC   H3Y20756   4.976   2.492  10.446  0.1923 -1.2006 -1.2071
  181SLPC   C3420757   5.175   2.548  10.366  0.3329 -0.0652  0.4545
  181SLPC   H4X20758   5.144   2.489  10.278 -0.3024 -1.9677  1.8889
  181SLPC   H4Y20759   5.258   2.499  10.422 -1.0090 -1.5927  1.1944
  181SLPC   C3520760   5.222   2.688  10.317 -0.0322 -0.2043 -0.1461
  181SLPC   H5X20761   5.243   2.745  10.410  0.3514 -0.3951 -0.1160
  181SLPC   H5Y20762   5.133   2.732  10.266 -1.6348 -0.2929  2.4089
  181SLPC   C3620763   5.342   2.681  10.219 -0.0467  0.0218  0.0938
  181SLPC   H6X20764   5.436   2.700  10.274 -0.5643  0.4094  0.8635
  181SLPC   H6Y20765   5.339   2.766  10.148  0.8607  0.5313  0.6461
  181SLPC   C3720766   5.347   2.551  10.134 -0.6115 -0.2962 -0.0156
  181SLPC   H7X20767   5.250   2.532  10.083 -1.0462 -1.4008  1.1709
  181SLPC   H7Y20768   5.369   2.469  10.206 -1.6056 -1.6982 -1.2336
  181SLPC   C3820769   5.466   2.559  10.035  0.4122 -0.9519  0.2545
  181SLPC   H8X20770   5.558   2.574  10.096 -0.4103  1.9583  0.9594
  181SLPC   H8Y20771   5.457   2.645   9.966 -0.8649 -0.7970  0.5939
  181SLPC   C3920772   5.489   2.434   9.935  0.1695 -0.5988 -0.1624
  181SLPC   H9X20773   5.398   2.376   9.910 -1.0218  1.3995 -0.6815
  181SLPC   H9Y20774   5.557   2.361   9.984 -0.2997 -1.3423 -0.6007
  181SLPC  C31020775   5.557   2.472   9.806 -0.0651 -0.2216 -0.1527
  181SLPC  H10X20776   5.600   2.379   9.763 -0.9275 -0.5514 -0.3164
  181SLPC  H10Y20777   5.647   2.536   9.817  0.0186 -0.6286  1.9725
  181SLPC  C31120778   5.462   2.544   9.714 -0.3196 -0.1899  0.1332
  181SLPC  H11X20779   5.473   2.649   9.748  2.6149 -0.2063 -0.4378
  181SLPC  H11Y20780   5.360   2.502   9.720 -0.7335  0.6721 -0.6151
  181SLPC  C31220781   5.506   2.554   9.566 -0.5394  0.2789 -0.6159
  181SLPC  H12X20782   5.607   2.601   9.572 -0.8483  0.7742  2.7168
  181SLPC  H12Y20783   5.449   2.636   9.519 -0.1097  1.4698  0.8706
  181SLPC  C31320784   5.521   2.415   9.496 -0.1024 -0.1553 -0.3958
  181SLPC  H13X20785   5.435   2.349   9.520  0.3855 -0.8239 -0.4553
  181SLPC  H13Y20786   5.616   2.368   9.530  1.0055  3.4974  2.1884
  181SLPC  C31420787   5.531   2.429   9.338 -0.1006  0.6406  0.1737
  181SLPC  H14X20788   5.577   2.337   9.297 -0.0736  0.7277  0.0051
  181SLPC  H14Y20789   5.594   2.518   9.314  0.2581 -0.4376 -3.4574
  181SLPC  C31520790   5.396   2.463   9.266  0.4283 -0.2386 -0.5733
  181SLPC  H15X20791   5.332   2.525   9.332 -0.3195 -0.1124 -1.3987
  181SLPC  H15Y20792   5.345   2.365   9.253 -1.3389  0.1813  2.3709
  181SLPC  C31620793   5.428   2.521   9.135  0.7591 -0.1643  0.1831
  181SLPC  H16X20794   5.498   2.462   9.072 -0.6453 -0.7356 -0.8846
  181SLPC  H16Y20795   5.482   2.617   9.149  0.5390 -0.2225  1.6497
  181SLPC  C31720796   5.301   2.541   9.053 -0.1919  0.5551  0.0540
  181SLPC  H17X20797   5.228   2.612   9.098 -0.1514  1.2714 -0.9678
  181SLPC  H17Y20798   5.243   2.448   9.041  2.6530 -1.1208 -1.9880
  181SLPC  C31820799   5.318   2.588   8.911 -0.0740  0.5155  0.4690
  181SLPC  H18X20800   5.219   2.613   8.868  0.2659 -0.1095 -0.7216
  181SLPC  H18Y20801   5.373   2.521   8.841 -2.1804  1.8384 -2.6444
  181SLPC  H18Z20802   5.382   2.679   8.916  0.0215  0.4474  0.4997
  182SLPC     N20803   2.344   4.062  11.057  0.6862  0.0184 -0.4048
  182SLPC   C1320804   2.213   4.028  10.996  0.1408 -0.1359  0.0479
  182SLPC  H13A20805   2.181   4.096  10.919 -0.1166  0.3395  0.5681
  182SLPC  H13B20806   2.226   3.944  10.929 -1.3319  0.3999 -0.9629
  182SLPC  H13C20807   2.138   4.011  11.072 -0.4829  3.1897  0.3244
  182SLPC   C1420808   2.372   3.977  11.170 -0.1342  0.6673 -0.1924
  182SLPC  H14A20809   2.472   3.992  11.209  0.1388  0.6195 -0.8597
  182SLPC  H14B20810   2.302   3.992  11.250 -1.1559  0.5235 -1.0418
  182SLPC  H14C20811   2.354   3.875  11.138  2.3195 -0.0455  0.4555
  182SLPC   C1520812   2.342   4.202  11.109 -0.3052  0.2960  0.2647
  182SLPC  H15A20813   2.328   4.277  11.032  3.1613  1.5951  0.6692
  182SLPC  H15B20814   2.268   4.216  11.186  0.6357 -0.8636  1.4242
  182SLPC  H15C20815   2.437   4.230  11.153 -1.1182  0.2283  2.1704
  182SLPC   C1220816   2.452   4.056  10.949  0.8833 -0.9468  0.1517
  182SLPC  H12A20817   2.545   4.086  10.997  0.1926  0.1654  0.8453
  182SLPC  H12B20818   2.435   4.131  10.872  1.0413  0.3520  1.3369
  182SLPC   C1120819   2.487   3.924  10.877  0.1314 -0.7286  0.3743
  182SLPC  H11A20820   2.534   3.865  10.958  1.2746  0.2026  0.4097
  182SLPC  H11B20821   2.566   3.937  10.800 -1.6603  3.6357 -1.0618
  182SLPC     P20822   2.378   3.723  10.747  0.4304  0.4244 -0.0978
  182SLPC   O1320823   2.340   3.608  10.841 -0.1123  0.0068  0.6435
  182SLPC   O1420824   2.288   3.740  10.630 -0.6239  0.1689  0.1688
  182SLPC   O1220825   2.375   3.856  10.828 -0.6579 -0.1018 -0.3569
  182SLPC   O1120826   2.528   3.705  10.708  0.4703  0.4696 -0.4994
  182SLPC    C120827   2.590   3.599  10.645  0.6565  0.3835  0.3660
  182SLPC    HA20828   2.635   3.536  10.725 -0.3683  0.5909  1.1211
  182SLPC    HB20829   2.507   3.535  10.609  0.8340 -0.5318  1.4912
  182SLPC    C220830   2.693   3.633  10.535  0.3069 -0.2037  0.3933
  182SLPC    HS20831   2.711   3.536  10.486  0.8057  1.0261 -1.9791
  182SLPC   O2120832   2.810   3.696  10.591  0.2251 -0.2279 -0.0273
  182SLPC   C2120833   2.907   3.620  10.631 -0.0028  1.1731 -0.6486
  182SLPC   O2220834   2.912   3.500  10.646  0.1240  0.5689  0.2983
  182SLPC   C2220835   3.035   3.707  10.645  0.0995  0.5518 -0.1815
  182SLPC   H2R20836   3.018   3.775  10.731  3.2549  0.6603  0.4557
  182SLPC   H2S20837   3.115   3.636  10.675 -1.4104 -1.0257  0.3196
  182SLPC    C320838   2.622   3.731  10.435  0.7835  0.7420  0.3190
  182SLPC    HX20839   2.633   3.830  10.483  1.6645  0.6990  0.2154
  182SLPC    HY20840   2.514   3.708  10.447  0.9119  0.1617  0.4247
  182SLPC   O3120841   2.659   3.731  10.296 -0.2993 -0.0134 -0.0417
  182SLPC   C3120842   2.600   3.831  10.238 -0.4645  0.2079 -0.7272
  182SLPC   O3220843   2.517   3.903  10.291 -0.0079  0.0434  0.1208
  182SLPC   C3220844   2.656   3.853  10.101 -0.0459  0.4199 -0.3387
  182SLPC   H2X20845   2.612   3.779  10.031 -0.7436 -0.6606  1.1976
  182SLPC   H2Y20846   2.767   3.848  10.108 -0.0193  1.3822  0.1638
  182SLPC   C2320847   3.075   3.792  10.523 -0.1675  0.0477 -0.4484
  182SLPC   H3R20848   3.164   3.849  10.558 -0.5586  0.0513  0.5565
  182SLPC   H3S20849   2.993   3.865  10.506  0.5047  0.8583 -0.2806
  182SLPC   C2420850   3.096   3.714  10.396 -0.0384 -0.9222 -0.7970
  182SLPC   H4R20851   3.126   3.779  10.311  0.1151 -0.6294 -0.5203
  182SLPC   H4S20852   2.999   3.667  10.366 -0.1175  0.4795 -2.9421
  182SLPC   C2520853   3.210   3.607  10.389  0.1166 -0.8037 -0.0956
  182SLPC   H5R20854   3.168   3.527  10.454  0.1452 -0.0366  0.8988
  182SLPC   H5S20855   3.304   3.644  10.436 -0.0069  1.1330 -1.2524
  182SLPC   C2620856   3.234   3.546  10.253  0.1153  0.3137 -0.1035
  182SLPC   H6R20857   3.267   3.440  10.257 -1.2944 -0.4124 -3.7930
  182SLPC   H6S20858   3.301   3.617  10.200  1.4469 -0.1603  0.8775
  182SLPC   C2720859   3.108   3.537  10.161  0.0873  0.8368  0.1883
  182SLPC   H7R20860   3.061   3.636  10.141 -1.4049  0.1973  0.3952
  182SLPC   H7S20861   3.035   3.472  10.215  1.2609  1.0883  2.1793
  182SLPC   C2820862   3.150   3.470  10.032  0.3134 -0.0296 -0.3237
  182SLPC   H8R20863   3.204   3.374  10.049 -1.8294 -1.5415 -1.5530
  182SLPC   H8S20864   3.223   3.547  10.000 -0.8001  1.2270  0.0876
  182SLPC   C2920865   3.040   3.460   9.928  1.2864  0.1178  0.0857
  182SLPC   H9R20866   2.966   3.380   9.943  1.0091  0.5227  0.9747
  182SLPC  C21020867   3.022   3.539   9.820  0.4333  0.4476  0.0285
  182SLPC  H10R20868   2.925   3.524   9.770  1.1146 -0.3081 -1.1083
  182SLPC  C21120869   3.098   3.659   9.776 -0.2870 -0.3686 -0.1823
  182SLPC  H11R20870   3.148   3.642   9.678  1.1987 -0.5726  0.5729
  182SLPC  H11S20871   3.179   3.667   9.852 -0.4070  2.4399 -0.2536
  182SLPC  C21220872   2.999   3.770   9.787  0.1223 -0.7769  0.1347
  182SLPC  H12R20873   2.956   3.791   9.885 -1.4711 -3.4234  0.0970
  182SLPC  C21320874   2.957   3.842   9.675  0.0087 -0.8687 -0.8085
  182SLPC  H13R20875   2.884   3.920   9.701  0.7143 -0.4454 -0.0647
  182SLPC  C21420876   3.007   3.833   9.532 -0.5378 -0.5057 -0.6454
  182SLPC  H14R20877   3.064   3.737   9.531  0.5174  0.0769  0.0849
  182SLPC  H14S20878   3.079   3.917   9.516  1.6451 -2.3585 -1.0864
  182SLPC  C21520879   2.900   3.844   9.423 -0.2694 -0.4817 -0.1341
  182SLPC  H15R20880   2.941   3.828   9.321 -1.6346 -0.1296 -0.7534
  182SLPC  H15S20881   2.868   3.949   9.407  0.2964  0.4269  3.6860
  182SLPC  C21620882   2.790   3.736   9.436 -0.6260 -0.3778  0.6807
  182SLPC  H16R20883   2.747   3.745   9.538 -0.3766  1.3288  0.6652
  182SLPC  H16S20884   2.846   3.640   9.429  1.2150  0.6689  0.4643
  182SLPC  C21720885   2.690   3.747   9.316 -0.3542 -0.2190 -0.2433
  182SLPC  H17R20886   2.747   3.723   9.224 -0.0807  0.8906 -0.3734
  182SLPC  H17S20887   2.648   3.849   9.305 -1.9117 -0.7646  0.3337
  182SLPC  C21820888   2.570   3.648   9.317  0.3347  0.4661 -0.8811
  182SLPC  H18R20889   2.605   3.550   9.280 -0.6697  0.2127 -1.1904
  182SLPC  H18S20890   2.490   3.690   9.253 -1.9020  0.0736  1.4802
  182SLPC  H18T20891   2.523   3.649   9.418  0.4347  3.2064 -0.7815
  182SLPC   C3320892   2.608   3.993  10.052 -0.6533 -0.7166  0.3635
  182SLPC   H3X20893   2.635   4.068  10.129 -1.4586  0.2044 -0.2316
  182SLPC   H3Y20894   2.498   3.992  10.037 -0.5555  1.7270 -0.9878
  182SLPC   C3420895   2.667   4.042   9.922  0.7322  0.2806 -0.2344
  182SLPC   H4X20896   2.621   3.981   9.841 -0.3042  0.8589 -0.1016
  182SLPC   H4Y20897   2.777   4.037   9.929  0.7965  0.1143 -1.1978
  182SLPC   C3520898   2.649   4.202   9.887  0.1411 -0.3138 -0.0779
  182SLPC   H5X20899   2.700   4.253   9.972 -0.8721 -0.0635  0.3890
  182SLPC   H5Y20900   2.544   4.237   9.899  0.9160  1.2401  3.3682
  182SLPC   C3620901   2.705   4.243   9.754  0.7131  0.9112  1.0213
  182SLPC   H6X20902   2.811   4.209   9.747  0.3794  0.2171 -1.2829
  182SLPC   H6Y20903   2.692   4.353   9.743 -1.9950  0.7946  2.1937
  182SLPC   C3720904   2.627   4.178   9.637 -0.0400  1.0252  0.0912
  182SLPC   H7X20905   2.519   4.201   9.634 -0.2044  0.2735 -2.4439
  182SLPC   H7Y20906   2.626   4.067   9.648 -1.5035  0.9372 -0.7541
  182SLPC   C3820907   2.684   4.209   9.498 -0.2971 -0.1107  0.2434
  182SLPC   H8X20908   2.791   4.180   9.490  0.1773  1.8551 -1.7944
  182SLPC   H8Y20909   2.682   4.320   9.494 -0.3681 -0.0580  1.3836
  182SLPC   C3920910   2.610   4.140   9.391  0.4310  0.4227 -0.0910
  182SLPC   H9X20911   2.511   4.186   9.374  0.7426  1.0768 -0.1553
  182SLPC   H9Y20912   2.611   4.035   9.428  2.5424  0.0382 -1.0882
  182SLPC  C31020913   2.675   4.123   9.254  0.0232  0.5499 -0.1373
  182SLPC  H10X20914   2.605   4.057   9.199 -1.8537  0.0657  2.6416
  182SLPC  H10Y20915   2.772   4.074   9.277  0.9237  2.8131  1.1809
  182SLPC  C31120916   2.707   4.250   9.173 -0.0732 -0.1823 -0.1984
  182SLPC  H11X20917   2.767   4.317   9.238  2.4216 -4.0307  1.8930
  182SLPC  H11Y20918   2.611   4.300   9.150 -0.4858 -1.3026 -1.0302
  182SLPC  C31220919   2.783   4.209   9.042  0.3155  0.1046 -0.4032
  182SLPC  H12X20920   2.770   4.293   8.970  0.4717 -0.8509 -1.5738
  182SLPC  H12Y20921   2.737   4.117   9.001  1.2469  0.1873 -1.6752
  182SLPC  C31320922   2.929   4.190   9.084  0.0830 -0.2252  0.5921
  182SLPC  H13X20923   2.942   4.112   9.161  2.5798 -0.5559 -0.0873
  182SLPC  H13Y20924   2.971   4.285   9.124 -1.9783  0.6684  0.7909
  182SLPC  C31420925   3.022   4.148   8.958  0.1918  0.1674 -0.4001
  182SLPC  H14X20926   3.126   4.137   8.995  0.5594 -0.1953 -1.5039
  182SLPC  H14Y20927   3.034   4.219   8.874  0.0712  1.4397  0.6162
  182SLPC  C31520928   2.981   4.006   8.909 -0.0126  0.4395 -0.0127
  182SLPC  H15X20929   2.882   4.007   8.858  0.2838 -0.1921 -0.6250
  182SLPC  H15Y20930   2.986   3.926   8.987  0.8072 -0.9789 -1.4440
  182SLPC  C31620931   3.065   3.975   8.788  0.5854 -0.0653  1.1623
  182SLPC  H16X20932   3.171   3.998   8.810 -0.0069  2.4305  1.7002
  182SLPC  H16Y20933   3.028   4.031   8.700 -0.2883 -3.3290 -0.7369
  182SLPC  C31720934   3.057   3.824   8.757 -0.0359 -0.5941 -0.7296
  182SLPC  H17X20935   2.961   3.789   8.713  0.3659 -0.7447 -1.5048
  182SLPC  H17Y20936   3.073   3.783   8.859  4.0556  2.0287 -0.1027
  182SLPC  C31820937   3.159   3.779   8.660  0.2749 -0.0264  0.1657
  182SLPC  H18X20938   3.168   3.669   8.650 -0.2230 -0.0815  0.2753
  182SLPC  H18Y20939   3.256   3.825   8.688 -0.9272  0.5742  3.8915
  182SLPC  H18Z20940   3.120   3.806   8.559 -0.4164  0.4398  0.5498
  183SLPC     N20941   3.931   3.836  10.970 -0.5022 -0.5328  0.0135
  183SLPC   C1320942   4.031   3.734  10.935 -0.3954  0.1684 -0.4930
  183SLPC  H13A20943   4.122   3.744  10.993 -0.2897  1.0164 -0.7879
  183SLPC  H13B20944   4.003   3.631  10.950 -0.2293 -0.0793 -1.7955
  183SLPC  H13C20945   4.070   3.739  10.835 -1.4394  1.1411 -0.8715
  183SLPC   C1420946   3.895   3.834  11.114  0.2526  0.0343 -0.7940
  183SLPC  H14A20947   3.980   3.863  11.174 -0.3190 -0.7609  0.4436
  183SLPC  H14B20948   3.817   3.901  11.146  1.0630  0.4488  0.4029
  183SLPC  H14C20949   3.864   3.733  11.139  1.8644 -0.3700 -0.2847
  183SLPC   C1520950   3.801   3.806  10.894 -0.1626 -0.4792 -0.3590
  183SLPC  H15A20951   3.714   3.855  10.935  0.8008 -0.4547  1.8368
  183SLPC  H15B20952   3.801   3.815  10.786  0.1876 -0.6794 -0.3768
  183SLPC  H15C20953   3.789   3.703  10.921 -0.2462  0.0748  1.9368
  183SLPC   C1220954   3.983   3.977  10.944 -0.0772  0.3994 -0.1327
  183SLPC  H12A20955   4.070   3.992  11.005 -0.4369 -1.4065  0.9016
  183SLPC  H12B20956   3.907   4.045  10.981  0.8682  0.4452  1.8239
  183SLPC   C1120957   4.015   4.010  10.797 -0.1551 -0.4784  1.2523
  183SLPC  H11A20958   4.026   4.119  10.780 -1.6743 -0.3781  0.8494
  183SLPC  H11B20959   3.930   3.986  10.730  2.2412 -1.4019 -1.7294
  183SLPC     P20960   4.265   4.001  10.781 -0.3793 -0.0980  0.0925
  183SLPC   O1320961   4.263   4.061  10.914 -0.0735 -0.1789 -0.7391
  183SLPC   O1420962   4.366   3.900  10.762  0.1628  0.6345 -1.0278
  183SLPC   O1220963   4.129   3.936  10.744  0.1020 -0.4050 -0.2696
  183SLPC   O1120964   4.287   4.114  10.665 -0.0615 -0.3300 -0.6363
  183SLPC    C120965   4.398   4.119  10.577  0.0345 -0.1327 -0.5750
  183SLPC    HA20966   4.454   4.208  10.614  1.7795 -1.4953  0.2060
  183SLPC    HB20967   4.474   4.039  10.591  1.1562  1.2223  1.7739
  183SLPC    C220968   4.360   4.144  10.427 -0.1530  0.0828 -0.0135
  183SLPC    HS20969   4.457   4.180  10.385 -0.5082  1.6653  0.4507
  183SLPC   O2120970   4.256   4.247  10.419 -0.2862 -0.4852 -0.0911
  183SLPC   C2120971   4.306   4.370  10.448 -0.4541  0.7605 -0.1849
  183SLPC   O2220972   4.425   4.396  10.460 -0.1559  0.3001  0.8876
  183SLPC   C2220973   4.190   4.472  10.461 -0.6903 -0.1381  0.0259
  183SLPC   H2R20974   4.105   4.426  10.517 -0.0610 -4.3847 -2.0674
  183SLPC   H2S20975   4.225   4.555  10.525 -2.0878  1.2166 -0.9099
  183SLPC    C320976   4.315   4.022  10.356 -0.2712  0.0534 -0.2612
  183SLPC    HX20977   4.206   4.005  10.365 -0.2329 -0.5289 -0.8140
  183SLPC    HY20978   4.361   3.938  10.412 -1.1111 -0.5252 -0.4203
  183SLPC   O3120979   4.353   4.025  10.213  0.0701  0.2958  0.0179
  183SLPC   C3120980   4.469   3.963  10.185 -0.7039 -0.0303 -0.4455
  183SLPC   O3220981   4.544   3.912  10.268  0.1210  0.5826 -0.0129
  183SLPC   C3220982   4.483   3.963  10.032 -0.3937  0.7679 -0.5902
  183SLPC   H2X20983   4.483   4.068   9.994  0.8740  0.8196 -0.5034
  183SLPC   H2Y20984   4.397   3.905   9.992  0.1752  0.9812 -2.2279
  183SLPC   C2320985   4.149   4.536  10.325  0.7397  0.8289 -0.2835
  183SLPC   H3R20986   4.236   4.579  10.271  0.3184  0.3002 -1.4091
  183SLPC   H3S20987   4.084   4.623  10.348 -0.8912 -0.0816 -1.3042
  183SLPC   C2420988   4.086   4.442  10.228  0.5291 -0.3109 -0.2949
  183SLPC   H4R20989   4.019   4.491  10.154  1.8074  0.6360 -0.8582
  183SLPC   H4S20990   4.014   4.368  10.271  1.8607 -0.9740  0.8747
  183SLPC   C2520991   4.188   4.374  10.135 -0.1169  0.3819 -0.3439
  183SLPC   H5R20992   4.228   4.284  10.187 -1.7841 -1.5773 -2.2598
  183SLPC   H5S20993   4.272   4.441  10.109  0.3703 -0.4134 -0.8656
  183SLPC   C2620994   4.141   4.318   9.998 -0.0569 -0.1394  0.0802
  183SLPC   H6R20995   4.235   4.308   9.941  1.6198 -1.6987  2.8732
  183SLPC   H6S20996   4.080   4.393   9.943 -0.4518 -0.8272 -0.4375
  183SLPC   C2720997   4.082   4.178  10.001  0.4109  1.2946 -0.2039
  183SLPC   H7R20998   3.984   4.185  10.054  0.5025 -0.1695  0.1953
  183SLPC   H7S20999   4.148   4.109  10.057 -0.5824 -0.1417 -0.7436
  183SLPC   C2821000   4.053   4.100   9.868 -0.1206  0.6794 -0.1072
  183SLPC   H8R21001   3.986   4.166   9.808  0.2006 -0.2945 -1.5642
  183SLPC   H8S21002   3.998   4.007   9.892  0.8976 -0.9081 -3.3493
  183SLPC   C2921003   4.172   4.054   9.788 -0.1618  0.2023  0.4037
  183SLPC   H9R21004   4.228   3.975   9.841  0.8002  1.2374  0.9700
  183SLPC  C21021005   4.224   4.119   9.682  0.2323 -0.0040  0.0806
  183SLPC  H10R21006   4.309   4.080   9.625 -0.6164  0.5011 -1.5793
  183SLPC  C21121007   4.170   4.245   9.622 -0.3469 -0.2003  0.1911
  183SLPC  H11R21008   4.253   4.317   9.604  0.2582 -1.4003 -2.4032
  183SLPC  H11S21009   4.116   4.305   9.698 -1.4329 -0.4066 -0.3998
  183SLPC  C21221010   4.092   4.225   9.498  0.2094 -0.1860  0.4382
  183SLPC  H12R21011   3.984   4.230   9.522  0.3665  1.6381  0.8886
  183SLPC  C21321012   4.126   4.211   9.370 -0.2061 -0.3832  0.7032
  183SLPC  H13R21013   4.043   4.181   9.304 -0.4127 -0.6562  1.0819
  183SLPC  C21421014   4.265   4.212   9.307 -0.1252  0.6174 -0.2538
  183SLPC  H14R21015   4.312   4.111   9.317 -0.4591  0.1909 -2.4482
  183SLPC  H14S21016   4.343   4.272   9.358 -0.4176 -0.5524  1.7080
  183SLPC  C21521017   4.262   4.249   9.155  0.0463  0.2631 -0.6395
  183SLPC  H15R21018   4.220   4.351   9.138 -1.7924 -0.6578 -1.9350
  183SLPC  H15S21019   4.195   4.176   9.105 -0.6010 -0.8798  1.7056
  183SLPC  C21621020   4.395   4.247   9.082 -0.0853  0.0006 -0.5105
  183SLPC  H16R21021   4.445   4.149   9.095  1.9969  1.0977  0.3086
  183SLPC  H16S21022   4.458   4.331   9.119 -1.2379  0.6808 -0.0457
  183SLPC  C21721023   4.380   4.276   8.927 -0.0780  0.1623 -0.2068
  183SLPC  H17R21024   4.481   4.261   8.882 -0.2599 -2.0819 -0.0104
  183SLPC  H17S21025   4.346   4.380   8.911  0.3854  0.3294 -0.1198
  183SLPC  C21821026   4.300   4.181   8.837  0.3825  0.2444  0.3069
  183SLPC  H18R21027   4.194   4.199   8.866  1.0881  2.6441  1.6855
  183SLPC  H18S21028   4.319   4.074   8.860 -2.8867 -0.6495 -0.5835
  183SLPC  H18T21029   4.304   4.210   8.730 -1.7148  1.3354  0.4566
  183SLPC   C3321030   4.603   3.893   9.987 -1.3198 -0.1321 -0.0399
  183SLPC   H3X21031   4.593   3.782   9.995  0.1888 -0.3672 -0.9652
  183SLPC   H3Y21032   4.678   3.922  10.063 -2.0165 -0.3038  0.7350
  183SLPC   C3421033   4.638   3.929   9.837 -0.7386 -0.6554 -0.1723
  183SLPC   H4X21034   4.731   3.872   9.815  0.8494  0.4079  3.0878
  183SLPC   H4Y21035   4.659   4.036   9.817 -4.0904 -0.0339 -0.8732
  183SLPC   C3521036   4.536   3.874   9.734  0.1612 -0.1713 -1.2609
  183SLPC   H5X21037   4.438   3.926   9.740 -1.0115 -2.3683 -0.5660
  183SLPC   H5Y21038   4.510   3.769   9.756 -0.5179  0.1846 -0.2799
  183SLPC   C3621039   4.591   3.879   9.588 -0.4780 -0.4500  0.1210
  183SLPC   H6X21040   4.670   3.803   9.577 -0.3658 -0.2243 -0.7471
  183SLPC   H6Y21041   4.634   3.980   9.570 -1.9701 -0.2287 -2.8781
  183SLPC   C3721042   4.485   3.848   9.475 -0.3525 -0.1231 -0.4240
  183SLPC   H7X21043   4.414   3.934   9.473 -1.0206 -0.6014  1.2462
  183SLPC   H7Y21044   4.431   3.756   9.506 -2.0183  1.3673  1.3509
  183SLPC   C3821045   4.550   3.835   9.332 -0.1580 -0.4653 -0.4243
  183SLPC   H8X21046   4.608   3.740   9.338 -1.0029 -0.9019  2.0093
  183SLPC   H8Y21047   4.626   3.915   9.320 -0.5870 -0.0839 -0.6234
  183SLPC   C3921048   4.460   3.841   9.213 -0.1549  0.2973  0.4758
  183SLPC   H9X21049   4.398   3.932   9.226 -0.9126 -0.2845  1.0897
  183SLPC   H9Y21050   4.385   3.758   9.211 -1.0317  1.0775  0.1135
  183SLPC  C31021051   4.535   3.836   9.081 -0.2581 -0.1442 -0.4474
  183SLPC  H10X21052   4.596   3.743   9.087  0.0292  0.0841  0.2229
  183SLPC  H10Y21053   4.600   3.925   9.075 -1.8259  1.1676  1.1817
  183SLPC  C31121054   4.444   3.820   8.955  0.2682 -0.0726  0.2540
  183SLPC  H11X21055   4.371   3.903   8.957 -0.3427 -0.6047  0.1333
  183SLPC  H11Y21056   4.390   3.724   8.967  0.4181 -0.7615 -3.3600
  183SLPC  C31221057   4.519   3.816   8.823 -0.4074  0.2126 -0.1018
  183SLPC  H12X21058   4.440   3.790   8.749  0.6465 -1.7130 -0.6235
  183SLPC  H12Y21059   4.590   3.730   8.827  0.8657  1.2190  4.2225
  183SLPC  C31321060   4.598   3.945   8.783  0.7592 -0.5042 -0.4783
  183SLPC  H13X21061   4.640   3.992   8.874  0.3406 -3.0268  1.1189
  183SLPC  H13Y21062   4.534   4.019   8.730 -1.0906 -0.4828  1.6544
  183SLPC  C31421063   4.721   3.930   8.697  0.0574 -0.5111  0.3826
  183SLPC  H14X21064   4.686   3.900   8.596  0.3971 -0.1783  0.1628
  183SLPC  H14Y21065   4.783   3.854   8.750 -2.6757 -3.1816 -0.0089
  183SLPC  C31521066   4.805   4.064   8.704  0.0640  0.2420 -0.6005
  183SLPC  H15X21067   4.832   4.094   8.808 -2.5245  1.2024 -0.1094
  183SLPC  H15Y21068   4.740   4.144   8.663 -0.9649  0.4001  1.2189
  183SLPC  C31621069   4.931   4.052   8.621 -0.2155 -0.6804 -0.5392
  183SLPC  H16X21070   4.997   3.979   8.672  0.5443  0.6585  0.4624
  183SLPC  H16Y21071   4.985   4.149   8.624 -1.2918 -0.0806 -0.1687
  183SLPC  C31721072   4.901   4.026   8.477  0.3831  0.3392 -0.3758
  183SLPC  H17X21073   4.834   4.099   8.428  0.3497  0.0791 -0.7182
  183SLPC  H17Y21074   4.858   3.925   8.464  0.0169  0.4844 -0.2878
  183SLPC  C31821075   5.032   4.021   8.395  0.7532 -0.4386 -0.3174
  183SLPC  H18X21076   5.011   3.982   8.293 -2.6659  0.1664  0.0463
  183SLPC  H18Y21077   5.114   3.964   8.445  0.5110  0.7860  1.5826
  183SLPC  H18Z21078   5.067   4.126   8.386 -2.0404  0.5872 -0.2442
  184SLPC     N21079   0.077   1.642  10.569 -0.0653  0.3534  0.5949
  184SLPC   C1321080  -0.042   1.550  10.583 -0.1489  0.2767 -0.2951
  184SLPC  H13A21081  -0.021   1.448  10.554  1.8306  1.1747 -2.4462
  184SLPC  H13B21082  -0.079   1.553  10.684 -0.2798  0.4168 -0.3463
  184SLPC  H13C21083  -0.121   1.585  10.519 -0.3423  0.7899  0.2214
  184SLPC   C1421084   0.165   1.595  10.681  0.8172 -0.0168 -0.0062
  184SLPC  H14A21085   0.172   1.488  10.671 -1.1252 -0.2253  0.3488
  184SLPC  H14B21086   0.263   1.641  10.681  0.3651  0.9827  0.1183
  184SLPC  H14C21087   0.118   1.614  10.776  0.6924 -0.5416  0.0388
  184SLPC   C1521088   0.038   1.782  10.596  0.0069  0.2587  0.2068
  184SLPC  H15A21089   0.004   1.806  10.695 -0.5612  0.6492 -0.0729
  184SLPC  H15B21090   0.127   1.843  10.593  1.1995 -1.1399  3.2564
  184SLPC  H15C21091  -0.035   1.836  10.537  2.5224  3.4763 -0.2450
  184SLPC   C1221092   0.142   1.620  10.433 -0.0706 -0.3866 -0.4347
  184SLPC  H12A21093   0.235   1.674  10.431 -0.4511  0.3403  0.7426
  184SLPC  H12B21094   0.082   1.661  10.353  2.1391  1.9130 -1.0277
  184SLPC   C1121095   0.174   1.475  10.394  0.4983  0.0948  0.4515
  184SLPC  H11A21096   0.225   1.467  10.296 -0.4918 -0.9860  0.0012
  184SLPC  H11B21097   0.082   1.413  10.385  1.3695 -1.7530  3.1245
  184SLPC     P21098   0.240   1.264  10.528  0.0921  0.1051 -0.0419
  184SLPC   O1321099   0.338   1.226  10.633 -0.7200 -0.1272 -0.7553
  184SLPC   O1421100   0.101   1.250  10.567  0.8401  0.1604 -0.1256
  184SLPC   O1221101   0.264   1.417  10.480 -0.3161  0.1905 -0.5291
  184SLPC   O1121102   0.264   1.181  10.399 -0.2890  0.7225 -0.1343
  184SLPC    C121103   0.373   1.198  10.313 -0.5694  0.0215  0.0167
  184SLPC    HA21104   0.437   1.284  10.344 -0.0466 -0.6415  0.8048
  184SLPC    HB21105   0.442   1.111  10.320  0.7467  1.1284  1.7482
  184SLPC    C221106   0.328   1.219  10.167 -0.2988  0.6496  0.4186
  184SLPC    HS21107   0.244   1.292  10.166 -0.7593  0.1365  0.8946
  184SLPC   O2121108   0.276   1.091  10.127 -0.2853 -0.4242  0.3881
  184SLPC   C2121109   0.189   1.090  10.022 -1.1722 -0.0602  0.3237
  184SLPC   O2221110   0.142   1.184   9.960  0.0249 -0.0111 -0.2428
  184SLPC   C2221111   0.159   0.949   9.977  0.4112  0.1942 -0.7395
  184SLPC   H2R21112   0.249   0.887   9.996 -1.1790 -3.2865 -3.4431
  184SLPC   H2S21113   0.078   0.903  10.038  0.2081  0.0954 -1.0788
  184SLPC    C321114   0.444   1.278  10.071 -0.0163  0.3740 -1.1070
  184SLPC    HX21115   0.525   1.203  10.067 -0.8975 -0.9605  2.4945
  184SLPC    HY21116   0.494   1.369  10.112 -3.5118  1.9958  0.0486
  184SLPC   O3121117   0.398   1.300   9.939 -0.8507 -0.4247  0.0113
  184SLPC   C3121118   0.341   1.411   9.916  0.3636 -0.1294  0.3385
  184SLPC   O3221119   0.324   1.503   9.992  0.4316 -0.1389  0.6513
  184SLPC   C3221120   0.301   1.415   9.767  0.5017 -0.1804 -0.0860
  184SLPC   H2X21121   0.296   1.516   9.721  1.1252 -0.4199 -0.7073
  184SLPC   H2Y21122   0.198   1.374   9.770 -0.5043  2.0675 -1.3255
  184SLPC   C2321123   0.119   0.936   9.833 -0.5192 -0.4336  0.1606
  184SLPC   H3R21124   0.205   0.976   9.774 -2.5770  1.5264 -1.7268
  184SLPC   H3S21125   0.034   0.998   9.798 -0.4134 -0.8739 -0.9242
  184SLPC   C2421126   0.108   0.791   9.784 -0.5925 -0.1046 -0.0894
  184SLPC   H4R21127   0.006   0.759   9.815 -1.3275  0.2412 -2.0328
  184SLPC   H4S21128   0.183   0.726   9.835  1.0172  1.0613 -0.8861
  184SLPC   C2521129   0.118   0.765   9.632  0.0741 -0.3622 -0.3592
  184SLPC   H5R21130   0.036   0.810   9.572  2.0809  0.9414 -2.2827
  184SLPC   H5S21131   0.107   0.655   9.620 -0.8331 -0.3225  0.0549
  184SLPC   C2621132   0.258   0.791   9.572 -0.7795  0.7836  0.7434
  184SLPC   H6R21133   0.336   0.765   9.647  1.0592 -0.6372 -1.5227
  184SLPC   H6S21134   0.262   0.900   9.550  2.5050  0.7563  0.6671
  184SLPC   C2721135   0.298   0.700   9.454 -0.1991 -0.6203 -0.6093
  184SLPC   H7R21136   0.291   0.594   9.484 -0.6049 -0.9076 -1.6785
  184SLPC   H7S21137   0.404   0.718   9.427  0.2413 -3.0571 -0.7210
  184SLPC   C2821138   0.200   0.710   9.336 -0.4567 -0.3439 -0.1127
  184SLPC   H8R21139   0.096   0.699   9.376  0.1213  0.2705  1.6888
  184SLPC   H8S21140   0.221   0.631   9.262  0.2793 -0.1685 -0.0965
  184SLPC   C2921141   0.214   0.844   9.270  0.0461 -0.1976 -0.3855
  184SLPC   H9R21142   0.189   0.938   9.322 -0.0684 -1.1361  1.3113
  184SLPC  C21021143   0.260   0.857   9.145  0.0269  0.3800 -0.1097
  184SLPC  H10R21144   0.260   0.950   9.087  2.2174  0.5144  0.0056
  184SLPC  C21121145   0.317   0.739   9.066 -0.7213  0.4536  0.5516
  184SLPC  H11R21146   0.232   0.687   9.018 -0.4283  0.2833  0.2029
  184SLPC  H11S21147   0.369   0.659   9.122  3.4634  0.8374 -2.2299
  184SLPC  C21221148   0.403   0.790   8.946 -0.0569 -0.2841 -0.3204
  184SLPC  H12R21149   0.475   0.871   8.964 -0.5690  0.0847  0.0709
  184SLPC  C21321150   0.379   0.761   8.822  0.2357 -0.2381  1.0176
  184SLPC  H13R21151   0.440   0.796   8.738  0.2813 -2.6119  0.0160
  184SLPC  C21421152   0.274   0.666   8.771  0.4181 -0.0332  0.2538
  184SLPC  H14R21153   0.185   0.724   8.737  1.2335  1.5647  0.7063
  184SLPC  H14S21154   0.257   0.589   8.849  1.9658  1.2533  1.9684
  184SLPC  C21521155   0.314   0.588   8.648 -0.1761 -0.4206  0.5163
  184SLPC  H15R21156   0.343   0.656   8.565 -3.1104  0.0584 -0.2202
  184SLPC  H15S21157   0.227   0.538   8.602  0.1546  0.2562 -0.9121
  184SLPC  C21621158   0.431   0.495   8.667 -0.1907  0.2212 -0.3035
  184SLPC  H16R21159   0.398   0.419   8.742 -1.2636  0.1272 -0.8464
  184SLPC  H16S21160   0.524   0.547   8.700 -0.5013 -0.0206  1.0295
  184SLPC  C21721161   0.465   0.408   8.544  0.5041 -0.4573 -0.1533
  184SLPC  H17R21162   0.569   0.368   8.555  0.5270 -0.5928 -0.8403
  184SLPC  H17S21163   0.460   0.462   8.447  0.5771 -0.0927  0.0436
  184SLPC  C21821164   0.373   0.283   8.526 -0.8788  0.7086  0.0393
  184SLPC  H18R21165   0.366   0.224   8.619  0.3318  0.8130  0.2148
  184SLPC  H18S21166   0.408   0.225   8.438  0.1568  0.8968  0.3192
  184SLPC  H18T21167   0.266   0.312   8.513 -0.0865  3.6362 -0.6170
  184SLPC   C3321168   0.384   1.322   9.673 -0.7132  0.5131  0.8318
  184SLPC   H3X21169   0.403   1.222   9.719  1.2516  2.2405  4.1766
  184SLPC   H3Y21170   0.490   1.353   9.677  0.1586 -2.0349 -0.2062
  184SLPC   C3421171   0.341   1.316   9.530 -0.6131  0.2332  0.3581
  184SLPC   H4X21172   0.333   1.420   9.494 -0.6925  0.7809  1.8611
  184SLPC   H4Y21173   0.237   1.280   9.513 -1.3573  2.3211  0.2547
  184SLPC   C3521174   0.422   1.230   9.443  0.2133  0.1220 -0.7514
  184SLPC   H5X21175   0.426   1.129   9.489  0.1027  0.5748  0.2817
  184SLPC   H5Y21176   0.526   1.268   9.445  0.5622 -0.8137  1.0026
  184SLPC   C3621177   0.369   1.223   9.297 -0.7442  0.6774  0.7850
  184SLPC   H6X21178   0.322   1.321   9.273 -0.4276  0.8863  1.0067
  184SLPC   H6Y21179   0.284   1.154   9.281  1.7246 -1.8593 -3.0409
  184SLPC   C3721180   0.475   1.175   9.194  0.8783 -0.3934  0.8135
  184SLPC   H7X21181   0.522   1.076   9.213 -0.9960 -1.7964 -1.2996
  184SLPC   H7Y21182   0.556   1.251   9.205 -1.8055  2.6874  0.8546
  184SLPC   C3821183   0.436   1.193   9.049 -0.6044  0.0731  0.7690
  184SLPC   H8X21184   0.382   1.289   9.034 -0.6082  0.0067  0.3471
  184SLPC   H8Y21185   0.362   1.110   9.034  1.2877 -1.2940 -1.9035
  184SLPC   C3921186   0.552   1.179   8.951  0.0435 -0.1738  0.4706
  184SLPC   H9X21187   0.593   1.077   8.968 -0.9630 -0.4581  1.2888
  184SLPC   H9Y21188   0.635   1.243   8.988 -0.3201  1.2160 -1.0160
  184SLPC  C31021189   0.515   1.203   8.804  0.0871 -0.6311  0.5838
  184SLPC  H10X21190   0.427   1.140   8.783  1.1628 -2.6467  1.8183
  184SLPC  H10Y21191   0.600   1.167   8.742 -2.7828 -0.2218 -4.0203
  184SLPC  C31121192   0.489   1.352   8.776 -0.4867 -0.3490 -0.4023
  184SLPC  H11X21193   0.571   1.405   8.829  2.4832 -4.0077 -0.9163
  184SLPC  H11Y21194   0.390   1.369   8.822 -0.8157 -1.8335 -0.5393
  184SLPC  C31221195   0.475   1.384   8.628 -0.6602  0.9951 -1.0716
  184SLPC  H12X21196   0.409   1.473   8.632 -1.0489  0.7492 -1.9198
  184SLPC  H12Y21197   0.412   1.307   8.579 -0.3816 -1.4410  2.0647
  184SLPC  C31321198   0.607   1.415   8.552  0.4341  0.0326 -0.1663
  184SLPC  H13X21199   0.667   1.323   8.567 -1.1126 -0.9725  0.1324
  184SLPC  H13Y21200   0.655   1.500   8.605 -1.5362 -0.1827  2.1801
  184SLPC  C31421201   0.596   1.461   8.408  0.3529 -0.4427  0.3315
  184SLPC  H14X21202   0.527   1.548   8.405 -0.6096 -1.1568  1.2144
  184SLPC  H14Y21203   0.548   1.383   8.345  1.6724 -0.3345 -0.8789
  184SLPC  C31521204   0.730   1.516   8.352 -0.3793 -0.3729 -0.4318
  184SLPC  H15X21205   0.756   1.601   8.418 -0.7595  0.8760 -1.8564
  184SLPC  H15Y21206   0.713   1.559   8.251 -1.2156  0.2741 -0.0198
  184SLPC  C31621207   0.844   1.416   8.352  0.1782  0.2502  0.3301
  184SLPC  H16X21208   0.796   1.323   8.316 -0.6349  0.9961 -0.5623
  184SLPC  H16Y21209   0.881   1.394   8.455  0.0052 -2.4215 -0.1096
  184SLPC  C31721210   0.958   1.459   8.267  0.3336 -0.0973 -0.0069
  184SLPC  H17X21211   1.026   1.527   8.321 -0.4288 -0.2985  1.2295
  184SLPC  H17Y21212   0.928   1.512   8.174 -0.6961  1.2762  1.0604
  184SLPC  C31821213   1.041   1.338   8.222  0.3130  0.1316 -0.7348
  184SLPC  H18X21214   0.982   1.262   8.167 -0.0816  0.7552 -1.1832
  184SLPC  H18Y21215   1.095   1.303   8.313  0.8628 -0.5210 -1.2990
  184SLPC  H18Z21216   1.123   1.382   8.161  1.8397  1.9892  2.3523
  185SLPC     N21217   5.965   3.394   6.125  0.3320  0.2386  0.3801
  185SLPC   C1321218   5.921   3.464   5.993 -0.1913 -0.7945  0.6688
  185SLPC  H13A21219   5.995   3.447   5.917 -1.8169 -0.7074 -0.9967
  185SLPC  H13B21220   5.828   3.430   5.949 -0.7769  1.4372  0.0279
  185SLPC  H13C21221   5.912   3.571   6.006 -0.5103 -0.5654 -1.2103
  185SLPC   C1421222   6.114   3.411   6.143 -0.0721  0.6105 -0.1092
  185SLPC  H14A21223   6.170   3.345   6.077 -0.8656  0.7477 -0.9315
  185SLPC  H14B21224   6.140   3.510   6.107  1.0252  0.7398  0.9723
  185SLPC  H14C21225   6.153   3.393   6.242 -0.9996 -1.5563 -0.0791
  185SLPC   C1521226   5.937   3.240   6.118 -0.5379  0.4865 -0.1987
  185SLPC  H15A21227   5.967   3.198   6.213  2.7894  1.5622 -0.6376
  185SLPC  H15B21228   5.838   3.222   6.081 -1.2292  1.3686  1.1439
  185SLPC  H15C21229   6.008   3.203   6.046  1.7559  0.4553  1.9388
  185SLPC   C1221230   5.889   3.449   6.240  0.4682  0.4876 -0.1784
  185SLPC  H12A21231   5.897   3.390   6.330  2.0870  0.8306 -0.0652
  185SLPC  H12B21232   5.784   3.451   6.214 -0.1714 -0.7846  2.0252
  185SLPC   C1121233   5.914   3.595   6.294 -0.2632 -0.2993 -0.3693
  185SLPC  H11A21234   6.022   3.619   6.304 -0.5345  2.0808 -2.1969
  185SLPC  H11B21235   5.869   3.610   6.395 -2.3805  3.3215 -1.6529
  185SLPC     P21236   5.711   3.728   6.212 -0.0015 -0.1028 -0.1368
  185SLPC   O1321237   5.670   3.787   6.085  0.4899 -0.0893 -0.5287
  185SLPC   O1421238   5.642   3.607   6.264 -0.0330  0.2924  0.0328
  185SLPC   O1221239   5.863   3.699   6.210 -0.6310  0.1579 -0.6158
  185SLPC   O1121240   5.692   3.846   6.316  0.1439  0.1376 -1.2262
  185SLPC    C121241   5.797   3.946   6.347 -0.2343  0.8211 -0.0888
  185SLPC    HA21242   5.874   3.953   6.268  0.4137  0.1719  0.4700
  185SLPC    HB21243   5.751   4.046   6.339 -1.9977 -0.0364 -1.4161
  185SLPC    C221244   5.867   3.911   6.478 -0.1555 -0.6098  0.1151
  185SLPC    HS21245   5.925   3.817   6.473  3.3427  1.3169  1.3110
  185SLPC   O2121246   5.763   3.899   6.579  0.3381  0.2769  0.1783
  185SLPC   C2121247   5.778   3.799   6.658  0.0889 -0.5359 -0.2168
  185SLPC   O2221248   5.865   3.709   6.650 -0.7316 -0.2125 -0.2086
  185SLPC   C2221249   5.660   3.804   6.757 -0.4180 -0.9645 -0.0718
  185SLPC   H2R21250   5.674   3.894   6.820  0.0552 -1.3637  0.3999
  185SLPC   H2S21251   5.573   3.824   6.691 -0.4666  0.7317  0.4514
  185SLPC    C321252   5.954   4.042   6.510  0.0006 -0.1241 -0.0272
  185SLPC    HX21253   5.890   4.128   6.538  0.0017  0.6979 -2.3707
  185SLPC    HY21254   5.995   4.080   6.414  0.7392  0.2756  0.4375
  185SLPC   O3121255   6.059   4.006   6.603  0.1262  0.3297 -0.2853
  185SLPC   C3121256   6.015   4.000   6.731  0.6500  0.4591 -0.3452
  185SLPC   O3221257   5.905   4.023   6.772 -0.3992  0.4834 -0.4094
  185SLPC   C3221258   6.131   3.942   6.818  0.0458 -0.4794 -0.4589
  185SLPC   H2X21259   6.208   3.882   6.767  0.1414 -1.7465  1.0872
  185SLPC   H2Y21260   6.082   3.858   6.871  0.8084  0.7919  2.4917
  185SLPC   C2321261   5.637   3.670   6.833  0.0501  0.6657  0.4786
  185SLPC   H3R21262   5.642   3.584   6.763 -1.5168 -0.8586  2.1235
  185SLPC   H3S21263   5.537   3.672   6.884  0.2602 -0.2382  0.9339
  185SLPC   C2421264   5.752   3.650   6.929  0.1940 -0.3804 -0.2096
  185SLPC   H4R21265   5.791   3.745   6.970  0.9039 -0.5825 -0.3996
  185SLPC   H4S21266   5.830   3.588   6.880 -0.4052 -1.1032 -0.2577
  185SLPC   C2521267   5.712   3.582   7.063  0.0130  0.4530  0.4479
  185SLPC   H5R21268   5.646   3.495   7.043 -0.4812  0.6684  1.1055
  185SLPC   H5S21269   5.643   3.659   7.104  0.1874  0.7464  0.1970
  185SLPC   C2621270   5.829   3.545   7.144  0.1004 -0.0152 -0.1617
  185SLPC   H6R21271   5.893   3.624   7.189  0.2058  0.3766 -0.9765
  185SLPC   H6S21272   5.892   3.476   7.085  1.4275  0.5550  0.5370
  185SLPC   C2721273   5.799   3.452   7.256 -0.0470  0.4460 -0.3119
  185SLPC   H7R21274   5.748   3.356   7.237 -1.5141 -0.2718  5.3980
  185SLPC   H7S21275   5.712   3.482   7.318 -0.5198 -3.2746  1.0639
  185SLPC   C2821276   5.920   3.419   7.347  0.2822 -0.0558  0.0186
  185SLPC   H8R21277   5.873   3.356   7.426  0.8476 -2.3930 -1.4140
  185SLPC   H8S21278   5.963   3.515   7.382  1.2882 -0.4997  0.0394
  185SLPC   C2921279   6.032   3.342   7.286 -0.7882 -0.3350 -0.3622
  185SLPC   H9R21280   6.018   3.318   7.180 -0.5229  1.4023 -0.8108
  185SLPC  C21021281   6.131   3.287   7.352  0.0182 -0.1279 -0.5286
  185SLPC  H10R21282   6.205   3.225   7.299  2.3392  0.7597  1.4716
  185SLPC  C21121283   6.161   3.291   7.503 -0.0551 -0.1674  0.8003
  185SLPC  H11R21284   6.196   3.186   7.514 -1.9642 -1.1272 -1.4975
  185SLPC  H11S21285   6.063   3.297   7.555  0.3605  0.2303  1.5477
  185SLPC  C21221286   6.232   3.421   7.552 -0.4724  0.3339  0.3644
  185SLPC  H12R21287   6.216   3.509   7.488 -0.2747  0.1919  0.1157
  185SLPC  C21321288   6.305   3.433   7.658 -0.4071 -0.2597 -0.3041
  185SLPC  H13R21289   6.355   3.530   7.672  0.2395 -0.3950 -1.4667
  185SLPC  C21421290   6.322   3.328   7.762  0.5973  0.4061 -0.1943
  185SLPC  H14R21291   6.426   3.288   7.768  0.5410  0.0312 -1.5297
  185SLPC  H14S21292   6.253   3.244   7.744 -0.4636  1.2434 -0.1157
  185SLPC  C21521293   6.285   3.375   7.904 -0.6749  0.1346  0.0474
  185SLPC  H15R21294   6.177   3.396   7.923 -1.1016 -2.1616  0.4609
  185SLPC  H15S21295   6.344   3.468   7.916  0.0648 -0.2790 -0.2820
  185SLPC  C21621296   6.336   3.265   8.002  0.6994  0.6844  0.8397
  185SLPC  H16R21297   6.445   3.246   7.990  0.6635  0.6687  0.5280
  185SLPC  H16S21298   6.286   3.171   7.971 -0.1109  1.6388 -0.9180
  185SLPC  C21721299   6.322   3.304   8.145 -0.1334 -0.0145  0.1060
  185SLPC  H17R21300   6.355   3.229   8.221  0.2922  1.0591  1.0066
  185SLPC  H17S21301   6.216   3.319   8.173  0.2999  1.8563  0.8663
  185SLPC  C21821302   6.403   3.428   8.185  0.2469  0.1821 -0.2425
  185SLPC  H18R21303   6.510   3.423   8.157  0.7920  0.5471  1.6564
  185SLPC  H18S21304   6.393   3.453   8.293 -0.9010  2.0006 -0.7275
  185SLPC  H18T21305   6.359   3.517   8.136  1.9185  0.4541 -1.3518
  185SLPC   C3321306   6.193   4.038   6.917 -0.3825 -0.5234 -0.0326
  185SLPC   H3X21307   6.189   4.139   6.870 -0.8997  0.1812  1.4452
  185SLPC   H3Y21308   6.300   4.020   6.940 -0.5211 -0.6770  0.4927
  185SLPC   C3421309   6.112   4.051   7.046  0.0774  0.2691 -1.1117
  185SLPC   H4X21310   6.004   4.068   7.026 -0.3640 -1.4331 -0.3087
  185SLPC   H4Y21311   6.153   4.132   7.110  1.3954 -0.8735 -0.4629
  185SLPC   C3521312   6.117   3.915   7.134 -0.5267  0.3692  0.0682
  185SLPC   H5X21313   6.225   3.904   7.155 -0.5688  1.1206  0.7251
  185SLPC   H5Y21314   6.084   3.825   7.078 -0.6582  1.7050 -2.1004
  185SLPC   C3621315   6.040   3.918   7.267 -0.6032  0.0229 -0.9100
  185SLPC   H6X21316   5.930   3.919   7.248 -1.7883 -0.1239  4.5258
  185SLPC   H6Y21317   6.061   4.013   7.319 -1.7617 -0.7169  1.0397
  185SLPC   C3721318   6.092   3.807   7.363  0.4128 -0.1973 -0.5837
  185SLPC   H7X21319   6.200   3.785   7.349  0.5632  0.7793 -1.0838
  185SLPC   H7Y21320   6.038   3.714   7.337  1.0521 -0.8882  0.4587
  185SLPC   C3821321   6.078   3.846   7.514  0.3680  1.3677  0.3355
  185SLPC   H8X21322   5.978   3.888   7.540 -1.2784 -1.7067 -0.5168
  185SLPC   H8Y21323   6.149   3.927   7.536  0.1225  2.5534 -2.7599
  185SLPC   C3921324   6.096   3.728   7.619  0.0219 -0.0627  0.7969
  185SLPC   H9X21325   6.198   3.692   7.642 -0.2669 -1.2009  0.3471
  185SLPC   H9Y21326   6.046   3.643   7.567  1.1005  1.1711 -2.4737
  185SLPC  C31021327   6.014   3.753   7.750  0.9486 -0.3510 -1.0648
  185SLPC  H10X21328   6.024   3.861   7.776  1.3471 -0.7116  0.4246
  185SLPC  H10Y21329   6.061   3.699   7.835  0.2420 -1.2453 -1.2350
  185SLPC  C31121330   5.865   3.706   7.744 -0.1120 -0.8846 -0.2885
  185SLPC  H11X21331   5.865   3.596   7.729 -0.2908 -0.5505 -3.4015
  185SLPC  H11Y21332   5.819   3.738   7.648 -1.0039 -1.2579 -0.0027
  185SLPC  C31221333   5.769   3.741   7.864  0.6731 -0.9935  0.5466
  185SLPC  H12X21334   5.661   3.725   7.847  0.9470 -1.2056 -1.1503
  185SLPC  H12Y21335   5.773   3.850   7.884  0.3507 -1.1080  1.2918
  185SLPC  C31321336   5.806   3.657   7.986 -0.1403  0.1710 -0.3358
  185SLPC  H13X21337   5.909   3.687   8.015 -0.4580  1.2266 -0.2698
  185SLPC  H13Y21338   5.801   3.547   7.970 -2.3490  0.3424 -1.1574
  185SLPC  C31421339   5.715   3.688   8.099 -0.5360  0.6704  0.2902
  185SLPC  H14X21340   5.617   3.719   8.056 -0.0902 -0.0307 -1.3246
  185SLPC  H14Y21341   5.757   3.773   8.158  3.3186 -1.5857  1.1938
  185SLPC  C31521342   5.681   3.567   8.185  0.0037 -0.3856 -0.1678
  185SLPC  H15X21343   5.772   3.516   8.224  0.7124  1.0939  0.1967
  185SLPC  H15Y21344   5.631   3.490   8.122  0.5554 -0.5844 -0.3641
  185SLPC  C31621345   5.571   3.605   8.285 -0.4254 -0.0296  0.2610
  185SLPC  H16X21346   5.485   3.635   8.221 -1.1932 -1.2149  0.7139
  185SLPC  H16Y21347   5.590   3.698   8.343  0.5998  0.4195 -0.7460
  185SLPC  C31721348   5.535   3.493   8.381  0.0241 -0.6072  0.1285
  185SLPC  H17X21349   5.490   3.413   8.318 -1.2650 -0.0703  0.3358
  185SLPC  H17Y21350   5.462   3.539   8.450  0.2331  1.1099 -0.7473
  185SLPC  C31821351   5.655   3.433   8.458 -0.5317 -0.0788 -0.1399
  185SLPC  H18X21352   5.710   3.501   8.527  0.6501 -0.7704 -0.3795
  185SLPC  H18Y21353   5.737   3.404   8.389 -0.0333  0.4352  0.2298
  185SLPC  H18Z21354   5.627   3.333   8.497  1.2771 -0.1818  0.9878
  186SLPC     N21355   6.674   6.037   6.119 -0.3573  0.3623  0.7320
  186SLPC   C1321356   6.548   6.057   6.030  0.1662  0.3684  0.9764
  186SLPC  H13A21357   6.562   6.116   5.941  0.2620 -2.8064 -1.3087
  186SLPC  H13B21358   6.499   5.964   6.002  1.0350  0.1517  0.1294
  186SLPC  H13C21359   6.483   6.113   6.095  2.0790 -1.1200  4.4850
  186SLPC   C1421360   6.779   5.974   6.023 -0.2662  0.5567 -0.4458
  186SLPC  H14A21361   6.876   5.948   6.063  0.0349 -0.5561 -1.8174
  186SLPC  H14B21362   6.735   5.884   5.982 -2.0431  1.4494 -0.6088
  186SLPC  H14C21363   6.798   6.035   5.936  2.5710 -1.9017 -1.7178
  186SLPC   C1521364   6.639   5.950   6.234 -0.0195  0.0725 -0.4501
  186SLPC  H15A21365   6.733   5.912   6.273  0.9714 -0.0596 -2.8401
  186SLPC  H15B21366   6.588   6.007   6.310 -0.3879 -1.7389  0.7519
  186SLPC  H15C21367   6.573   5.865   6.222  0.5163 -0.2477 -1.1727
  186SLPC   C1221368   6.739   6.165   6.165  0.3542  0.1440 -0.8951
  186SLPC  H12A21369   6.782   6.216   6.080  2.3953  0.4687  0.2679
  186SLPC  H12B21370   6.825   6.138   6.224 -0.0534 -0.8997 -0.7660
  186SLPC   C1121371   6.647   6.265   6.243 -0.3780  0.6932  0.1922
  186SLPC  H11A21372   6.707   6.352   6.275 -0.5070  0.2161  1.8458
  186SLPC  H11B21373   6.606   6.206   6.329  0.5687  0.0751  0.2270
  186SLPC     P21374   6.532   6.440   6.075 -0.2758  0.3355  0.0964
  186SLPC   O1321375   6.653   6.441   5.984 -0.4493 -0.2879  0.0216
  186SLPC   O1421376   6.397   6.443   6.006  0.1156  0.2430 -0.5261
  186SLPC   O1221377   6.537   6.310   6.163 -0.4682 -0.0460  0.4608
  186SLPC   O1121378   6.540   6.556   6.183 -0.0794  0.3145  0.3931
  186SLPC    C121379   6.418   6.584   6.253  0.3684  0.5920  0.4981
  186SLPC    HA21380   6.373   6.671   6.200 -0.5631  0.1897  0.6054
  186SLPC    HB21381   6.346   6.499   6.254  0.7526  0.2677  0.6677
  186SLPC    C221382   6.444   6.616   6.405  0.2580  0.6257  0.3078
  186SLPC    HS21383   6.342   6.617   6.448 -0.5929  3.7167 -1.4486
  186SLPC   O2121384   6.509   6.745   6.419  0.8888 -0.2906  0.6966
  186SLPC   C2121385   6.445   6.836   6.478 -0.1909 -0.1405  0.6313
  186SLPC   O2221386   6.335   6.830   6.531  0.5605  0.0721 -0.2464
  186SLPC   C2221387   6.551   6.958   6.473  0.0114  0.7646  0.5926
  186SLPC   H2R21388   6.649   6.915   6.441 -0.0289 -0.0203  1.4757
  186SLPC   H2S21389   6.522   7.031   6.394  0.9274 -0.1253 -0.6102
  186SLPC    C321390   6.531   6.513   6.481  0.4269  0.2423 -0.0129
  186SLPC    HX21391   6.636   6.527   6.445  0.5669  3.1041  1.2193
  186SLPC    HY21392   6.506   6.405   6.474 -1.5902  0.6933 -0.2689
  186SLPC   O3121393   6.537   6.550   6.618 -0.1675  0.2946  0.0047
  186SLPC   C3121394   6.455   6.491   6.707  0.7417  0.0819 -0.4038
  186SLPC   O3221395   6.387   6.394   6.684  0.8367 -0.4920  0.1757
  186SLPC   C3221396   6.464   6.563   6.842  0.5155  0.3746 -0.1792
  186SLPC   H2X21397   6.466   6.672   6.821 -1.6244  0.3967 -0.4322
  186SLPC   H2Y21398   6.570   6.536   6.866  0.3009 -1.2785 -0.9434
  186SLPC   C2321399   6.562   7.036   6.604 -0.1221  0.1680  0.2353
  186SLPC   H3R21400   6.461   7.059   6.644 -0.8005  0.7763 -1.7224
  186SLPC   H3S21401   6.618   7.129   6.581  1.1091 -0.0137  2.2498
  186SLPC   C2421402   6.636   6.958   6.711  0.5972 -0.4545 -0.3509
  186SLPC   H4R21403   6.747   6.957   6.704  0.5972 -1.4642 -0.4033
  186SLPC   H4S21404   6.604   6.852   6.713 -0.7269 -0.1138 -1.5693
  186SLPC   C2521405   6.594   7.007   6.846  0.4536 -0.1596 -0.3284
  186SLPC   H5R21406   6.483   7.009   6.843  0.4370 -0.8958 -0.4256
  186SLPC   H5S21407   6.636   7.107   6.870  1.3566 -0.9758  1.7829
  186SLPC   C2621408   6.644   6.930   6.971  0.2333  0.2291  0.9296
  186SLPC   H6R21409   6.754   6.920   6.963  0.0285 -2.3843  0.2607
  186SLPC   H6S21410   6.603   6.827   6.960 -0.8460  0.7804 -0.4114
  186SLPC   C2721411   6.630   7.005   7.110  0.2519  1.0246 -0.1214
  186SLPC   H7R21412   6.525   7.029   7.138  0.3742  0.4251  0.8933
  186SLPC   H7S21413   6.681   7.103   7.095 -0.0881  1.1765 -0.3056
  186SLPC   C2821414   6.701   6.929   7.222  0.1305  0.0290  0.3021
  186SLPC   H8R21415   6.713   6.991   7.313  0.3431  1.5389 -0.7126
  186SLPC   H8S21416   6.808   6.913   7.195  0.3204  2.2042 -0.4725
  186SLPC   C2921417   6.627   6.795   7.253  0.0737  0.2113 -0.2877
  186SLPC   H9R21418   6.518   6.796   7.246 -0.2061  0.8114  2.8313
  186SLPC  C21021419   6.684   6.677   7.289 -0.3006 -0.5851 -0.2696
  186SLPC  H10R21420   6.623   6.586   7.294  0.4207 -1.1406 -1.1510
  186SLPC  C21121421   6.827   6.641   7.299 -0.5655 -0.0601 -0.2392
  186SLPC  H11R21422   6.883   6.699   7.222  1.0042  0.2058  1.0661
  186SLPC  H11S21423   6.837   6.532   7.280  2.4958 -0.4893  2.8988
  186SLPC  C21221424   6.881   6.673   7.428 -0.6913 -0.4241  0.2184
  186SLPC  H12R21425   6.820   6.742   7.488 -0.2540 -1.0029  1.3578
  186SLPC  C21321426   6.995   6.621   7.478 -0.4511  0.0504  0.1270
  186SLPC  H13R21427   7.038   6.666   7.569  0.0956  1.9343 -1.0066
  186SLPC  C21421428   7.085   6.513   7.417  0.6770 -0.1690 -0.6485
  186SLPC  H14R21429   7.100   6.530   7.308  0.3789  0.8856 -0.5321
  186SLPC  H14S21430   7.043   6.410   7.426 -2.0607  0.9044 -0.3947
  186SLPC  C21521431   7.224   6.508   7.479 -0.3301 -0.0790 -0.0982
  186SLPC  H15R21432   7.212   6.493   7.588 -0.3581 -1.5528 -0.2791
  186SLPC  H15S21433   7.267   6.608   7.458 -2.0869  0.8491  0.5518
  186SLPC  C21621434   7.307   6.396   7.425 -0.4108 -0.0577 -0.7027
  186SLPC  H16R21435   7.317   6.415   7.316 -1.7509  1.6969 -0.5548
  186SLPC  H16S21436   7.255   6.299   7.441  1.1231 -0.3962  3.7406
  186SLPC  C21721437   7.449   6.392   7.486  0.1413  0.1243 -0.2018
  186SLPC  H17R21438   7.436   6.352   7.589 -4.8916  0.4763 -0.4876
  186SLPC  H17S21439   7.492   6.494   7.492 -0.7182  0.4167  1.8510
  186SLPC  C21821440   7.552   6.294   7.418 -0.0195  0.1820  0.1192
  186SLPC  H18R21441   7.517   6.188   7.421  0.0900  0.1137 -0.7522
  186SLPC  H18S21442   7.646   6.298   7.476  0.9246  4.1856 -1.3914
  186SLPC  H18T21443   7.563   6.326   7.312 -0.5204 -0.6183 -0.1921
  186SLPC   C3321444   6.352   6.519   6.937  0.1838 -1.0528  0.0632
  186SLPC   H3X21445   6.353   6.411   6.964  2.5884 -0.4435  3.0164
  186SLPC   H3Y21446   6.249   6.549   6.909 -0.8280 -1.6590  2.7875
  186SLPC   C3421447   6.366   6.593   7.070 -0.1172 -0.5601  0.5041
  186SLPC   H4X21448   6.382   6.702   7.054 -1.4236 -0.4166 -0.0117
  186SLPC   H4Y21449   6.463   6.560   7.112  0.2374  0.2267  0.3221
  186SLPC   C3521450   6.240   6.574   7.155 -0.2595 -0.6274  0.6486
  186SLPC   H5X21451   6.202   6.469   7.151 -0.2924 -0.6177  0.6960
  186SLPC   H5Y21452   6.154   6.630   7.113  0.8091  2.4230  2.2649
  186SLPC   C3621453   6.263   6.626   7.294 -0.3815  0.1438 -0.6545
  186SLPC   H6X21454   6.160   6.632   7.336  0.8035  3.0032  2.2321
  186SLPC   H6Y21455   6.314   6.725   7.297 -2.0808  1.0625 -0.4029
  186SLPC   C3721456   6.333   6.512   7.380  0.0220 -0.6143 -0.5083
  186SLPC   H7X21457   6.441   6.506   7.353  0.0841  1.5913 -0.9814
  186SLPC   H7Y21458   6.279   6.420   7.351  0.4416 -0.1555 -3.0626
  186SLPC   C3821459   6.331   6.555   7.523 -0.7553 -0.5386  0.1460
  186SLPC   H8X21460   6.238   6.580   7.578  0.0584  0.2344  1.2046
  186SLPC   H8Y21461   6.395   6.645   7.534 -2.7247  0.8321  0.8838
  186SLPC   C3921462   6.399   6.444   7.606 -1.1895  0.1054 -0.9068
  186SLPC   H9X21463   6.477   6.388   7.551  0.5587  2.8174 -1.3916
  186SLPC   H9Y21464   6.323   6.372   7.643 -0.3634 -1.2026 -1.6787
  186SLPC  C31021465   6.474   6.507   7.725 -0.1695  0.5117  0.5116
  186SLPC  H10X21466   6.404   6.575   7.779  0.1589  1.6110 -0.4137
  186SLPC  H10Y21467   6.556   6.572   7.689 -0.1567  1.0392  1.4409
  186SLPC  C31121468   6.536   6.392   7.812  0.7437 -0.5085  0.3029
  186SLPC  H11X21469   6.614   6.329   7.763  0.4488 -0.9971  0.4499
  186SLPC  H11Y21470   6.450   6.328   7.840  0.1250 -0.3516 -1.1325
  186SLPC  C31221471   6.601   6.437   7.943  0.3520  1.1817  0.7136
  186SLPC  H12X21472   6.545   6.526   7.980 -2.5513  0.6268 -1.8508
  186SLPC  H12Y21473   6.709   6.460   7.935  0.7746 -0.8576  0.0142
  186SLPC  C31321474   6.576   6.340   8.064 -0.0001  0.4288  0.5232
  186SLPC  H13X21475   6.469   6.313   8.078 -0.3359  2.0773  1.3340
  186SLPC  H13Y21476   6.607   6.394   8.156 -1.1121  1.2283  0.4491
  186SLPC  C31421477   6.666   6.217   8.059 -0.5738  0.3188 -0.5047
  186SLPC  H14X21478   6.671   6.170   7.959  0.9381  0.0069 -0.3148
  186SLPC  H14Y21479   6.622   6.137   8.122  0.1485 -0.2608 -0.7105
  186SLPC  C31521480   6.804   6.237   8.120  0.1554  0.2971 -0.2007
  186SLPC  H15X21481   6.803   6.275   8.225 -1.8739 -0.3676  0.0718
  186SLPC  H15Y21482   6.859   6.315   8.064 -2.7583  2.0841 -0.8338
  186SLPC  C31621483   6.903   6.116   8.118 -0.2764  0.0374 -0.3890
  186SLPC  H16X21484   6.915   6.060   8.023 -0.2948 -3.5152  1.5475
  186SLPC  H16Y21485   6.867   6.046   8.196  0.8964  0.3198  0.4364
  186SLPC  C31721486   7.036   6.154   8.181  0.0742  0.7992  0.4114
  186SLPC  H17X21487   7.011   6.219   8.267 -3.6793  1.2581 -0.8645
  186SLPC  H17Y21488   7.092   6.220   8.112 -1.7665  0.5507 -1.4276
  186SLPC  C31821489   7.122   6.036   8.213 -0.2708 -0.1371 -0.8468
  186SLPC  H18X21490   7.139   5.971   8.124 -1.5505 -1.2907 -0.2774
  186SLPC  H18Y21491   7.076   5.963   8.282  0.6003 -0.7148 -0.8517
  186SLPC  H18Z21492   7.224   6.053   8.254  0.0246 -1.0218 -1.1762
  187SLPC     N21493   0.051   2.711   6.223  0.0945 -0.5838 -0.7051
  187SLPC   C1321494   0.164   2.670   6.141 -0.3186 -0.5093  0.0377
  187SLPC  H13A21495   0.163   2.717   6.044  1.1368 -1.4086 -0.4495
  187SLPC  H13B21496   0.251   2.694   6.200  0.2717  1.7851 -1.6285
  187SLPC  H13C21497   0.172   2.564   6.125  1.0133 -0.4167 -0.0441
  187SLPC   C1421498  -0.071   2.663   6.155  0.1782  0.0563 -0.4353
  187SLPC  H14A21499  -0.067   2.555   6.157 -1.9054 -0.0766  1.5516
  187SLPC  H14B21500  -0.155   2.689   6.219  0.8342 -0.0891  0.4985
  187SLPC  H14C21501  -0.085   2.699   6.054  1.9100 -0.9426 -1.0580
  187SLPC   C1521502   0.051   2.860   6.233 -0.9388 -0.5156 -0.3143
  187SLPC  H15A21503   0.133   2.897   6.294 -0.4221  0.1110 -1.3671
  187SLPC  H15B21504   0.075   2.897   6.135 -0.4312 -2.2219 -0.8746
  187SLPC  H15C21505  -0.042   2.904   6.265  0.2882  2.0951 -0.0675
  187SLPC   C1221506   0.065   2.655   6.368 -0.2107  0.4387 -0.1129
  187SLPC  H12A21507   0.140   2.718   6.413 -0.3311 -0.4054  1.3097
  187SLPC  H12B21508   0.104   2.555   6.361  2.3499  1.2000  1.9147
  187SLPC   C1121509  -0.060   2.669   6.455 -0.1442  0.0045 -0.7367
  187SLPC  H11A21510  -0.104   2.771   6.446 -4.2236 -1.3447  1.2673
  187SLPC  H11B21511  -0.036   2.653   6.562 -0.8522  2.2686 -0.1902
  187SLPC     P21512  -0.163   2.423   6.452 -0.1441 -0.3870  0.1362
  187SLPC   O1321513  -0.259   2.365   6.351  0.3202  0.2559 -0.3120
  187SLPC   O1421514  -0.025   2.374   6.445  0.2688  0.0544 -0.5390
  187SLPC   O1221515  -0.165   2.582   6.426  0.2846 -0.0534 -0.5894
  187SLPC   O1121516  -0.231   2.404   6.595 -0.1225 -0.5288  0.3954
  187SLPC    C121517  -0.348   2.492   6.629 -0.0304 -0.0581 -0.4497
  187SLPC    HA21518  -0.409   2.519   6.540  1.8540 -0.0982 -1.8413
  187SLPC    HB21519  -0.414   2.433   6.696  0.8028 -1.5022 -0.8553
  187SLPC    C221520  -0.308   2.624   6.709  0.3456  0.4210 -0.1974
  187SLPC    HS21521  -0.261   2.676   6.622 -0.5263  0.3340 -0.7314
  187SLPC   O2121522  -0.209   2.602   6.807 -0.8043  0.3608 -0.1580
  187SLPC   C2121523  -0.140   2.712   6.838 -0.2911  0.9536  0.9447
  187SLPC   O2221524  -0.161   2.820   6.789  0.3250 -0.2176  0.2650
  187SLPC   C2221525  -0.040   2.673   6.942 -1.1904 -0.6129 -0.6030
  187SLPC   H2R21526  -0.105   2.615   7.010  0.3620 -1.2666  0.3832
  187SLPC   H2S21527   0.043   2.606   6.912  0.7879 -0.4111  3.6673
  187SLPC    C321528  -0.431   2.704   6.758 -0.4358 -0.6595  0.1069
  187SLPC    HX21529  -0.483   2.747   6.669 -1.5795 -0.8869  0.6550
  187SLPC    HY21530  -0.390   2.798   6.802  2.0847  0.4971 -4.0566
  187SLPC   O3121531  -0.522   2.615   6.836 -0.0089 -0.6273  0.0546
  187SLPC   C3121532  -0.493   2.600   6.963  0.0405  0.1898 -0.7216
  187SLPC   O3221533  -0.403   2.652   7.028 -0.1300  0.0226 -0.0825
  187SLPC   C3221534  -0.588   2.494   7.017  1.1212  0.0285 -0.0789
  187SLPC   H2X21535  -0.539   2.395   7.001  0.5880  0.0776 -2.3641
  187SLPC   H2Y21536  -0.679   2.502   6.954 -1.0637  0.3857  2.9015
  187SLPC   C2321537   0.012   2.799   7.020  0.0041  0.2981  0.4578
  187SLPC   H3R21538  -0.077   2.862   7.039 -0.5177 -0.1091 -0.5867
  187SLPC   H3S21539   0.093   2.848   6.961  0.7906  0.7713  1.8848
  187SLPC   C2421540   0.053   2.766   7.169  0.0308  0.3164  0.5896
  187SLPC   H4R21541   0.093   2.864   7.204 -1.0075  2.0748 -2.6924
  187SLPC   H4S21542   0.140   2.698   7.179  0.2507  0.6783  1.2082
  187SLPC   C2521543  -0.058   2.717   7.267  0.6593  0.0023 -0.1144
  187SLPC   H5R21544  -0.087   2.613   7.240  1.5662 -0.0513 -0.9555
  187SLPC   H5S21545  -0.152   2.776   7.260 -1.9229 -3.7995 -0.3394
  187SLPC   C2621546  -0.003   2.719   7.413 -0.0339 -0.2508  0.2389
  187SLPC   H6R21547   0.014   2.824   7.447 -0.5719  0.0813 -0.4825
  187SLPC   H6S21548   0.095   2.669   7.420  0.1350  0.1735  0.9786
  187SLPC   C2721549  -0.092   2.642   7.509  0.1792  0.5836 -0.1889
  187SLPC   H7R21550  -0.080   2.536   7.477  0.2889  0.4750  0.1996
  187SLPC   H7S21551  -0.197   2.677   7.496 -0.0593 -0.1583 -0.3005
  187SLPC   C2821552  -0.051   2.661   7.655  0.9012 -0.1472  0.8559
  187SLPC   H8R21553  -0.045   2.769   7.680 -0.7628 -0.7280  4.3169
  187SLPC   H8S21554   0.053   2.622   7.650  0.8217 -0.4438  1.4920
  187SLPC   C2921555  -0.139   2.581   7.751 -0.2919 -0.3636 -0.0332
  187SLPC   H9R21556  -0.242   2.616   7.765 -0.0884 -0.6022  2.6679
  187SLPC  C21021557  -0.104   2.473   7.816  0.0077 -0.0401 -0.7436
  187SLPC  H10R21558  -0.169   2.430   7.893  0.0418 -0.0960 -0.7456
  187SLPC  C21121559   0.033   2.407   7.829  0.3241  0.5652 -0.1602
  187SLPC  H11R21560   0.098   2.425   7.741 -2.0730  0.0626 -2.1695
  187SLPC  H11S21561   0.017   2.297   7.828  1.1977  0.4150 -1.6267
  187SLPC  C21221562   0.111   2.470   7.942 -0.0246  0.8823  0.0636
  187SLPC  H12R21563   0.153   2.571   7.927 -1.2632  1.3557 -0.3509
  187SLPC  C21321564   0.147   2.404   8.055  0.3402 -0.6588 -0.4821
  187SLPC  H13R21565   0.217   2.461   8.119 -0.2795 -0.7686  0.3194
  187SLPC  C21421566   0.114   2.274   8.109  0.0833  1.6416  0.0411
  187SLPC  H14R21567   0.201   2.205   8.107 -1.6427 -0.6497 -0.2074
  187SLPC  H14S21568   0.039   2.218   8.049  3.0775 -3.0232  0.1278
  187SLPC  C21521569   0.075   2.285   8.265  0.6741  0.1052  0.2241
  187SLPC  H15R21570  -0.010   2.354   8.283 -0.5303 -1.2441 -0.0497
  187SLPC  H15S21571   0.160   2.331   8.320  1.0375  0.2914 -0.4810
  187SLPC  C21621572   0.049   2.147   8.338 -0.3836 -0.5387  0.3572
  187SLPC  H16R21573   0.113   2.080   8.276 -2.3875 -2.2881  0.0589
  187SLPC  H16S21574  -0.060   2.131   8.326 -0.0578 -1.3984 -1.9899
  187SLPC  C21721575   0.094   2.147   8.483 -0.0762  0.5947  0.3714
  187SLPC  H17R21576   0.195   2.194   8.485 -0.0641  0.9248 -2.7683
  187SLPC  H17S21577   0.107   2.039   8.506  0.6218  0.9051  1.5359
  187SLPC  C21821578  -0.000   2.188   8.598 -0.8809 -0.0415  0.8803
  187SLPC  H18R21579  -0.085   2.116   8.595  2.5665 -4.5512  0.9321
  187SLPC  H18S21580  -0.038   2.292   8.586 -1.5268 -0.4265 -0.6487
  187SLPC  H18T21581   0.046   2.193   8.699  0.0652  1.3218  0.4128
  187SLPC   C3321582  -0.640   2.513   7.166 -0.8060 -0.5012  0.6243
  187SLPC   H3X21583  -0.748   2.487   7.163 -0.8466 -0.3374 -2.4200
  187SLPC   H3Y21584  -0.654   2.622   7.186 -1.2072 -1.0193  3.4856
  187SLPC   C3421585  -0.564   2.447   7.279 -0.2341  0.7909  0.4286
  187SLPC   H4X21586  -0.613   2.480   7.373 -0.4613  3.9955 -0.7125
  187SLPC   H4Y21587  -0.457   2.477   7.288  1.0453 -3.0563 -0.0213
  187SLPC   C3521588  -0.569   2.290   7.278  0.5747  0.2629 -0.4254
  187SLPC   H5X21589  -0.470   2.245   7.253 -1.6161 -3.9802 -2.5214
  187SLPC   H5Y21590  -0.636   2.259   7.195 -0.0971  1.5721 -0.3878
  187SLPC   C3621591  -0.607   2.235   7.416  0.1719 -0.0189 -0.3514
  187SLPC   H6X21592  -0.608   2.124   7.410 -1.7674 -0.0902  0.3966
  187SLPC   H6Y21593  -0.701   2.279   7.457 -0.0540  0.0865 -0.9828
  187SLPC   C3721594  -0.506   2.272   7.527  0.0981 -0.0010  0.3427
  187SLPC   H7X21595  -0.402   2.249   7.497 -0.0598 -2.0741  1.2459
  187SLPC   H7Y21596  -0.518   2.383   7.533  1.3367  0.1150  0.7895
  187SLPC   C3821597  -0.540   2.199   7.660  0.4869 -0.3381 -0.3323
  187SLPC   H8X21598  -0.519   2.091   7.646  1.7728 -0.1777  0.1846
  187SLPC   H8Y21599  -0.648   2.214   7.681  0.0008  0.0843 -2.8847
  187SLPC   C3921600  -0.451   2.251   7.774 -0.6303  0.0761  0.1351
  187SLPC   H9X21601  -0.461   2.354   7.814  1.3587 -0.2047  1.5273
  187SLPC   H9Y21602  -0.345   2.250   7.740 -0.8147 -1.2224 -0.4566
  187SLPC  C31021603  -0.464   2.160   7.896  0.5345 -0.2745 -0.5617
  187SLPC  H10X21604  -0.442   2.054   7.872  0.7806 -0.2822 -0.2989
  187SLPC  H10Y21605  -0.564   2.174   7.943  0.5250  1.3040 -0.9700
  187SLPC  C31121606  -0.356   2.213   8.000 -0.6408  0.5712 -0.3829
  187SLPC  H11X21607  -0.270   2.262   7.950 -1.6833  1.5771 -1.2457
  187SLPC  H11Y21608  -0.310   2.126   8.052 -0.4537  0.5157 -0.6409
  187SLPC  C31221609  -0.417   2.295   8.107  0.0902 -0.0484 -0.1489
  187SLPC  H12X21610  -0.509   2.249   8.149  0.5793 -0.1120  0.8770
  187SLPC  H12Y21611  -0.444   2.394   8.064 -0.7942 -1.2638 -2.5830
  187SLPC  C31321612  -0.309   2.323   8.219  0.3996  0.6523  0.3207
  187SLPC  H13X21613  -0.230   2.394   8.186  0.4383  0.5958  0.2918
  187SLPC  H13Y21614  -0.263   2.229   8.255 -0.4744  0.3658  0.7248
  187SLPC  C31421615  -0.374   2.402   8.338  0.3205  0.8317  0.3323
  187SLPC  H14X21616  -0.471   2.355   8.363  0.2209  2.0013  2.3270
  187SLPC  H14Y21617  -0.394   2.508   8.309  2.9430  1.4143  0.4453
  187SLPC  C31521618  -0.290   2.404   8.466 -1.0083 -0.1552 -0.0518
  187SLPC  H15X21619  -0.195   2.457   8.444 -0.0722 -2.1402 -1.0241
  187SLPC  H15Y21620  -0.264   2.300   8.495  2.3281  0.8572  1.0296
  187SLPC  C31621621  -0.363   2.482   8.574  0.4710  0.1322 -0.0186
  187SLPC  H16X21622  -0.456   2.427   8.597  0.1618  0.5873 -0.1665
  187SLPC  H16Y21623  -0.377   2.588   8.543  1.8624  1.1797  2.6174
  187SLPC  C31721624  -0.282   2.478   8.706  1.0007  0.4093  0.2774
  187SLPC  H17X21625  -0.182   2.517   8.678  0.7422  1.3135  0.5733
  187SLPC  H17Y21626  -0.268   2.370   8.730  0.5344  0.5319  1.1343
  187SLPC  C31821627  -0.353   2.557   8.815  0.6092  0.3921 -0.1950
  187SLPC  H18X21628  -0.292   2.565   8.908  0.8478 -0.0364 -0.3110
  187SLPC  H18Y21629  -0.452   2.517   8.843  1.6510 -0.7858  2.1100
  187SLPC  H18Z21630  -0.367   2.660   8.775 -1.3427  1.2566  2.3985
  188SLPC     N21631   1.560   5.060   6.099 -0.7081  0.2832  0.7112
  188SLPC   C1321632   1.497   5.180   6.163  1.4270  1.3396 -0.0842
  188SLPC  H13A21633   1.456   5.148   6.258 -0.9750  0.8500 -1.2225
  188SLPC  H13B21634   1.579   5.250   6.173  2.3052  0.3299  0.0367
  188SLPC  H13C21635   1.416   5.221   6.105  0.0927 -0.9411  0.0660
  188SLPC   C1421636   1.652   5.107   5.988 -0.3539  0.0389  0.3282
  188SLPC  H14A21637   1.692   5.025   5.931  0.7529 -0.1169  1.2716
  188SLPC  H14B21638   1.594   5.171   5.924 -0.6044 -0.9382 -0.4360
  188SLPC  H14C21639   1.740   5.158   6.025 -1.1310  1.0135  0.8973
  188SLPC   C1521640   1.449   4.978   6.039 -0.1097 -0.0541  0.2866
  188SLPC  H15A21641   1.375   5.035   5.984  1.1095 -1.1452 -2.6731
  188SLPC  H15B21642   1.494   4.910   5.969  0.9939  1.9299 -1.0284
  188SLPC  H15C21643   1.400   4.925   6.120 -0.2117  0.1553  0.3630
  188SLPC   C1221644   1.630   4.984   6.205 -0.0523  0.4577 -0.3271
  188SLPC  H12A21645   1.720   5.037   6.235 -0.2925  0.9141 -0.3968
  188SLPC  H12B21646   1.673   4.897   6.157 -2.1266 -1.5717  1.3273
  188SLPC   C1121647   1.548   4.946   6.338 -0.3948  0.1806  0.2150
  188SLPC  H11A21648   1.530   5.037   6.399  1.0050 -0.1693  1.1922
  188SLPC  H11B21649   1.619   4.881   6.394 -0.2855  0.4601  0.4004
  188SLPC     P21650   1.410   4.722   6.337  0.0023 -0.3131  0.1287
  188SLPC   O1321651   1.274   4.679   6.289 -0.4727  0.1564  0.0219
  188SLPC   O1421652   1.526   4.657   6.277  0.0092 -0.1068 -0.1313
  188SLPC   O1221653   1.425   4.881   6.309  0.7189 -0.5401 -0.4430
  188SLPC   O1121654   1.414   4.710   6.493 -0.0953  0.1862 -0.9851
  188SLPC    C121655   1.300   4.688   6.573 -0.1850  0.6144  0.0657
  188SLPC    HA21656   1.200   4.705   6.528 -0.8161 -1.4071  0.6139
  188SLPC    HB21657   1.296   4.579   6.596  0.7595  0.2981 -1.1758
  188SLPC    C221658   1.303   4.769   6.698 -0.0149 -0.2416 -0.1173
  188SLPC    HS21659   1.211   4.746   6.757  0.5658 -0.5447  0.6781
  188SLPC   O2121660   1.307   4.912   6.672 -0.0258  0.5899 -0.2516
  188SLPC   C2121661   1.234   4.966   6.582 -0.1167 -0.2997 -0.2952
  188SLPC   O2221662   1.138   4.920   6.522 -0.0265 -0.0633  0.4402
  188SLPC   C2221663   1.276   5.113   6.580  0.2802 -0.2764 -0.0759
  188SLPC   H2R21664   1.385   5.129   6.570  0.4118  2.0593  3.4061
  188SLPC   H2S21665   1.231   5.144   6.483  0.8092 -2.7710 -1.2059
  188SLPC    C321666   1.428   4.745   6.797  0.2171  0.0665 -0.2730
  188SLPC    HX21667   1.515   4.802   6.758  0.5002 -0.7399 -0.8520
  188SLPC    HY21668   1.463   4.640   6.790  0.1586 -0.0049  0.4364
  188SLPC   O3121669   1.397   4.775   6.938 -0.1604 -0.6265 -0.2118
  188SLPC   C3121670   1.463   4.881   6.982  0.6257  0.3531  0.8532
  188SLPC   O3221671   1.531   4.959   6.917 -0.3082 -0.0856  0.6715
  188SLPC   C3221672   1.424   4.904   7.128  0.1861 -0.5876  0.3216
  188SLPC   H2X21673   1.433   4.806   7.180  1.0933 -0.9781 -0.5315
  188SLPC   H2Y21674   1.319   4.939   7.122  1.2801  3.1768  0.7839
  188SLPC   C2321675   1.224   5.183   6.695  0.3910 -0.8277  0.1732
  188SLPC   H3R21676   1.243   5.290   6.669  3.6980 -1.1748  0.6879
  188SLPC   H3S21677   1.299   5.170   6.776  1.0881  1.7942  0.0656
  188SLPC   C2421678   1.067   5.177   6.729  0.1928  0.0575  0.2659
  188SLPC   H4R21679   1.048   5.068   6.737  1.8035 -0.2260  0.5011
  188SLPC   H4S21680   1.016   5.219   6.639  0.2261  2.8746  1.4544
  188SLPC   C2521681   1.035   5.245   6.867  0.0035 -0.1447 -0.1716
  188SLPC   H5R21682   0.924   5.245   6.875 -0.0988  3.5996  0.1124
  188SLPC   H5S21683   1.057   5.354   6.868  0.0837 -0.1156 -2.1849
  188SLPC   C2621684   1.097   5.170   6.980 -0.5413 -0.1459  0.7881
  188SLPC   H6R21685   1.204   5.199   6.984 -0.4345 -0.4350  0.1732
  188SLPC   H6S21686   1.092   5.061   6.955 -1.4581 -0.1829  1.1032
  188SLPC   C2721687   1.033   5.200   7.113  0.7398  0.1056  0.0027
  188SLPC   H7R21688   1.099   5.156   7.191 -1.2159  2.1490  3.0233
  188SLPC   H7S21689   0.932   5.153   7.123 -1.0048  3.9925  3.8857
  188SLPC   C2821690   1.022   5.351   7.145  0.1106 -0.1628 -0.6223
  188SLPC   H8R21691   0.974   5.356   7.245 -1.0760  1.4907 -1.2365
  188SLPC   H8S21692   0.944   5.391   7.076 -2.7689 -1.6396  1.5366
  188SLPC   C2921693   1.146   5.442   7.151  0.8658 -0.0413 -0.3527
  188SLPC   H9R21694   1.169   5.502   7.062  0.2775  0.6615 -0.0513
  188SLPC  C21021695   1.213   5.478   7.258  0.0406 -0.0255  0.2412
  188SLPC  H10R21696   1.299   5.545   7.243 -0.1617  1.0278  3.0889
  188SLPC  C21121697   1.190   5.432   7.401 -0.5764 -0.1052  0.3368
  188SLPC  H11R21698   1.081   5.438   7.423 -0.3420  3.7846  1.1564
  188SLPC  H11S21699   1.242   5.508   7.465  0.7343  1.0832 -1.9928
  188SLPC  C21221700   1.251   5.300   7.439 -0.6871  0.3754 -0.1523
  188SLPC  H12R21701   1.284   5.241   7.353  1.0930  1.8968 -0.5757
  188SLPC  C21321702   1.259   5.258   7.565  0.4668  0.6113  0.6116
  188SLPC  H13R21703   1.314   5.163   7.569  1.7362  1.1657 -1.8117
  188SLPC  C21421704   1.202   5.324   7.682 -0.6135  0.8582 -0.1762
  188SLPC  H14R21705   1.099   5.292   7.706 -1.1741  2.2193 -0.6873
  188SLPC  H14S21706   1.199   5.434   7.670  0.0140  0.6646 -3.0634
  188SLPC  C21521707   1.274   5.294   7.816  0.2732 -0.9164 -0.1494
  188SLPC  H15R21708   1.382   5.317   7.811 -0.2482  2.9030  2.1147
  188SLPC  H15S21709   1.265   5.183   7.826 -0.2403 -1.1056 -2.2786
  188SLPC  C21621710   1.223   5.377   7.950  0.1929 -0.0668 -0.1098
  188SLPC  H16R21711   1.297   5.365   8.032 -1.4117 -0.9501  1.2657
  188SLPC  H16S21712   1.131   5.324   7.982  0.0218 -0.3476 -1.0249
  188SLPC  C21721713   1.196   5.524   7.937 -0.2476  0.4082  0.2230
  188SLPC  H17R21714   1.100   5.533   7.881 -2.0083 -0.4148  2.9095
  188SLPC  H17S21715   1.287   5.567   7.890  0.1369 -1.2306 -0.5774
  188SLPC  C21821716   1.162   5.604   8.062  0.2292  0.6662  0.5978
  188SLPC  H18R21717   1.146   5.710   8.033  1.7400  0.0463 -3.1561
  188SLPC  H18S21718   1.240   5.582   8.137  0.0501 -1.7388  0.1725
  188SLPC  H18T21719   1.064   5.564   8.097  0.8073 -0.1538  1.2903
  188SLPC   C3321720   1.514   5.002   7.192 -0.2923 -0.5349  0.3909
  188SLPC   H3X21721   1.492   5.101   7.146 -0.0695 -1.5377 -2.0172
  188SLPC   H3Y21722   1.617   4.975   7.159 -1.3132 -1.9957 -1.8418
  188SLPC   C3421723   1.519   5.001   7.346 -0.3919 -0.4085 -0.2258
  188SLPC   H4X21724   1.557   4.901   7.378  0.2641  0.0829  0.5581
  188SLPC   H4Y21725   1.418   5.019   7.387 -0.4241 -0.5106 -0.2589
  188SLPC   C3521726   1.619   5.102   7.406 -0.1677 -0.0779  0.0815
  188SLPC   H5X21727   1.597   5.201   7.360  3.3131  0.5783 -0.3902
  188SLPC   H5Y21728   1.723   5.079   7.377 -0.1026  0.8681 -0.4988
  188SLPC   C3621729   1.619   5.120   7.561  0.2658 -0.3624  1.3969
  188SLPC   H6X21730   1.515   5.103   7.596 -1.5034  0.2975 -2.9139
  188SLPC   H6Y21731   1.633   5.228   7.586  1.6265  0.1419 -1.1941
  188SLPC   C3721732   1.723   5.046   7.634  0.3411 -0.0167  0.0038
  188SLPC   H7X21733   1.824   5.086   7.611  0.9932 -1.2411  0.5939
  188SLPC   H7Y21734   1.726   4.939   7.604  0.1562 -0.4495  1.4491
  188SLPC   C3821735   1.705   5.056   7.787 -0.3864 -0.4248 -0.2171
  188SLPC   H8X21736   1.710   5.164   7.812 -0.6632 -1.1363  3.6024
  188SLPC   H8Y21737   1.783   4.995   7.838 -2.2265 -1.6893  1.2286
  188SLPC   C3921738   1.569   5.018   7.841 -0.1177  0.5637  0.4697
  188SLPC   H9X21739   1.539   4.925   7.789  0.6053  1.9118 -2.5799
  188SLPC   H9Y21740   1.489   5.088   7.808 -1.9723 -0.7360  2.0141
  188SLPC  C31021741   1.583   4.998   7.991 -0.1299 -0.2576 -0.0536
  188SLPC  H10X21742   1.586   5.100   8.036  0.9031  0.0687 -0.8145
  188SLPC  H10Y21743   1.677   4.947   8.021 -0.0213 -0.0434 -0.0293
  188SLPC  C31121744   1.465   4.915   8.052 -0.6766  0.3733  0.4238
  188SLPC  H11X21745   1.502   4.810   8.060 -1.5202  0.1355  1.4188
  188SLPC  H11Y21746   1.374   4.916   7.987 -0.6901  1.0843  0.4500
  188SLPC  C31221747   1.434   4.952   8.198 -0.0862 -0.0696 -0.0440
  188SLPC  H12X21748   1.525   4.965   8.260  0.9328 -3.1204 -0.7232
  188SLPC  H12Y21749   1.378   4.867   8.241  1.3309 -0.8179  0.3800
  188SLPC  C31321750   1.342   5.078   8.205  0.2632 -0.1041 -0.3269
  188SLPC  H13X21751   1.248   5.062   8.148 -2.3778  1.7755  3.0643
  188SLPC  H13Y21752   1.390   5.175   8.176  0.7560 -0.6696 -1.4718
  188SLPC  C31421753   1.289   5.103   8.345 -0.6026 -0.0514  0.2307
  188SLPC  H14X21754   1.371   5.111   8.419 -1.2327  1.0090  0.8442
  188SLPC  H14Y21755   1.223   5.020   8.376  0.6287 -1.0076  0.3397
  188SLPC  C31521756   1.209   5.232   8.361 -0.6875 -0.5529  0.0179
  188SLPC  H15X21757   1.138   5.241   8.276  1.3815 -0.6237 -1.7928
  188SLPC  H15Y21758   1.267   5.325   8.346 -3.2758  1.0433 -0.7517
  188SLPC  C31621759   1.149   5.254   8.498  0.7300  1.1283  0.0110
  188SLPC  H16X21760   1.211   5.309   8.573 -1.8416  2.0025  1.6269
  188SLPC  H16Y21761   1.148   5.160   8.558 -0.6779  1.8081  1.1145
  188SLPC  C31721762   1.012   5.326   8.488  0.0873  0.2164 -0.0651
  188SLPC  H17X21763   0.960   5.321   8.586  0.3754 -0.7027  0.0511
  188SLPC  H17Y21764   0.942   5.277   8.416  0.4485 -0.1757 -0.1554
  188SLPC  C31821765   1.028   5.475   8.452 -0.3363  0.6809  0.1278
  188SLPC  H18X21766   1.069   5.479   8.348 -1.5013  0.4205 -0.3640
  188SLPC  H18Y21767   1.089   5.538   8.519  0.4046 -0.4147  0.5220
  188SLPC  H18Z21768   0.925   5.515   8.443 -0.7266 -0.2731  0.1761
  189SLPC     N21769   3.359   6.446   6.184  0.5584  0.2474 -0.2401
  189SLPC   C1321770   3.467   6.401   6.278  0.3213  0.2135 -0.2211
  189SLPC  H13A21771   3.424   6.326   6.342 -0.2113  1.2489  0.6622
  189SLPC  H13B21772   3.557   6.362   6.233  0.3362 -0.0944  0.0726
  189SLPC  H13C21773   3.508   6.482   6.337  1.2408  0.0260 -0.5859
  189SLPC   C1421774   3.294   6.323   6.126  0.2859  0.6788  0.3522
  189SLPC  H14A21775   3.366   6.259   6.076 -0.0596  2.0186 -2.0240
  189SLPC  H14B21776   3.232   6.271   6.197 -0.6880 -0.7830 -1.4638
  189SLPC  H14C21777   3.221   6.352   6.052 -1.6730 -0.0037  1.9469
  189SLPC   C1521778   3.416   6.536   6.072  0.5068  0.8067 -0.5557
  189SLPC  H15A21779   3.462   6.620   6.123  0.8499 -0.7937  1.9805
  189SLPC  H15B21780   3.496   6.487   6.018  0.7857 -0.5465  1.0234
  189SLPC  H15C21781   3.346   6.571   5.998  0.3446  0.3852 -0.6001
  189SLPC   C1221782   3.252   6.522   6.260  0.5224  0.5228  0.4281
  189SLPC  H12A21783   3.210   6.451   6.330 -0.8219 -0.2516 -1.1026
  189SLPC  H12B21784   3.180   6.550   6.184 -0.0608  1.1295  1.1927
  189SLPC   C1121785   3.262   6.655   6.316 -0.1456 -0.5456  0.1791
  189SLPC  H11A21786   3.345   6.650   6.391 -0.1290  1.8150  0.3779
  189SLPC  H11B21787   3.172   6.684   6.374  0.2580 -0.9192  1.0221
  189SLPC     P21788   3.383   6.876   6.254  0.2317 -0.2136  0.0706
  189SLPC   O1321789   3.520   6.828   6.285  0.6731 -0.2099  0.2826
  189SLPC   O1421790   3.371   6.981   6.153  0.4912 -0.7274 -0.0677
  189SLPC   O1221791   3.290   6.753   6.216 -0.1211 -0.6079  0.0521
  189SLPC   O1121792   3.316   6.920   6.387  0.7570 -0.6987 -0.3083
  189SLPC    C121793   3.250   7.045   6.422 -0.2527  0.0585  0.4070
  189SLPC    HA21794   3.312   7.128   6.382 -0.5733 -1.0773 -2.6849
  189SLPC    HB21795   3.153   7.052   6.368  0.9584  0.3269 -1.8130
  189SLPC    C221796   3.226   7.048   6.576  0.0744  0.1100 -0.4699
  189SLPC    HS21797   3.319   7.051   6.636 -0.7847  0.3102  0.8833
  189SLPC   O2121798   3.134   6.942   6.613  0.6077 -0.0657  0.5320
  189SLPC   C2121799   3.196   6.840   6.677 -0.0328  0.6988 -0.3285
  189SLPC   O2221800   3.314   6.830   6.703 -0.1422 -1.2836  0.2287
  189SLPC   C2221801   3.105   6.723   6.695  0.8155  0.0320  0.0048
  189SLPC   H2R21802   3.020   6.745   6.764  0.3272 -0.6090 -0.3772
  189SLPC   H2S21803   3.067   6.689   6.596  1.7696 -1.3475  0.0808
  189SLPC    C321804   3.165   7.180   6.612  0.0757 -0.1931 -0.2055
  189SLPC    HX21805   3.072   7.201   6.556  0.5350  1.7481 -0.3183
  189SLPC    HY21806   3.232   7.261   6.577  0.1189  0.4724  1.3348
  189SLPC   O3121807   3.133   7.195   6.751 -0.1701 -0.3454 -0.5559
  189SLPC   C3121808   3.230   7.237   6.834 -0.8536 -0.6671  0.0732
  189SLPC   O3221809   3.348   7.251   6.805 -0.5452 -0.0423  0.8894
  189SLPC   C3221810   3.161   7.260   6.977  0.1576  0.2992 -0.4552
  189SLPC   H2X21811   3.091   7.346   6.967 -0.8632 -0.4593 -0.0130
  189SLPC   H2Y21812   3.237   7.281   7.055 -3.1934 -0.5798  3.3966
  189SLPC   C2321813   3.179   6.604   6.766  0.2766  0.3895 -0.1646
  189SLPC   H3R21814   3.278   6.591   6.717 -0.7464 -0.1188 -2.2409
  189SLPC   H3S21815   3.135   6.505   6.740  3.1880 -1.0521 -0.0314
  189SLPC   C2421816   3.193   6.632   6.918 -0.3216 -0.8961 -0.1532
  189SLPC   H4R21817   3.229   6.736   6.931 -0.2833 -0.8788 -0.3907
  189SLPC   H4S21818   3.270   6.567   6.966 -1.6175 -0.8006  2.1849
  189SLPC   C2521819   3.069   6.593   7.000  0.8369 -0.2512  0.8853
  189SLPC   H5R21820   3.055   6.483   7.001  1.0223 -0.3032 -0.5311
  189SLPC   H5S21821   2.978   6.641   6.959  0.9030  1.6415  2.7773
  189SLPC   C2621822   3.079   6.637   7.140 -0.1736 -0.7501 -0.5292
  189SLPC   H6R21823   3.109   6.741   7.163 -2.5078 -0.5022  1.7294
  189SLPC   H6S21824   3.146   6.564   7.191  2.5646  0.2711 -2.4027
  189SLPC   C2721825   2.944   6.619   7.209  0.0990  0.2159  0.1803
  189SLPC   H7R21826   2.919   6.511   7.216 -1.2278  0.4612 -0.4442
  189SLPC   H7S21827   2.859   6.671   7.159 -0.4016 -1.7070 -1.1071
  189SLPC   C2821828   2.957   6.680   7.347  0.0275 -0.4166 -0.7331
  189SLPC   H8R21829   2.855   6.690   7.389 -0.7713 -0.1191 -2.6359
  189SLPC   H8S21830   3.003   6.780   7.332 -2.2282  1.0322  1.2706
  189SLPC   C2921831   3.049   6.597   7.440 -0.6508 -0.3335  0.3856
  189SLPC   H9R21832   3.142   6.552   7.404  0.1738  0.4892  1.4105
  189SLPC  C21021833   3.026   6.581   7.575 -0.2392  0.6965  0.1739
  189SLPC  H10R21834   3.094   6.518   7.634 -1.3258  0.0151  0.7271
  189SLPC  C21121835   2.908   6.640   7.647  0.0623  0.3514 -0.2744
  189SLPC  H11R21836   2.859   6.717   7.584  1.8115  0.4082 -1.6573
  189SLPC  H11S21837   2.940   6.711   7.726 -1.3617 -1.4356  2.0580
  189SLPC  C21221838   2.809   6.548   7.706  1.1930  1.0587 -0.6086
  189SLPC  H12R21839   2.744   6.499   7.632 -1.5108  4.0340 -0.4673
  189SLPC  C21321840   2.796   6.506   7.828  0.1003  0.3609 -1.2279
  189SLPC  H13R21841   2.712   6.439   7.851  0.3498  0.3282 -0.3757
  189SLPC  C21421842   2.892   6.540   7.943  0.1656  0.7557  1.1837
  189SLPC  H14R21843   2.823   6.580   8.021  0.1986  2.5211  0.3473
  189SLPC  H14S21844   2.958   6.622   7.909 -1.8685  2.1850  0.5641
  189SLPC  C21521845   2.969   6.419   7.993 -0.0867 -0.0919  0.0996
  189SLPC  H15R21846   3.000   6.345   7.916  0.9987  0.1044  0.3292
  189SLPC  H15S21847   2.904   6.367   8.066 -0.9524  0.0545 -0.5578
  189SLPC  C21621848   3.090   6.456   8.077  0.2020  0.2126 -0.1105
  189SLPC  H16R21849   3.056   6.543   8.138 -2.8021 -1.0414  0.2050
  189SLPC  H16S21850   3.179   6.474   8.013  1.4702 -1.4747  1.1049
  189SLPC  C21721851   3.127   6.335   8.170  0.1429 -0.9063 -0.0752
  189SLPC  H17R21852   3.211   6.365   8.236 -0.0539 -0.8247  0.1380
  189SLPC  H17S21853   3.170   6.251   8.112  0.0089 -1.1711  0.2073
  189SLPC  C21821854   3.021   6.269   8.267 -0.1857  0.0550  0.8719
  189SLPC  H18R21855   2.979   6.336   8.344 -0.2660  1.3024 -0.2247
  189SLPC  H18S21856   3.068   6.183   8.319 -0.0274 -0.7542 -0.5516
  189SLPC  H18T21857   2.942   6.223   8.205 -1.3931  3.2623 -0.1744
  189SLPC   C3321858   3.090   7.127   7.026  0.1600 -0.9843  0.8563
  189SLPC   H3X21859   3.151   7.039   6.995  0.3501 -0.2866 -0.8525
  189SLPC   H3Y21860   2.996   7.113   6.969  2.1574 -0.5365 -2.8829
  189SLPC   C3421861   3.058   7.127   7.176  0.2695 -0.4392 -1.0262
  189SLPC   H4X21862   3.148   7.158   7.233 -1.0029 -0.6070  1.1931
  189SLPC   H4Y21863   3.021   7.026   7.204 -1.0794 -0.5021 -2.8128
  189SLPC   C3521864   2.953   7.223   7.219  0.4200  0.2201  0.2951
  189SLPC   H5X21865   2.859   7.198   7.166  0.6757  0.7689 -0.4383
  189SLPC   H5Y21866   2.975   7.329   7.195 -2.5471  0.5258 -1.6004
  189SLPC   C3621867   2.910   7.226   7.370  0.0628  0.2990  0.7741
  189SLPC   H6X21868   2.938   7.130   7.420  3.3830  0.2959 -0.7830
  189SLPC   H6Y21869   2.801   7.242   7.377 -0.0996  1.8150 -2.8172
  189SLPC   C3721870   2.971   7.336   7.455  0.0726  1.0425  0.9043
  189SLPC   H7X21871   2.955   7.437   7.411 -1.4422  0.8058  0.8613
  189SLPC   H7Y21872   3.081   7.327   7.448 -0.0306 -1.3024  1.5076
  189SLPC   C3821873   2.919   7.334   7.608  0.2605 -0.2193  0.5680
  189SLPC   H8X21874   2.950   7.235   7.648  1.7842  0.1809  0.4543
  189SLPC   H8Y21875   2.810   7.354   7.616  0.3688  1.0560 -0.7708
  189SLPC   C3921876   2.979   7.449   7.691  0.5173  0.2331  0.3475
  189SLPC   H9X21877   2.936   7.548   7.665 -1.1655 -0.1948  1.3342
  189SLPC   H9Y21878   3.088   7.452   7.668  0.6778  2.1672  1.1275
  189SLPC  C31021879   2.957   7.421   7.843  1.0599  0.2686  0.4877
  189SLPC  H10X21880   2.991   7.318   7.866 -0.5770 -0.8592 -1.7549
  189SLPC  H10Y21881   2.847   7.414   7.857  1.3125 -0.6307  2.4112
  189SLPC  C31121882   3.017   7.529   7.932 -0.2396  0.4184 -0.1491
  189SLPC  H11X21883   2.986   7.621   7.879 -0.4516  0.6876  0.4277
  189SLPC  H11Y21884   3.126   7.518   7.913 -0.4483 -0.1633 -1.0444
  189SLPC  C31221885   2.993   7.514   8.079  0.4314 -0.0882 -0.4284
  189SLPC  H12X21886   3.049   7.594   8.132  0.6460  0.0406 -0.8381
  189SLPC  H12Y21887   3.039   7.418   8.111  0.0300  0.0076  0.4546
  189SLPC  C31321888   2.852   7.516   8.135  0.6078  0.4129 -0.2720
  189SLPC  H13X21889   2.793   7.427   8.104 -1.2686  1.7171 -0.5975
  189SLPC  H13Y21890   2.805   7.604   8.086 -1.1432  0.5568  1.5782
  189SLPC  C31421891   2.840   7.535   8.286  0.1285  0.2093  0.3543
  189SLPC  H14X21892   2.818   7.643   8.300 -0.3252  0.4568 -1.9889
  189SLPC  H14Y21893   2.937   7.518   8.338 -0.7840  0.4659  2.2264
  189SLPC  C31521894   2.733   7.436   8.349 -0.3508 -0.5943  0.8474
  189SLPC  H15X21895   2.764   7.335   8.314  3.1863 -0.3363  2.7661
  189SLPC  H15Y21896   2.637   7.474   8.309 -0.3045 -2.0777 -0.7853
  189SLPC  C31621897   2.733   7.439   8.504 -0.2938 -0.1685  0.6533
  189SLPC  H16X21898   2.716   7.540   8.547  0.5490  0.9515 -1.5237
  189SLPC  H16Y21899   2.837   7.423   8.541  0.0689  0.3876 -0.0967
  189SLPC  C31721900   2.651   7.333   8.582  0.0182  0.4302  0.4048
  189SLPC  H17X21901   2.649   7.238   8.524 -0.3302 -0.2222  1.4671
  189SLPC  H17Y21902   2.545   7.364   8.583 -0.6668 -1.7547  1.6577
  189SLPC  C31821903   2.691   7.293   8.724  0.1058  0.0605  0.6233
  189SLPC  H18X21904   2.626   7.211   8.762 -0.4502  0.1133 -0.1909
  189SLPC  H18Y21905   2.670   7.374   8.797  1.7598  2.7538 -1.6955
  189SLPC  H18Z21906   2.794   7.251   8.729  0.0962 -0.2743 -1.3057
  190SLPC     N21907   2.130   5.469   5.884  0.6689 -0.6609  0.5137
  190SLPC   C1321908   2.179   5.333   5.903  0.8473 -1.3786 -0.9820
  190SLPC  H13A21909   2.206   5.285   5.810  1.8057 -2.1773 -0.3090
  190SLPC  H13B21910   2.271   5.328   5.959  2.2181  0.7649 -2.8709
  190SLPC  H13C21911   2.102   5.270   5.946  1.4518 -0.2303  2.0907
  190SLPC   C1421912   1.989   5.470   5.825  0.0776  0.2842 -0.1786
  190SLPC  H14A21913   1.991   5.415   5.732  3.2903 -1.9751  1.0365
  190SLPC  H14B21914   1.919   5.418   5.890 -0.3369  1.8062  0.6415
  190SLPC  H14C21915   1.948   5.569   5.815 -2.9775 -0.6984  1.3194
  190SLPC   C1521916   2.228   5.532   5.795  0.5409 -0.0109  0.2128
  190SLPC  H15A21917   2.226   5.489   5.695 -2.7322 -1.2523  0.6651
  190SLPC  H15B21918   2.207   5.634   5.769 -0.5861 -0.5658 -1.2415
  190SLPC  H15C21919   2.327   5.529   5.838  0.6943 -3.1309 -0.0902
  190SLPC   C1221920   2.124   5.549   6.013  0.2739  0.4618 -0.8776
  190SLPC  H12A21921   2.072   5.642   5.999 -2.8508 -0.7790  1.3375
  190SLPC  H12B21922   2.227   5.565   6.040  0.3257 -1.4722  0.2464
  190SLPC   C1121923   2.045   5.488   6.131 -0.3343 -0.3698  0.3471
  190SLPC  H11A21924   1.947   5.455   6.092 -0.2965  0.6236 -0.6419
  190SLPC  H11B21925   2.029   5.569   6.206 -0.3767 -1.8742  2.0301
  190SLPC     P21926   2.217   5.408   6.309  0.0481 -0.3768 -0.0002
  190SLPC   O1321927   2.282   5.279   6.354  0.1228 -0.2166 -0.0792
  190SLPC   O1421928   2.306   5.512   6.255 -0.4919 -0.4789  0.5214
  190SLPC   O1221929   2.105   5.377   6.198  0.1286  0.1041  0.0901
  190SLPC   O1121930   2.135   5.463   6.433 -0.1705  0.6611  0.4797
  190SLPC    C121931   1.998   5.445   6.464  0.0822 -0.1256  0.6472
  190SLPC    HA21932   1.941   5.537   6.437  1.4386  0.8341  0.9305
  190SLPC    HB21933   1.961   5.355   6.410  3.9037 -1.0251 -0.7826
  190SLPC    C221934   1.963   5.418   6.618 -0.4111 -0.1460  0.4085
  190SLPC    HS21935   1.852   5.411   6.615 -0.2933 -3.8638  0.7973
  190SLPC   O2121936   2.010   5.531   6.691  0.4453  0.2151 -0.2446
  190SLPC   C2121937   1.932   5.578   6.786  0.2164 -0.2651 -0.3936
  190SLPC   O2221938   1.826   5.530   6.826  0.3299  0.3901  0.1285
  190SLPC   C2221939   2.010   5.694   6.839 -0.4861  0.4445 -0.1570
  190SLPC   H2R21940   2.121   5.692   6.849 -0.5515  3.5204  3.6035
  190SLPC   H2S21941   1.993   5.783   6.776  0.4384 -0.7391 -2.1994
  190SLPC    C321942   2.030   5.288   6.663  0.5606  0.8518  0.3140
  190SLPC    HX21943   2.140   5.283   6.650  0.8005  0.1516  2.2893
  190SLPC    HY21944   1.997   5.207   6.595 -2.1140  0.8071  1.5284
  190SLPC   O3121945   1.991   5.248   6.796  0.0812  0.0347 -0.1501
  190SLPC   C3121946   2.064   5.279   6.903 -0.0617  0.0014  0.4906
  190SLPC   O3221947   2.169   5.347   6.897  0.2358  0.7651 -0.3680
  190SLPC   C3221948   1.995   5.228   7.030  0.4404  1.2950 -0.1838
  190SLPC   H2X21949   1.908   5.163   7.005  1.7967 -2.3980  3.4736
  190SLPC   H2Y21950   1.943   5.315   7.077 -3.5767 -1.1972  0.5329
  190SLPC   C2321951   1.971   5.721   6.986  0.1534 -0.1684 -0.3867
  190SLPC   H3R21952   1.866   5.699   7.016 -0.1063  0.4622 -0.8159
  190SLPC   H3S21953   1.973   5.830   7.009  0.1064 -0.3603  0.5772
  190SLPC   C2421954   2.073   5.675   7.089  0.0871  0.2502 -0.2303
  190SLPC   H4R21955   2.176   5.685   7.049 -0.0917 -0.0570 -0.7800
  190SLPC   H4S21956   2.064   5.565   7.103  2.5836 -0.1739 -1.4278
  190SLPC   C2521957   2.062   5.745   7.221 -0.0945 -0.4110  0.2307
  190SLPC   H5R21958   1.962   5.727   7.267 -1.4245  0.1835 -2.2603
  190SLPC   H5S21959   2.071   5.856   7.214  0.7955 -0.5348 -0.6640
  190SLPC   C2621960   2.166   5.705   7.319  0.0195  0.7706 -0.7128
  190SLPC   H6R21961   2.170   5.760   7.415  4.0140 -0.4738  0.0146
  190SLPC   H6S21962   2.272   5.705   7.286  0.7967 -1.2862  1.4999
  190SLPC   C2721963   2.146   5.552   7.365 -0.2521 -0.0141 -0.8912
  190SLPC   H7R21964   2.191   5.491   7.284 -0.6517  1.1033 -1.9761
  190SLPC   H7S21965   2.038   5.529   7.370  0.2110 -2.2557  2.7716
  190SLPC   C2821966   2.207   5.523   7.509 -0.3792 -0.3180  0.3174
  190SLPC   H8R21967   2.166   5.588   7.590  0.1627  1.2941 -0.6570
  190SLPC   H8S21968   2.317   5.535   7.513 -0.0173 -3.0373  0.4721
  190SLPC   C2921969   2.199   5.375   7.548  0.0671  0.0818 -0.4885
  190SLPC   H9R21970   2.286   5.320   7.509  1.1432  0.0240  1.8163
  190SLPC  C21021971   2.115   5.310   7.623  0.4710  0.1635  0.6929
  190SLPC  H10R21972   2.136   5.203   7.637  0.0157 -0.1367 -0.7685
  190SLPC  C21121973   1.989   5.356   7.691  0.4844  0.2046 -0.4768
  190SLPC  H11R21974   1.897   5.319   7.641  0.4642  1.5760 -1.5323
  190SLPC  H11S21975   1.989   5.466   7.676  1.6517  0.0904 -1.4955
  190SLPC  C21221976   1.978   5.316   7.831 -0.2825  0.3949 -0.0262
  190SLPC  H12R21977   2.044   5.234   7.864 -2.8344 -0.7550  2.7138
  190SLPC  C21321978   1.910   5.373   7.936 -0.6935  0.0878  0.0166
  190SLPC  H13R21979   1.917   5.320   8.032  4.6727 -0.6561 -0.5046
  190SLPC  C21421980   1.810   5.492   7.932 -0.4635  0.0905 -0.0466
  190SLPC  H14R21981   1.786   5.521   7.828 -1.1317 -0.0844  0.0585
  190SLPC  H14S21982   1.846   5.584   7.982  0.1350 -0.3074  0.2819
  190SLPC  C21521983   1.671   5.443   7.999  0.1979 -0.1034  0.6710
  190SLPC  H15R21984   1.647   5.346   7.951  3.5433 -0.2978 -0.9679
  190SLPC  H15S21985   1.594   5.517   7.969  1.1162  0.6702  0.1173
  190SLPC  C21621986   1.653   5.444   8.153  0.1046  0.5728 -0.2828
  190SLPC  H16R21987   1.550   5.407   8.172 -1.0859  3.5100 -0.5222
  190SLPC  H16S21988   1.651   5.551   8.181 -0.5866  0.6985 -0.7594
  190SLPC  C21721989   1.762   5.368   8.235 -0.0578  0.2418  1.3308
  190SLPC  H17R21990   1.745   5.396   8.341 -1.3163  1.5084  0.8400
  190SLPC  H17S21991   1.864   5.410   8.216 -0.3163  0.0740 -0.6249
  190SLPC  C21821992   1.759   5.213   8.230  0.0338  0.8509  0.1177
  190SLPC  H18R21993   1.654   5.183   8.253  0.5014 -0.9354  0.0607
  190SLPC  H18S21994   1.828   5.159   8.297 -0.9854 -2.7199 -1.4483
  190SLPC  H18T21995   1.784   5.160   8.135 -0.2843 -1.4352  1.2497
  190SLPC   C3321996   2.092   5.175   7.142  0.2693 -0.2807 -0.4025
  190SLPC   H3X21997   2.039   5.197   7.237  0.2532  1.8002 -0.8410
  190SLPC   H3Y21998   2.195   5.217   7.134  1.4264 -2.7060  0.7376
  190SLPC   C3421999   2.104   5.025   7.143  0.6531  0.3285 -0.0964
  190SLPC   H4X22000   2.004   4.978   7.140  0.8559 -0.0505 -1.2404
  190SLPC   H4Y22001   2.159   4.995   7.235  0.7796 -0.0414 -0.2943
  190SLPC   C3522002   2.179   4.976   7.022  0.6987 -0.1585  0.8195
  190SLPC   H5X22003   2.285   5.008   7.010  1.4815 -2.8677 -0.0745
  190SLPC   H5Y22004   2.124   5.012   6.932  1.9019 -2.0641 -0.7651
  190SLPC   C3622005   2.178   4.825   7.009  0.1319 -0.5717  0.4508
  190SLPC   H6X22006   2.136   4.809   6.907 -3.5330  1.5649  1.4316
  190SLPC   H6Y22007   2.082   4.792   7.056 -1.9022 -1.1332 -3.6452
  190SLPC   C3722008   2.295   4.741   7.062 -0.0731 -0.1449  0.1583
  190SLPC   H7X22009   2.391   4.781   7.023  1.0885 -3.0296 -0.1662
  190SLPC   H7Y22010   2.287   4.640   7.017  0.1815 -0.0370 -0.1313
  190SLPC   C3822011   2.291   4.731   7.216  0.7323  0.4531 -0.2697
  190SLPC   H8X22012   2.295   4.833   7.259  0.3521 -0.2723  1.5943
  190SLPC   H8Y22013   2.386   4.682   7.245  1.3237  0.6699 -1.7835
  190SLPC   C3922014   2.172   4.658   7.279  0.3368  1.1892 -0.6319
  190SLPC   H9X22015   2.177   4.554   7.242 -3.6322  0.5986  0.0526
  190SLPC   H9Y22016   2.071   4.687   7.243 -0.3095 -1.7065 -1.4279
  190SLPC  C31022017   2.183   4.655   7.439  0.3660 -0.7883  0.3041
  190SLPC  H10X22018   2.287   4.621   7.461 -0.1520 -1.9035  1.1277
  190SLPC  H10Y22019   2.112   4.585   7.488  0.3236 -0.1857  1.1154
  190SLPC  C31122020   2.160   4.793   7.509 -0.0026  0.6394  0.0101
  190SLPC  H11X22021   2.055   4.823   7.488 -0.3539  0.6932  1.7290
  190SLPC  H11Y22022   2.229   4.871   7.470 -0.6871  0.9710 -0.5705
  190SLPC  C31222023   2.180   4.782   7.657 -0.2423 -0.2878 -0.4683
  190SLPC  H12X22024   2.285   4.781   7.691 -1.0747 -0.7047  2.3399
  190SLPC  H12Y22025   2.124   4.695   7.698 -2.7033  1.4154  0.0731
  190SLPC  C31322026   2.126   4.900   7.738 -0.1395 -0.5483  0.1043
  190SLPC  H13X22027   2.017   4.894   7.716 -0.2519  1.4372 -0.0727
  190SLPC  H13Y22028   2.172   4.992   7.696  0.5404 -2.0346 -2.6147
  190SLPC  C31422029   2.147   4.878   7.893  0.0950 -0.3487  0.3308
  190SLPC  H14X22030   2.252   4.857   7.923 -0.3391 -2.1832  0.6743
  190SLPC  H14Y22031   2.092   4.784   7.913 -0.0128 -0.8155 -1.8843
  190SLPC  C31522032   2.089   5.003   7.967 -0.7419 -0.1980 -0.2252
  190SLPC  H15X22033   1.993   5.025   7.917 -0.1296  0.2148 -1.2473
  190SLPC  H15Y22034   2.170   5.079   7.961  0.9646 -1.5995  2.5294
  190SLPC  C31622035   2.079   4.982   8.116 -0.0937  0.6225  0.1308
  190SLPC  H16X22036   2.037   5.072   8.165  0.1221  1.6716 -1.5480
  190SLPC  H16Y22037   2.188   4.982   8.142 -0.2347  1.7817  0.8204
  190SLPC  C31722038   1.991   4.868   8.166  0.0680  0.4670 -0.2393
  190SLPC  H17X22039   2.026   4.764   8.147  1.0295  0.6851  0.3079
  190SLPC  H17Y22040   1.905   4.869   8.096 -0.1540 -0.1828  0.0099
  190SLPC  C31822041   1.941   4.868   8.304 -0.3019  0.4342 -0.8569
  190SLPC  H18X22042   1.893   4.769   8.319 -0.7779  0.9967  1.7677
  190SLPC  H18Y22043   1.868   4.948   8.327  1.3740  1.6100  0.7121
  190SLPC  H18Z22044   2.024   4.870   8.379  1.2617 -2.0505 -2.3743
  191SLPC     N22045   1.770   2.427   5.875 -0.4252  0.5753  0.2429
  191SLPC   C1322046   1.656   2.419   5.781  0.0628 -0.2259 -0.4957
  191SLPC  H13A22047   1.584   2.493   5.811  0.6350 -0.2077  0.9494
  191SLPC  H13B22048   1.683   2.435   5.678 -0.9477  0.0073 -0.7277
  191SLPC  H13C22049   1.605   2.325   5.799  0.2897 -0.0971  0.9962
  191SLPC   C1422050   1.736   2.387   6.013  1.1481  0.7210 -0.3583
  191SLPC  H14A22051   1.643   2.434   6.043  0.8617  1.4814 -2.2343
  191SLPC  H14B22052   1.717   2.281   6.015  1.7917  0.5700 -1.2785
  191SLPC  H14C22053   1.814   2.404   6.085 -1.4502 -1.0077  3.1488
  191SLPC   C1522054   1.805   2.574   5.866 -0.2722  0.8562 -0.4049
  191SLPC  H15A22055   1.720   2.628   5.904 -2.0414 -3.2291  2.2002
  191SLPC  H15B22056   1.891   2.599   5.927  0.1814 -2.2637  0.4208
  191SLPC  H15C22057   1.830   2.589   5.762  0.2698 -2.5507 -0.8737
  191SLPC   C1222058   1.899   2.351   5.834  0.6363  0.5788  0.3734
  191SLPC  H12A22059   1.937   2.396   5.744  2.1323  0.7508  1.0614
  191SLPC  H12B22060   1.862   2.254   5.803 -2.8184  2.0920 -0.7936
  191SLPC   C1122061   2.004   2.327   5.948 -0.9328  0.2302 -0.0065
  191SLPC  H11A22062   2.076   2.252   5.908  0.4075  0.8628  1.1054
  191SLPC  H11B22063   1.964   2.277   6.039 -0.2285  0.9725  0.7446
  191SLPC     P22064   2.190   2.516   5.897  0.2695  0.4001  0.0750
  191SLPC   O1322065   2.149   2.506   5.753 -0.1423 -0.3082 -0.3934
  191SLPC   O1422066   2.239   2.649   5.945  0.1078  0.1076 -0.2460
  191SLPC   O1222067   2.075   2.453   5.986 -0.0636  0.1625 -0.2739
  191SLPC   O1122068   2.302   2.408   5.919  0.4084 -0.4904 -0.4960
  191SLPC    C122069   2.334   2.337   6.035 -0.2805  0.8203 -0.4475
  191SLPC    HA22070   2.252   2.320   6.107  1.2907 -0.4890  1.1430
  191SLPC    HB22071   2.369   2.241   5.992 -0.7685  0.3109  0.2873
  191SLPC    C222072   2.460   2.398   6.100  0.0763 -0.2540 -0.1283
  191SLPC    HS22073   2.511   2.315   6.152  1.4577 -0.7144 -2.1303
  191SLPC   O2122074   2.407   2.495   6.194 -0.3400  0.2483 -0.1342
  191SLPC   C2122075   2.376   2.450   6.319  0.2393 -0.4132 -1.0027
  191SLPC   O2222076   2.391   2.336   6.350 -0.0461  0.1612  0.3265
  191SLPC   C2222077   2.333   2.570   6.399 -0.2939  0.6610 -0.0325
  191SLPC   H2R22078   2.388   2.664   6.378 -0.2784  0.3606 -1.4681
  191SLPC   H2S22079   2.230   2.593   6.363  1.1068  2.3193 -3.4769
  191SLPC    C322080   2.567   2.462   6.002  0.0723 -0.1131 -0.1370
  191SLPC    HX22081   2.520   2.540   5.939  1.1207  0.7644  0.1327
  191SLPC    HY22082   2.603   2.384   5.932 -1.1648  0.3298 -1.3010
  191SLPC   O3122083   2.678   2.522   6.085 -0.4739 -0.1520  0.7953
  191SLPC   C3122084   2.770   2.453   6.145  0.0069 -0.6645 -0.2209
  191SLPC   O3222085   2.769   2.330   6.160 -0.2861 -0.8218  0.8785
  191SLPC   C3222086   2.880   2.539   6.196  0.3298 -0.1840 -0.1777
  191SLPC   H2X22087   2.873   2.642   6.156 -0.7055 -0.8629 -1.8581
  191SLPC   H2Y22088   2.981   2.512   6.159  0.7923  0.2165  0.7743
  191SLPC   C2322089   2.331   2.534   6.551 -0.3604  0.5017  0.4254
  191SLPC   H3R22090   2.431   2.493   6.577  0.4303  2.1495  0.0578
  191SLPC   H3S22091   2.255   2.454   6.563 -0.3841  0.7093  1.9145
  191SLPC   C2422092   2.308   2.652   6.648  0.3529  0.0804  0.6162
  191SLPC   H4R22093   2.207   2.688   6.620 -0.3585 -2.7009 -0.6864
  191SLPC   H4S22094   2.374   2.740   6.632  0.1156  0.4638  1.6520
  191SLPC   C2522095   2.300   2.596   6.791 -0.5826 -0.3841  0.1780
  191SLPC   H5R22096   2.402   2.605   6.832 -0.7542  1.7709  0.2232
  191SLPC   H5S22097   2.278   2.487   6.787  1.0877 -0.8429  1.9542
  191SLPC   C2622098   2.203   2.663   6.879  0.1842  0.2260 -0.0973
  191SLPC   H6R22099   2.098   2.639   6.850 -0.0486 -0.0554  0.9240
  191SLPC   H6S22100   2.204   2.774   6.873 -1.8196  0.3417  0.6399
  191SLPC   C2722101   2.227   2.630   7.037 -0.5561 -0.4236  0.5006
  191SLPC   H7R22102   2.333   2.655   7.057 -0.1695  1.8652 -3.3705
  191SLPC   H7S22103   2.208   2.525   7.067 -0.3393 -0.2378  1.3134
  191SLPC   C2822104   2.135   2.711   7.124 -0.5714  0.0647  0.0134
  191SLPC   H8R22105   2.141   2.820   7.103 -3.9783  0.9895  2.7796
  191SLPC   H8S22106   2.160   2.697   7.231 -0.2958 -0.2916 -0.0972
  191SLPC   C2922107   1.996   2.646   7.118 -0.2056 -0.5491 -0.1617
  191SLPC   H9R22108   1.964   2.636   7.014  3.2359  1.2644 -1.5750
  191SLPC  C21022109   1.912   2.612   7.221 -0.1852 -0.6159  0.0398
  191SLPC  H10R22110   1.817   2.565   7.191 -0.9313  1.0847 -0.3503
  191SLPC  C21122111   1.940   2.633   7.371 -0.2896 -0.5589  0.1160
  191SLPC  H11R22112   1.886   2.723   7.406 -0.8501  0.2601 -2.5584
  191SLPC  H11S22113   2.047   2.659   7.387 -0.5322  1.0251 -0.6744
  191SLPC  C21222114   1.912   2.505   7.451 -0.6144  0.0084 -0.3614
  191SLPC  H12R22115   1.928   2.418   7.387  1.8313  1.2565 -1.5909
  191SLPC  C21322116   1.864   2.487   7.576 -0.0006 -0.4818  0.7049
  191SLPC  H13R22117   1.860   2.386   7.621  0.1559  0.0941  2.0526
  191SLPC  C21422118   1.816   2.599   7.669 -0.0295 -0.1633 -0.2163
  191SLPC  H14R22119   1.735   2.551   7.728 -0.5518 -1.5146 -1.9427
  191SLPC  H14S22120   1.780   2.689   7.616 -0.0717 -0.3005 -0.4215
  191SLPC  C21522121   1.926   2.641   7.762  0.1090 -0.3440 -0.4702
  191SLPC  H15R22122   1.976   2.554   7.809  1.1849  0.1745 -0.6255
  191SLPC  H15S22123   1.880   2.698   7.846  0.1685  0.8387 -1.2201
  191SLPC  C21622124   2.046   2.728   7.703 -0.7803  0.4305 -0.4730
  191SLPC  H16R22125   2.005   2.814   7.646  1.6858  2.5674  0.7946
  191SLPC  H16S22126   2.091   2.658   7.630 -3.1482 -0.6692 -0.9956
  191SLPC  C21722127   2.130   2.777   7.820 -0.1367  0.2797  0.9948
  191SLPC  H17R22128   2.149   2.680   7.870  0.5920 -0.0824  0.0353
  191SLPC  H17S22129   2.080   2.858   7.878  1.3285  1.4904  0.6289
  191SLPC  C21822130   2.270   2.831   7.777  0.3451 -0.3306  0.0387
  191SLPC  H18R22131   2.246   2.927   7.728 -1.4625 -1.1662 -0.8131
  191SLPC  H18S22132   2.320   2.774   7.695 -2.4965 -0.2776 -1.8824
  191SLPC  H18T22133   2.334   2.837   7.868  1.3261 -2.9754 -0.3900
  191SLPC   C3322134   2.888   2.525   6.351 -0.0436 -0.5418  0.2211
  191SLPC   H3X22135   2.989   2.567   6.371  0.2277 -0.2714 -1.5908
  191SLPC   H3Y22136   2.890   2.419   6.383 -2.0773 -1.0196 -1.0741
  191SLPC   C3422137   2.775   2.594   6.426  0.0302  0.2957 -0.5275
  191SLPC   H4X22138   2.687   2.528   6.437  1.2925 -1.3312  0.3153
  191SLPC   H4Y22139   2.748   2.684   6.366 -1.7261  0.8201  0.9532
  191SLPC   C3522140   2.808   2.660   6.568  0.7537 -0.2179 -0.1936
  191SLPC   H5X22141   2.716   2.716   6.598  1.7589  1.3384  0.1094
  191SLPC   H5Y22142   2.893   2.728   6.549  1.0087 -0.2159  0.8800
  191SLPC   C3622143   2.821   2.547   6.670 -0.3258  0.3915 -0.4184
  191SLPC   H6X22144   2.926   2.550   6.704 -0.0836  0.2232 -1.1429
  191SLPC   H6Y22145   2.806   2.447   6.624 -0.6470  0.7448 -1.1122
  191SLPC   C3722146   2.717   2.544   6.777  0.1161 -0.0564  0.2879
  191SLPC   H7X22147   2.624   2.497   6.739  0.5735  1.4487 -3.1182
  191SLPC   H7Y22148   2.694   2.649   6.804  1.9349  0.2313  0.9012
  191SLPC   C3822149   2.760   2.468   6.896  0.3874  0.0480 -0.5051
  191SLPC   H8X22150   2.855   2.497   6.947 -0.4003  1.3410  0.2771
  191SLPC   H8Y22151   2.780   2.361   6.875  2.1258  0.6034 -1.9936
  191SLPC   C3922152   2.655   2.483   7.005  0.0560 -0.2830  0.0383
  191SLPC   H9X22153   2.555   2.448   6.971 -1.3511  1.6609  1.8778
  191SLPC   H9Y22154   2.651   2.592   7.029  1.3899  0.9449 -4.3002
  191SLPC  C31022155   2.688   2.402   7.131 -0.5915  0.3112  0.8189
  191SLPC  H10X22156   2.787   2.435   7.169 -0.1681 -1.0255  0.9475
  191SLPC  H10Y22157   2.696   2.293   7.108 -1.0045  0.6341 -0.9595
  191SLPC  C31122158   2.591   2.422   7.253  0.3465  0.7791 -0.2170
  191SLPC  H11X22159   2.604   2.531   7.269  3.0293  0.3863  0.6805
  191SLPC  H11Y22160   2.633   2.380   7.347  2.0814  1.6752 -0.5455
  191SLPC  C31222161   2.444   2.375   7.249 -0.1607  0.0347 -0.6308
  191SLPC  H12X22162   2.436   2.271   7.287 -0.4065  1.3507  3.3732
  191SLPC  H12Y22163   2.396   2.394   7.150 -0.9095 -2.2080 -0.7514
  191SLPC  C31322164   2.358   2.462   7.352 -0.6380 -0.0378 -0.3729
  191SLPC  H13X22165   2.253   2.424   7.355  0.2342 -2.6309 -0.6070
  191SLPC  H13Y22166   2.363   2.567   7.317 -0.8690 -0.0438 -0.4251
  191SLPC  C31422167   2.412   2.464   7.498 -0.2594 -0.5865 -0.6176
  191SLPC  H14X22168   2.354   2.530   7.566  0.6117 -0.4504  0.0068
  191SLPC  H14Y22169   2.515   2.506   7.494 -1.0052  1.3649 -0.5275
  191SLPC  C31522170   2.407   2.322   7.567 -0.1931 -0.4623  0.4210
  191SLPC  H15X22171   2.400   2.238   7.494  2.3692 -0.8132  0.5125
  191SLPC  H15Y22172   2.311   2.318   7.623 -1.1584  0.3963 -1.0945
  191SLPC  C31622173   2.513   2.287   7.664 -0.0048  0.6303  0.2865
  191SLPC  H16X22174   2.601   2.326   7.608  0.5467 -1.5186 -0.4502
  191SLPC  H16Y22175   2.526   2.178   7.681 -3.7968 -0.2040 -1.2682
  191SLPC  C31722176   2.495   2.342   7.807 -0.7631 -0.8906  0.7347
  191SLPC  H17X22177   2.386   2.334   7.831 -1.1180  1.7102  0.2642
  191SLPC  H17Y22178   2.510   2.452   7.805 -1.6149 -0.7417  1.4877
  191SLPC  C31822179   2.582   2.276   7.909  0.4716  0.2541  0.0018
  191SLPC  H18X22180   2.687   2.269   7.872  0.2740  0.2437 -0.5654
  191SLPC  H18Y22181   2.541   2.177   7.936 -0.4399  0.9080  1.1214
  191SLPC  H18Z22182   2.586   2.329   8.007  1.3687 -0.8349  0.5740
  192SLPC     N22183   1.896   4.050   6.365 -0.2107 -0.3793 -0.7613
  192SLPC   C1322184   2.027   4.099   6.310 -0.7060 -0.2847  0.2650
  192SLPC  H13A22185   2.014   4.134   6.208  0.5369 -0.6183 -0.0243
  192SLPC  H13B22186   2.072   4.166   6.382  0.6215 -1.3078  0.4196
  192SLPC  H13C22187   2.102   4.023   6.295 -0.2141  0.6224 -2.4350
  192SLPC   C1422188   1.856   3.933   6.289  0.0199 -0.1406  0.0412
  192SLPC  H14A22189   1.755   3.898   6.306 -0.5913  1.8548  0.6978
  192SLPC  H14B22190   1.834   3.971   6.190 -2.3715 -1.8954 -0.2098
  192SLPC  H14C22191   1.926   3.851   6.288 -0.3221 -0.4894 -2.4014
  192SLPC   C1522192   1.795   4.152   6.342  0.1750 -0.7594 -0.6136
  192SLPC  H15A22193   1.802   4.193   6.243 -3.0982 -0.6761 -0.9207
  192SLPC  H15B22194   1.695   4.116   6.362  0.5081 -0.3688  2.1755
  192SLPC  H15C22195   1.810   4.230   6.415  1.2964 -0.1659 -1.4479
  192SLPC   C1222196   1.909   4.028   6.514 -0.1209 -1.0133  0.6683
  192SLPC  H12A22197   1.807   4.033   6.549 -0.6616  0.7780 -0.9694
  192SLPC  H12B22198   1.949   4.117   6.561  0.3166 -0.8178 -0.0681
  192SLPC   C1122199   1.966   3.890   6.563 -0.0265 -0.3529  0.0106
  192SLPC  H11A22200   1.898   3.805   6.539 -2.1673  1.2318  0.1712
  192SLPC  H11B22201   1.979   3.901   6.672  1.7638 -0.9014 -0.1258
  192SLPC     P22202   2.142   3.736   6.455  0.1532 -0.0754 -0.5987
  192SLPC   O1322203   2.082   3.706   6.321 -0.4718 -0.1455  0.7384
  192SLPC   O1422204   2.292   3.741   6.459 -0.2221 -0.5486  0.2343
  192SLPC   O1222205   2.091   3.872   6.515 -0.2643 -0.1924  0.6826
  192SLPC   O1122206   2.086   3.626   6.556  0.5155 -0.7197  0.5289
  192SLPC    C122207   2.137   3.628   6.690 -0.1103 -0.2677  0.8715
  192SLPC    HA22208   2.173   3.729   6.721  1.2724 -1.6351  4.1215
  192SLPC    HB22209   2.060   3.590   6.760 -1.5076  2.1472  0.7374
  192SLPC    C222210   2.262   3.529   6.699  0.1610  0.2307  0.3355
  192SLPC    HS22211   2.303   3.541   6.597 -0.7490 -2.4970 -0.4418
  192SLPC   O2122212   2.201   3.397   6.708 -0.2418  0.0992 -0.3861
  192SLPC   C2122213   2.274   3.298   6.658 -0.1309  0.2818 -0.6645
  192SLPC   O2222214   2.383   3.296   6.612 -0.0798 -0.1604  0.4497
  192SLPC   C2222215   2.197   3.172   6.656 -0.3291 -0.3612 -0.2503
  192SLPC   H2R22216   2.092   3.196   6.629 -0.5654  0.5719  1.3606
  192SLPC   H2S22217   2.233   3.111   6.571  0.5440  1.7795 -1.5156
  192SLPC    C322218   2.362   3.558   6.815  0.2985 -0.0701  0.7328
  192SLPC    HX22219   2.423   3.641   6.773 -0.7243  0.7262  0.7486
  192SLPC    HY22220   2.431   3.472   6.824 -0.1386 -0.4293  0.7015
  192SLPC   O3122221   2.291   3.607   6.932  0.1047 -0.1907  0.1641
  192SLPC   C3122222   2.334   3.561   7.051 -0.1526  0.0535  0.1795
  192SLPC   O3222223   2.425   3.482   7.061  0.2479  0.3610 -0.2298
  192SLPC   C3222224   2.251   3.610   7.166 -0.2167 -0.1417  0.2966
  192SLPC   H2X22225   2.149   3.568   7.151 -0.6298 -0.7104  3.7659
  192SLPC   H2Y22226   2.232   3.719   7.159 -0.8390 -0.2288  0.5625
  192SLPC   C2322227   2.185   3.097   6.787 -0.6702 -0.3363 -1.0003
  192SLPC   H3R22228   2.288   3.088   6.829 -1.8184  0.4334  2.2876
  192SLPC   H3S22229   2.138   2.997   6.774  0.5977 -1.4529  2.0175
  192SLPC   C2422230   2.110   3.174   6.898  0.3588  0.3579  0.3032
  192SLPC   H4R22231   2.013   3.217   6.867  0.7660  1.2908  0.2882
  192SLPC   H4S22232   2.175   3.262   6.921  1.7757 -0.7157  0.5959
  192SLPC   C2522233   2.107   3.097   7.031 -0.3888 -0.6748 -0.3007
  192SLPC   H5R22234   2.205   3.043   7.035  0.1667  0.3579  0.3454
  192SLPC   H5S22235   2.031   3.016   7.023 -0.6408 -0.2904 -2.4628
  192SLPC   C2622236   2.096   3.189   7.152  0.2530 -0.2849  0.4673
  192SLPC   H6R22237   2.026   3.273   7.130  1.8283  1.6272  2.2742
  192SLPC   H6S22238   2.191   3.244   7.174  1.0594 -1.1338 -0.7322
  192SLPC   C2722239   2.036   3.107   7.263 -0.0449 -0.4099  0.3817
  192SLPC   H7R22240   2.104   3.021   7.285  1.5199 -0.0985 -2.6609
  192SLPC   H7S22241   1.944   3.061   7.221  0.0475 -0.7684  0.5675
  192SLPC   C2822242   1.987   3.186   7.387  0.4984 -0.0453  0.3222
  192SLPC   H8R22243   1.912   3.127   7.443  0.0945  1.1892  1.1211
  192SLPC   H8S22244   1.943   3.281   7.349  1.6568 -0.3854 -2.0946
  192SLPC   C2922245   2.100   3.220   7.474 -0.1584 -0.4779 -0.5350
  192SLPC   H9R22246   2.203   3.203   7.439 -0.0374 -1.5704  0.2968
  192SLPC  C21022247   2.108   3.242   7.608 -0.5848 -0.4073  0.1667
  192SLPC  H10R22248   2.207   3.268   7.650 -0.8838 -2.7235  2.5049
  192SLPC  C21122249   1.998   3.247   7.701  0.5383  0.4601 -0.5895
  192SLPC  H11R22250   1.984   3.149   7.751 -0.6629  0.6100 -0.6133
  192SLPC  H11S22251   1.913   3.269   7.634  0.9388  4.0370 -0.1343
  192SLPC  C21222252   2.023   3.355   7.807  0.4471  0.0145  0.2414
  192SLPC  H12R22253   2.005   3.456   7.768 -0.0046 -0.2698 -0.3117
  192SLPC  C21322254   2.041   3.351   7.939  0.2854  0.2753 -0.0092
  192SLPC  H13R22255   2.056   3.441   8.000 -1.1266 -0.1575  1.0360
  192SLPC  C21422256   2.049   3.222   8.016  0.1781 -0.5205 -0.6051
  192SLPC  H14R22257   2.016   3.135   7.955 -2.4747 -0.0362 -0.0106
  192SLPC  H14S22258   1.990   3.221   8.110  0.4035  1.6758 -0.3954
  192SLPC  C21522259   2.194   3.201   8.052 -0.2171  0.6416  0.1986
  192SLPC  H15R22260   2.233   3.283   8.115  1.9959  0.1694 -0.4877
  192SLPC  H15S22261   2.250   3.210   7.957 -0.2653  1.1138  0.2161
  192SLPC  C21622262   2.244   3.068   8.094 -0.2897  0.4211  1.1234
  192SLPC  H16R22263   2.354   3.067   8.080 -0.6452  1.5329 -3.2028
  192SLPC  H16S22264   2.194   2.997   8.024 -0.4731 -0.0669  1.7357
  192SLPC  C21722265   2.210   3.019   8.234 -0.4624 -0.1660  0.0223
  192SLPC  H17R22266   2.100   3.022   8.249 -0.3875 -0.8054  0.7601
  192SLPC  H17S22267   2.243   2.912   8.233 -1.0852 -0.4069 -2.3990
  192SLPC  C21822268   2.278   3.101   8.337  0.0338  0.2353 -0.2650
  192SLPC  H18R22269   2.246   3.049   8.430 -0.1232 -1.5637 -1.2748
  192SLPC  H18S22270   2.242   3.206   8.336  0.5837  0.4263 -0.4625
  192SLPC  H18T22271   2.388   3.108   8.344  0.0260  0.9591 -0.7597
  192SLPC   C3322272   2.321   3.582   7.299 -0.4343  0.1459 -0.9676
  192SLPC   H3X22273   2.421   3.631   7.292 -0.1346 -0.0872  1.1713
  192SLPC   H3Y22274   2.335   3.472   7.302  1.2700  0.3283 -1.0337
  192SLPC   C3422275   2.249   3.628   7.423  0.3759  0.6834  0.3755
  192SLPC   H4X22276   2.156   3.568   7.433  0.6782  0.0448 -0.5333
  192SLPC   H4Y22277   2.206   3.729   7.408 -3.6470 -0.5473  1.9987
  192SLPC   C3522278   2.331   3.638   7.550  0.3214  0.1158 -0.0090
  192SLPC   H5X22279   2.410   3.716   7.546  1.6613 -1.1206  1.1938
  192SLPC   H5Y22280   2.376   3.539   7.577 -0.9054  0.0547  1.9882
  192SLPC   C3622281   2.250   3.682   7.671  0.5446 -0.7707 -0.4796
  192SLPC   H6X22282   2.175   3.606   7.698  0.8577 -0.8186  0.2653
  192SLPC   H6Y22283   2.208   3.780   7.639  1.5327  0.0183  0.5659
  192SLPC   C3722284   2.331   3.702   7.799 -0.4637 -0.2616  0.0140
  192SLPC   H7X22285   2.407   3.780   7.779  2.1011 -2.5654  0.2163
  192SLPC   H7Y22286   2.391   3.609   7.805  1.9700  1.1077 -1.2420
  192SLPC   C3822287   2.253   3.715   7.932  0.2885  0.3659  0.1587
  192SLPC   H8X22288   2.158   3.656   7.935  0.5533 -0.1942 -1.4328
  192SLPC   H8Y22289   2.224   3.822   7.928  0.6677  0.6001  2.4304
  192SLPC   C3922290   2.339   3.691   8.055  0.1410  0.5050 -0.6739
  192SLPC   H9X22291   2.410   3.777   8.058  2.2065 -1.0700 -1.5991
  192SLPC   H9Y22292   2.385   3.591   8.036 -2.4434 -0.5350 -1.9479
  192SLPC  C31022293   2.255   3.684   8.182 -0.0489  0.2024 -0.3700
  192SLPC  H10X22294   2.182   3.601   8.171 -0.3826  0.6577 -1.8184
  192SLPC  H10Y22295   2.200   3.779   8.199  0.0066  0.0282  0.8303
  192SLPC  C31122296   2.349   3.646   8.301 -0.3971 -0.1674 -0.1435
  192SLPC  H11X22297   2.409   3.735   8.331 -1.8152  0.7285  0.1068
  192SLPC  H11Y22298   2.414   3.568   8.256  2.3415  3.1189 -2.4264
  192SLPC  C31222299   2.274   3.617   8.433  0.2494  0.1877 -0.0141
  192SLPC  H12X22300   2.201   3.534   8.420 -0.4509  0.8621 -0.4802
  192SLPC  H12Y22301   2.222   3.708   8.468 -2.7232 -2.1586  2.1809
  192SLPC  C31322302   2.369   3.571   8.540  0.6078  0.3782  0.2179
  192SLPC  H13X22303   2.461   3.633   8.535  1.6715 -1.2135 -0.9240
  192SLPC  H13Y22304   2.404   3.472   8.504  0.3166  0.2212  0.3672
  192SLPC  C31422305   2.310   3.557   8.682  0.5371 -0.0907 -0.2335
  192SLPC  H14X22306   2.393   3.514   8.742  0.2516 -0.0310  0.2057
  192SLPC  H14Y22307   2.226   3.485   8.680 -1.1435  1.7604  0.8724
  192SLPC  C31522308   2.265   3.685   8.749 -0.3441 -0.1202  0.0398
  192SLPC  H15X22309   2.160   3.676   8.785  0.2003 -0.3941  1.6291
  192SLPC  H15Y22310   2.278   3.771   8.680 -1.5626 -0.2127 -0.3322
  192SLPC  C31622311   2.350   3.716   8.869  0.4049 -0.1044 -0.5215
  192SLPC  H16X22312   2.337   3.622   8.927 -0.3783 -0.2951 -0.9877
  192SLPC  H16Y22313   2.314   3.797   8.936  0.4675 -1.4394  1.1976
  192SLPC  C31722314   2.492   3.746   8.849 -1.0426 -0.0523  0.6690
  192SLPC  H17X22315   2.496   3.832   8.778  0.1323 -0.5995  0.0442
  192SLPC  H17Y22316   2.551   3.664   8.805 -2.4235 -0.0788 -1.2187
  192SLPC  C31822317   2.559   3.787   8.982  0.9658 -0.1898 -0.3006
  192SLPC  H18X22318   2.666   3.809   8.961  0.5932  0.2857 -1.7833
  192SLPC  H18Y22319   2.548   3.698   9.049 -1.3584  0.2612  0.0174
  192SLPC  H18Z22320   2.501   3.866   9.035  0.3214  0.4261 -1.8928
  193SOD    SOD22321   2.244   3.908   2.253 -0.2710 -0.2346 -0.4687
  194SOD    SOD22322   1.678   5.421  11.301  0.0793 -0.2822 -0.0131
  195SOD    SOD22323   5.786   6.309   6.349 -0.0457  0.1121  0.7087
  196SOD    SOD22324   6.713   1.007   3.707  0.1314  0.5546  0.1727
  197SOD    SOD22325   5.856   4.712  14.318  0.5959 -0.0364  0.6233
  198SOD    SOD22326   4.499   5.986  14.649  0.1635  0.3020  0.1721
  199SOD    SOD22327   1.541   3.906  10.508  0.0303 -0.5324  0.3461
  200SOD    SOD22328   4.678   6.206  13.166 -0.1956  0.0760  0.1802
  201SOD    SOD22329   6.107   1.806   6.424 -0.1843 -0.1539 -0.0820
  202SOD    SOD22330   2.324   2.042  11.620 -0.0552  0.2143 -0.5466
  203SOD    SOD22331   2.161   3.718  16.552  0.0155  0.1466  0.0381
  204SOD    SOD22332   3.418   3.481   1.301  0.0659  0.4043 -0.5254
  205SOD    SOD22333   1.217   5.952   0.668  0.1296 -0.0187 -0.2246
  206SOD    SOD22334   5.160   0.871   3.738  0.4455  0.5686 -0.0664
  207SOD    SOD22335   0.368   1.052  16.646  0.3656  0.4115  0.1042
  208SOD    SOD22336   2.826   0.759   6.058  0.2831 -0.2873 -0.3225
  209SOD    SOD22337   5.359   2.592   0.336 -0.1455  0.5259 -0.1618
  210SOD    SOD22338   4.453   4.305   1.884  0.1455 -0.0093  0.3309
  211SOD    SOD22339   4.063   3.173  12.235  0.2416 -0.0353 -0.3515
  212SOD    SOD22340   1.384   6.749  12.285  0.1059  0.0807 -0.0334
  213SOD    SOD22341   0.127   4.629   2.990  0.3467  0.1608  0.2418
  214SOD    SOD22342   3.942   3.000  14.623  0.4792  0.0662  0.0986
  215SOD    SOD22343   6.346   3.914  10.732  0.1333  0.1338 -0.3732
  216SOD    SOD22344   5.364   2.896  11.738 -0.0209 -0.1635  0.0082
  217SOD    SOD22345   5.154   4.820   4.845 -0.2507 -0.1490 -0.2985
  218SOD    SOD22346   5.774   0.445   1.774 -0.0439 -0.3111  0.1585
  219SOD    SOD22347   2.763   6.043  13.518 -0.2849 -0.1242  0.4634
  220SOD    SOD22348   0.236   1.374  11.033  0.3868  0.7935  0.2064
  221SOD    SOD22349   1.755   0.503  10.621  0.3020  0.0532  0.1609
  222SOD    SOD22350   5.838   0.249   2.684  0.2982  0.0977 -0.2169
  223SOD    SOD22351   3.602   1.495   3.750  0.1392 -0.2908 -0.3984
  224SOD    SOD22352   5.914   0.115  10.897 -0.1734 -0.2443 -0.1338
  225SOD    SOD22353   3.046   2.556  12.332  0.2280  0.3462  0.2443
  226SOD    SOD22354   5.315   4.925  15.808 -0.0995  0.0086  0.0052
  227SOD    SOD22355   3.586   0.638  15.436 -0.0585  0.6462 -0.3668
  228SOD    SOD22356   4.300   4.980   0.546  0.3852  0.8997  0.4075
  229SOD    SOD22357   2.226   6.251  15.790 -0.1567 -0.4475 -0.0584
  230SOD    SOD22358   3.200   2.979   5.349  0.5820  0.2208 -0.2633
  231SOD    SOD22359   1.692   0.548   3.273 -0.5578  0.0137 -0.0132
  232SOD    SOD22360   3.639   4.771  12.765  0.0320 -0.5419  0.3752
  233SOD    SOD22361   5.165   5.988  15.010  0.4918  0.4597 -0.1878
  234SOD    SOD22362   2.361   6.785   5.600  0.5090  0.0267 -0.2659
  235SOD    SOD22363   1.232   6.010  12.664  0.4806 -0.7526 -0.0038
  236SOD    SOD22364   0.831   4.232  12.388 -0.0920 -0.0427 -0.1589
  237SOD    SOD22365   2.882   1.199  16.908  0.0530  0.2017  0.0121
  238SOD    SOD22366   2.449   3.221   4.169  0.1286  0.2672  0.2242
  239SOD    SOD22367   5.358   4.796  13.327 -0.1321 -0.4611 -0.0140
  240SOD    SOD22368   2.277   6.438   4.077 -0.2471 -0.2291 -0.1869
  241SOD    SOD22369   3.480   2.043   5.096 -0.8347 -0.3205  0.2466
  242SOD    SOD22370   3.498   3.374   6.405  0.0823 -0.4196 -0.4442
  243SOD    SOD22371   3.659   4.926  16.342  0.1175 -0.5070  0.0867
  244SOD    SOD22372   5.403   3.298  11.334 -0.1061  0.3129  0.0650
  245SOD    SOD22373   3.502   3.673  13.251 -0.0838 -0.6707  0.2406
  246SOD    SOD22374   4.470   6.051   4.832 -0.3715 -0.9785 -0.1398
  247SOD    SOD22375   6.260   2.082   2.884 -0.0334  0.2833  0.0054
  248SOD    SOD22376   0.316   4.396   2.153  0.1232  0.5761 -0.1189
  249SOD    SOD22377   3.314   3.321  17.136  0.5861  0.2935  0.2169
  250SOD    SOD22378   4.413   1.258   2.007  0.5274  0.1936 -0.2591
  251SOD    SOD22379   2.977   3.085   3.839  0.1178  0.1758  0.1879
  252SOD    SOD22380   0.217   3.341  14.711 -0.0808 -0.2939 -0.2326
  253SOD    SOD22381   6.753   6.395   1.768  0.1364 -0.3143  0.2052
  254SOD    SOD22382   5.085   3.209  15.282 -0.9365 -0.0424 -0.2451
  255SOD    SOD22383   6.058   0.960   4.449  0.2072  0.6020 -0.2263
  256SOD    SOD22384   1.966   2.748   1.900 -0.3922 -0.5131 -0.0593
  257SOD    SOD22385   1.068   4.129   5.535 -0.1693  0.2008 -0.0237
  258SOD    SOD22386   3.900   1.298   0.502 -0.6387  0.1851 -0.0790
  259SOD    SOD22387   6.189   6.301  14.627  0.0308  0.2145  0.2818
  260SOD    SOD22388   4.929   4.002   4.230  0.2410  0.3222 -0.0392
  261SOD    SOD22389   5.284   3.584   5.503 -0.0705 -0.3417  0.3851
  262SOD    SOD22390   2.403   1.339  11.583 -0.7006 -0.0958 -0.1036
  263SOD    SOD22391   4.722   5.534   3.010 -0.0047  0.3038 -0.2272
  264SOD    SOD22392   1.835   2.391  14.176 -0.0547 -0.2440  0.1416
  265SOD    SOD22393   1.644   3.466   5.738 -0.7825 -0.3774 -0.1638
  266CLA    CLA22394   6.226   3.410   5.519 -0.1203  0.2604  0.0169
  267CLA    CLA22395   2.926   4.096  12.685 -0.3134 -0.1882  0.2031
  268CLA    CLA22396   0.949   4.439  16.239 -0.0416 -0.0323  0.6718
  269CLA    CLA22397   5.049   0.291   2.907  0.0864  0.1008 -0.4344
  270CLA    CLA22398   4.671   0.546  17.000 -0.0683  0.0402  0.2721
  271CLA    CLA22399   5.424   4.512  15.580  0.0595  0.1727 -0.5738
  272CLA    CLA22400   1.741   4.466  15.887 -0.4247 -0.0815 -0.2788
  273CLA    CLA22401   5.781   5.987   4.976  0.0502 -0.0117 -0.0021
  274CLA    CLA22402   3.292   1.457  16.296 -0.0424 -0.0429 -0.0426
  275CLA    CLA22403   1.739   1.558  15.272  0.6041 -0.6337  0.0872
  276CLA    CLA22404   2.315   1.203   1.431  0.0556  0.0951 -0.2413
  277CLA    CLA22405   6.336   4.914  13.224 -0.6348  0.0528  0.0507
  278CLA    CLA22406   1.597   6.280   2.224  0.2700 -0.3467 -0.1561
  279CLA    CLA22407   5.409   3.155  11.847 -0.1674 -0.1400  0.0450
  280CLA    CLA22408   1.523   0.118  15.777 -0.2886  0.1315 -0.4163
  281CLA    CLA22409   3.546   3.200  17.060  0.2581  0.2494  0.1641
  282CLA    CLA22410   3.736   0.476   2.471 -0.0733  0.0241 -0.1402
  283CLA    CLA22411   4.188   5.519   3.752  0.3440  0.3158  0.1198
  284CLA    CLA22412   3.041   5.114  15.987  0.2489 -0.0376 -0.3043
  285CLA    CLA22413   3.020   2.031   2.838  0.0872 -0.2312  0.3573
  286CLA    CLA22414   2.167   0.205   4.423 -0.0115 -0.4305 -0.6715
  287CLA    CLA22415   1.768   3.681   2.665 -0.0654  0.0303  0.5131
  288CLA    CLA22416   4.888   5.683   1.190  0.2067  0.0605 -0.2250
  289CLA    CLA22417   3.235   3.263   1.914 -0.0962  0.2796  0.5995
  290CLA    CLA22418   2.169   6.541   4.652 -0.2048  0.0717  0.1214
  291CLA    CLA22419   1.384   4.651  13.310 -0.1575 -0.0741  0.8049
  292CLA    CLA22420   3.329   5.948  12.427 -0.0504  0.2404 -0.3605
  293CLA    CLA22421   3.922   3.895  16.068  0.0604 -0.0107 -0.1308
  294CLA    CLA22422   3.990   1.705  15.466  0.2768 -0.0708  0.0673
  295CLA    CLA22423   2.786   3.588  13.956 -0.0909 -0.0903  0.2058
  296CLA    CLA22424   4.437   5.747  13.062 -0.0288  0.1339 -0.0727
  297CLA    CLA22425   6.308   3.542  12.058 -0.5173 -0.4955 -0.1136
  298CLA    CLA22426   4.765   1.456   2.109 -0.1251 -0.4027 -0.1036
  299CLA    CLA22427   6.696   2.288   0.926 -0.1357 -0.0041 -0.2557
  300CLA    CLA22428   4.914   5.227  13.491 -0.0876 -0.2227 -0.4093
  301CLA    CLA22429   1.130   4.988  11.797  0.2422 -0.1055  0.4919
  302CLA    CLA22430   0.021   3.310  16.728  0.2236  0.0264 -0.0109
  303CLA    CLA22431   2.472   1.482   4.409 -0.2379 -0.2065  0.2398
  304CLA    CLA22432   6.398   6.124  15.972 -0.1949  0.0975  0.0181
  305CLA    CLA22433   5.466   5.340  16.925  0.3313  0.0016  0.0767
  306CLA    CLA22434   1.017   2.802   0.219 -0.2278 -0.0350  0.1318
  307CLA    CLA22435   5.674   1.225  15.207 -0.0385  0.0785 -0.2377
  308CLA    CLA22436   0.206   1.931   5.675  0.0966 -0.5519 -0.2551
  309CLA    CLA22437   3.995   3.670  12.682 -0.0349 -0.1953  0.2715
  310CLA    CLA22438   2.043   4.045   3.842  0.2288 -0.2907  0.1071
  311CLA    CLA22439   1.225   5.594   1.254 -0.1534 -0.2366 -0.0279
  312CLA    CLA22440   2.416   3.283  13.808 -0.1262  0.0730 -0.2997
  313CLA    CLA22441   6.691   5.342   3.109  0.4982  0.2089 -0.0681
  314CLA    CLA22442   0.958   4.600   5.390  0.0533 -0.2849  0.1116
  315CLA    CLA22443   1.764   1.299  12.361  0.3026 -0.1071  0.2777
  316CLA    CLA22444   3.121   5.559   1.908  0.4035  0.1989  0.0610
  317CLA    CLA22445   5.016   3.373   0.926 -0.2215  0.1059  0.2086
  318CLA    CLA22446   0.886   5.709  14.541  0.0841 -0.2517  0.1384
  319TIP3   OH222447   5.091   3.450  13.459 -0.3580  0.0209 -0.5946
  319TIP3    H122448   5.044   3.513  13.404  1.8131  1.9683 -0.3556
  319TIP3    H222449   5.181   3.453  13.426  0.0977 -1.9994  0.3258
  320TIP3   OH222450   5.273   1.250  14.655  0.5804 -0.1312 -0.3441
  320TIP3    H122451   5.235   1.300  14.582  0.8704 -0.6001 -0.8165
  320TIP3    H222452   5.300   1.318  14.718 -0.6780  0.2300 -0.1612
  321TIP3   OH222453   0.874   1.452  14.299 -0.3416  0.2369  0.4022
  321TIP3    H122454   0.926   1.372  14.308 -0.9473 -0.1830  0.2087
  321TIP3    H222455   0.895   1.502  14.378 -0.0359 -0.1520  0.5739
  322TIP3   OH222456   2.242   0.565   1.745 -0.2381  0.1775 -0.7923
  322TIP3    H122457   2.297   0.565   1.667 -0.1907  1.9199 -0.7934
  322TIP3    H222458   2.153   0.575   1.711 -0.1310  2.0872 -0.6349
  323TIP3   OH222459   3.740   6.313   2.793  0.5568  0.1231 -1.0774
  323TIP3    H122460   3.782   6.229   2.773 -1.0602 -0.7057 -1.1675
  323TIP3    H222461   3.802   6.358   2.849  1.1245 -1.4977 -0.3230
  324TIP3   OH222462   5.399   2.333  12.763 -0.2220 -0.2551  1.1032
  324TIP3    H122463   5.462   2.277  12.719 -0.3702  0.9142 -0.7148
  324TIP3    H222464   5.450   2.406  12.797 -0.6306  1.2814 -1.3599
  325TIP3   OH222465   2.658   5.510  11.980 -0.1235 -0.1766  0.1729
  325TIP3    H122466   2.688   5.585  11.929  0.0051  1.1286  2.0319
  325TIP3    H222467   2.689   5.434  11.933  0.3328  0.9611 -1.4341
  326TIP3   OH222468   4.510   2.839   6.459 -0.8632 -0.3817 -0.6679
  326TIP3    H122469   4.597   2.867   6.432 -1.1201  0.9075 -0.2286
  326TIP3    H222470   4.499   2.876   6.546 -2.1379  0.1301 -1.0256
  327TIP3   OH222471   5.342   0.217  16.073 -0.2473 -0.5288  0.2497
  327TIP3    H122472   5.420   0.171  16.039 -0.2138 -0.7154  0.5709
  327TIP3    H222473   5.282   0.147  16.096 -0.9813 -0.3615 -1.0637
  328TIP3   OH222474   3.142   1.884   4.374 -0.0653 -0.4541  0.2029
  328TIP3    H122475   3.138   1.887   4.279  1.2647 -2.6374  0.0211
  328TIP3    H222476   3.115   1.795   4.397  0.4323 -0.2293  1.8090
  329TIP3   OH222477   5.569   2.354   5.448  0.0781  0.0084  0.3505
  329TIP3    H122478   5.526   2.274   5.418  0.0971  0.3373 -0.5814
  329TIP3    H222479   5.637   2.323   5.508  0.8889 -0.7706 -0.9261
  330TIP3   OH222480   5.450   1.444   2.657  1.2359  0.1406 -0.0674
  330TIP3    H122481   5.398   1.409   2.585  2.7760 -1.6243 -0.4104
  330TIP3    H222482   5.503   1.513   2.617 -0.2853  1.4946  0.1485
  331TIP3   OH222483   3.337   2.754   3.709 -0.2320  0.4878  0.7181
  331TIP3    H122484   3.411   2.740   3.769 -0.7430 -0.8740  1.0753
  331TIP3    H222485   3.349   2.687   3.642  1.0415  2.7653 -1.4923
  332TIP3   OH222486   2.610   5.735   1.568  0.0549  0.5006 -0.7178
  332TIP3    H122487   2.569   5.649   1.579  2.3481 -0.4215  1.7662
  332TIP3    H222488   2.555   5.794   1.618 -0.8394  0.2586 -1.3893
  333TIP3   OH222489   3.500   5.826  11.401  0.0256  0.3900  0.1486
  333TIP3    H122490   3.434   5.757  11.398  0.0803  0.2787  1.1728
  333TIP3    H222491   3.563   5.796  11.466  0.0823  1.3675  0.5696
  334TIP3   OH222492   6.662   6.356  17.159 -0.4396  0.5981 -0.2443
  334TIP3    H122493   6.658   6.304  17.240  0.1797  0.8691 -0.0299
  334TIP3    H222494   6.585   6.329  17.110  0.0710 -0.8262 -0.3285
  335TIP3   OH222495   0.574   1.391   4.669 -1.0420  0.8792 -0.1377
  335TIP3    H122496   0.505   1.332   4.701 -1.0547  0.1908 -1.3838
  335TIP3    H222497   0.625   1.412   4.747 -0.7750 -1.1334  0.2757
  336TIP3   OH222498   6.013   2.487   3.338  0.3412  0.6495  0.5083
  336TIP3    H122499   5.954   2.519   3.270  0.7036 -0.2240 -0.2373
  336TIP3    H222500   6.032   2.564   3.392  0.6716  1.5433 -0.8401
  337TIP3   OH222501   2.955   1.709  10.946  0.3097  0.2075 -0.5233
  337TIP3    H122502   3.039   1.713  10.899  0.0862 -0.4262 -0.9816
  337TIP3    H222503   2.890   1.736  10.882 -0.1052 -1.5370 -0.8782
  338TIP3   OH222504   6.351   3.074  11.803  0.4723  0.0130  0.0533
  338TIP3    H122505   6.267   3.069  11.847  0.6227  1.8295  0.6434
  338TIP3    H222506   6.400   3.141  11.851  1.8798 -0.2838 -0.8813
  339TIP3   OH222507   0.240   2.234   4.908  0.2943  0.6179  0.0028
  339TIP3    H122508   0.217   2.304   4.968 -0.1119 -0.5743  1.2927
  339TIP3    H222509   0.305   2.182   4.956  0.5303  0.0564 -0.8933
  340TIP3   OH222510   3.469   1.229   2.294 -0.6370 -0.1458 -0.3321
  340TIP3    H122511   3.499   1.246   2.205 -0.8321 -1.3113 -0.6419
  340TIP3    H222512   3.531   1.275   2.351 -0.4095  0.4554 -1.0636
  341TIP3   OH222513   4.956   6.614  15.480  0.1389 -0.2244  0.1593
  341TIP3    H122514   4.995   6.575  15.559 -1.7343 -0.8942  0.8275
  341TIP3    H222515   4.862   6.594  15.488 -0.2254  0.5026 -1.7971
  342TIP3   OH222516   0.979   0.863  11.241 -0.2105  0.4878 -0.3984
  342TIP3    H122517   0.970   0.834  11.332  0.3326 -0.3103 -0.5891
  342TIP3    H222518   0.983   0.959  11.246 -0.3877  0.4552  0.3981
  343TIP3   OH222519   1.938   5.093   4.379 -0.4558  0.3941  0.4741
  343TIP3    H122520   2.004   5.039   4.336 -0.6510  0.5190  0.0072
  343TIP3    H222521   1.934   5.060   4.469  0.6879  0.8065  0.6840
  344TIP3   OH222522   6.411   2.562  11.195 -0.5831  0.7118 -0.1218
  344TIP3    H122523   6.490   2.509  11.186 -1.1046  0.1918 -2.1987
  344TIP3    H222524   6.401   2.574  11.290  0.0284 -2.1853  0.4086
  345TIP3   OH222525   3.979   5.938   0.385 -0.2642 -0.0159 -0.5511
  345TIP3    H122526   3.939   5.981   0.460  1.1764 -2.0182  1.4964
  345TIP3    H222527   3.912   5.877   0.353 -0.0112 -1.0428  0.8134
  346TIP3   OH222528   5.109   0.035   1.349  0.6164  0.1180  0.9859
  346TIP3    H122529   5.118   0.114   1.401 -0.9710  0.4075  0.8673
  346TIP3    H222530   5.015   0.029   1.329  0.7924 -1.4338  0.4399
  347TIP3   OH222531   3.863   1.189  15.477 -0.3867 -0.7701  0.0377
  347TIP3    H122532   3.838   1.280  15.496  0.7523 -1.1398  4.2870
  347TIP3    H222533   3.931   1.197  15.410  1.7806  1.9412  2.2707
  348TIP3   OH222534   5.437   2.376   0.785 -0.0407 -0.0196  0.6740
  348TIP3    H122535   5.531   2.358   0.774 -0.5236 -1.7905 -1.3033
  348TIP3    H222536   5.396   2.336   0.709 -2.5744 -0.5823  2.2004
  349TIP3   OH222537   0.633   2.379  15.656  0.2732 -0.0313  0.4930
  349TIP3    H122538   0.557   2.394  15.713 -0.7377  0.5008 -0.9522
  349TIP3    H222539   0.644   2.461  15.608  3.8083  1.1626  2.9156
  350TIP3   OH222540   0.245   5.701  14.087 -0.0807  0.4258 -0.1016
  350TIP3    H122541   0.296   5.774  14.122  1.6331 -0.3225 -0.8887
  350TIP3    H222542   0.266   5.627  14.144  0.0421  0.0146 -0.6676
  351TIP3   OH222543   5.900   2.971   0.668 -0.1341 -0.3198  0.1720
  351TIP3    H122544   5.888   2.878   0.651  0.0839  0.1120 -2.9112
  351TIP3    H222545   5.979   2.995   0.620 -0.2082  1.4763  0.8501
  352TIP3   OH222546   4.041   2.353   4.527  0.1053 -0.2198  0.0161
  352TIP3    H122547   4.051   2.314   4.614 -0.2230  1.5414  0.8819
  352TIP3    H222548   4.114   2.317   4.477  1.2213 -0.1084  1.4767
  353TIP3   OH222549   2.850   0.711  15.275  0.1334 -0.2237 -0.0828
  353TIP3    H122550   2.806   0.632  15.307  1.1575 -1.0029 -0.5638
  353TIP3    H222551   2.877   0.690  15.186  2.8622 -0.3737  0.6965
  354TIP3   OH222552   4.295   6.513   1.303 -0.1441 -0.1353  0.2735
  354TIP3    H122553   4.335   6.552   1.225 -0.0151  0.1432  0.4772
  354TIP3    H222554   4.368   6.503   1.364 -0.4775  0.9073  0.8641
  355TIP3   OH222555   4.957   5.500   5.681  0.2162  0.0818  0.3828
  355TIP3    H122556   4.890   5.475   5.617  0.3268  2.9358 -1.0160
  355TIP3    H222557   4.961   5.427   5.741 -2.2277 -1.3632 -1.0364
  356TIP3   OH222558   0.870   1.655   4.091 -0.6203  0.1462  0.4884
  356TIP3    H122559   0.899   1.612   4.011  0.4505  0.0346  0.9220
  356TIP3    H222560   0.894   1.594   4.161 -1.0308  0.4952  0.9419
  357TIP3   OH222561   6.134   0.185   1.126 -0.4413  0.0350  0.1101
  357TIP3    H122562   6.186   0.265   1.118 -1.7922  0.9057 -0.2825
  357TIP3    H222563   6.117   0.176   1.220  0.4111 -0.2712  0.2441
  358TIP3   OH222564   0.926   6.280  10.768 -0.4389 -0.4791  0.5809
  358TIP3    H122565   0.883   6.196  10.755  0.1593 -0.7055 -0.0309
  358TIP3    H222566   0.871   6.343  10.721  0.8883 -1.0646 -1.9450
  359TIP3   OH222567   0.437   3.516  15.156  0.3780  0.2539 -0.7066
  359TIP3    H122568   0.500   3.444  15.153  0.2222 -0.0733  1.9038
  359TIP3    H222569   0.491   3.594  15.167  0.4411 -0.0701  2.0273
  360TIP3   OH222570   0.701   2.278  14.273  0.0444 -0.6484  0.0587
  360TIP3    H122571   0.700   2.335  14.350 -1.2209 -1.3445  0.5770
  360TIP3    H222572   0.766   2.211  14.295  0.9169  0.0936 -0.2001
  361TIP3   OH222573   0.214   0.728   0.963 -0.4745  0.3057 -0.4043
  361TIP3    H122574   0.291   0.684   1.001  0.1825  1.3711 -0.4769
  361TIP3    H222575   0.247   0.810   0.928 -1.4463  0.2650 -1.5006
  362TIP3   OH222576   3.230   4.809   2.540  0.1369  0.3124  0.4541
  362TIP3    H122577   3.285   4.732   2.522 -0.7168  0.0780 -1.3987
  362TIP3    H222578   3.168   4.779   2.607 -0.6415 -0.8964 -0.7465
  363TIP3   OH222579   4.462   2.918  13.935  0.3646 -0.1104  0.0568
  363TIP3    H122580   4.500   2.831  13.925 -1.2073 -0.7112 -1.1305
  363TIP3    H222581   4.448   2.927  14.029 -0.3987 -1.5889  0.1197
  364TIP3   OH222582   2.950   4.528  16.593 -0.1068  0.4193 -0.1719
  364TIP3    H122583   3.042   4.548  16.606 -0.4142  1.0595  1.1749
  364TIP3    H222584   2.909   4.614  16.578 -0.4358  0.1030 -1.2127
  365TIP3   OH222585   5.334   4.827   5.607  0.7297  0.5285 -0.5278
  365TIP3    H122586   5.341   4.732   5.621 -0.5621  0.7522  2.1408
  365TIP3    H222587   5.368   4.866   5.687 -1.4547  2.2253 -0.3399
  366TIP3   OH222588   0.946   5.354  17.149  0.2514 -0.2515  0.2236
  366TIP3    H122589   0.996   5.390  17.076  0.3870 -0.4739  0.2049
  366TIP3    H222590   0.855   5.358  17.121  0.1938  0.7890  0.5223
  367TIP3   OH222591   2.524   0.984   1.367  0.6378  0.2839 -0.3057
  367TIP3    H122592   2.605   1.034   1.376  0.3184  0.6534  0.7338
  367TIP3    H222593   2.455   1.050   1.367  0.1466 -0.1446  2.0435
  368TIP3   OH222594   4.664   3.363   1.778 -0.3332  0.0582 -0.1033
  368TIP3    H122595   4.690   3.401   1.694 -0.5038  0.1075 -0.1350
  368TIP3    H222596   4.721   3.405   1.843 -1.6091  1.6111  0.0751
  369TIP3   OH222597   2.647   4.646  11.846  0.0132  0.0641 -0.3307
  369TIP3    H122598   2.583   4.699  11.798  3.4229  1.8137 -3.5171
  369TIP3    H222599   2.646   4.561  11.803 -0.2750  0.0219 -0.2419
  370TIP3   OH222600   6.020   1.407   3.634  0.0805  0.0577  0.0415
  370TIP3    H122601   6.100   1.390   3.683  1.3764  1.1304 -1.5615
  370TIP3    H222602   6.006   1.502   3.643  0.0228  0.1783 -1.0892
  371TIP3   OH222603   1.768   2.047  12.266 -0.8413 -0.0416  0.0929
  371TIP3    H122604   1.848   2.065  12.217 -0.0140 -1.1431  1.0083
  371TIP3    H222605   1.710   2.006  12.202 -0.3128 -0.1331 -0.3395
  372TIP3   OH222606   6.176   5.443   6.463  0.3405  0.1987  0.3098
  372TIP3    H122607   6.254   5.451   6.518 -0.7274 -1.4620  2.2261
  372TIP3    H222608   6.207   5.402   6.382  1.4719 -0.5355  1.0810
  373TIP3   OH222609   3.538   3.782   0.307 -0.1194 -0.0839  0.3114
  373TIP3    H122610   3.596   3.765   0.381 -0.7673 -1.1236  0.5857
  373TIP3    H222611   3.473   3.713   0.310 -2.1082  1.6941  0.7039
  374TIP3   OH222612   1.015   4.058   0.544 -0.2851 -0.3733  0.0469
  374TIP3    H122613   1.016   4.047   0.449  2.5006 -1.6677  0.1193
  374TIP3    H222614   0.964   3.983   0.576  0.8818 -1.4029 -0.3870
  375TIP3   OH222615   4.277   1.663   4.175  0.4587 -0.2955 -0.5742
  375TIP3    H122616   4.266   1.747   4.130 -0.5517 -0.6635 -1.0404
  375TIP3    H222617   4.209   1.607   4.138 -1.2857 -0.2499  2.2838
  376TIP3   OH222618   4.907   0.411  16.474  0.6411 -0.1937  0.1203
  376TIP3    H122619   4.885   0.460  16.554 -0.7966  1.3115 -1.1296
  376TIP3    H222620   4.984   0.455  16.439  0.9417 -0.5087  0.3808
  377TIP3   OH222621   6.494   5.962  14.416  0.2105  0.2562  0.0197
  377TIP3    H122622   6.512   5.952  14.323  0.5859  0.3126  0.0840
  377TIP3    H222623   6.420   6.022  14.420 -0.7053 -0.8175 -0.2896
  378TIP3   OH222624   0.249   0.165  14.590  0.2172 -0.4767 -0.0168
  378TIP3    H122625   0.173   0.149  14.534 -0.6541  0.1357  0.9385
  378TIP3    H222626   0.308   0.092  14.573  0.0345 -0.2629 -1.7883
  379TIP3   OH222627   3.013   5.205  13.921 -0.1920 -0.0679 -0.1306
  379TIP3    H122628   2.962   5.275  13.880  0.6987  0.6133 -0.1124
  379TIP3    H222629   2.954   5.167  13.987 -0.3489  1.3617  0.5883
  380TIP3   OH222630   1.425   3.634  13.939 -0.2788  0.5190 -0.3442
  380TIP3    H122631   1.371   3.711  13.957 -1.1530 -0.4360  1.3749
  380TIP3    H222632   1.397   3.604  13.853  0.6869  2.5546 -1.4698
  381TIP3   OH222633   4.718   3.750  14.445  0.0942 -0.6077  0.3918
  381TIP3    H122634   4.695   3.733  14.353  1.2586 -2.0777  0.3448
  381TIP3    H222635   4.807   3.785  14.441  0.9080 -2.4907  1.0454
  382TIP3   OH222636   1.704   1.707  13.508 -0.0726  0.1892 -0.0412
  382TIP3    H122637   1.623   1.756  13.493 -1.3695 -1.9956 -0.5328
  382TIP3    H222638   1.702   1.637  13.443  0.6396 -1.7451  1.9041
  383TIP3   OH222639   4.521   1.734   4.931  0.2588 -0.1587  0.4461
  383TIP3    H122640   4.512   1.660   4.871  0.6700  1.3027 -1.5071
  383TIP3    H222641   4.470   1.708   5.009 -2.3500 -1.1526 -1.4451
  384TIP3   OH222642   2.061   3.005  12.909  0.0656  0.2834  0.3281
  384TIP3    H122643   2.028   3.032  12.823 -0.5814 -2.1915 -0.2710
  384TIP3    H222644   1.984   3.012  12.967  0.5671  2.2239  0.8559
  385TIP3   OH222645   4.308   3.798   5.546 -0.0570  0.2858  0.3592
  385TIP3    H122646   4.343   3.721   5.590 -0.0336  1.2485  2.1207
  385TIP3    H222647   4.385   3.852   5.528 -0.1229  0.1250 -0.4641
  386TIP3   OH222648   2.704   2.292   3.329  0.4983  0.4671 -0.2387
  386TIP3    H122649   2.672   2.381   3.345  0.6169  0.1769  1.9975
  386TIP3    H222650   2.786   2.288   3.379  1.0531 -0.5828 -1.1999
  387TIP3   OH222651   1.482   4.734  12.391  0.5052 -0.1283  0.0720
  387TIP3    H122652   1.431   4.665  12.348  0.7927  0.1861 -0.7900
  387TIP3    H222653   1.469   4.811  12.337  2.2994 -0.1573 -0.4687
  388TIP3   OH222654   2.761   6.321   1.520 -0.1098 -0.2241 -0.0642
  388TIP3    H122655   2.752   6.323   1.615  0.1830  2.2729 -0.0200
  388TIP3    H222656   2.813   6.242   1.503 -1.6637 -1.7213  1.6363
  389TIP3   OH222657   4.056   0.171  14.627 -0.2646  0.5623  0.4825
  389TIP3    H122658   4.022   0.229  14.558  1.0474  0.5423 -0.2145
  389TIP3    H222659   4.136   0.135  14.590  0.1944  0.1452  1.8358
  390TIP3   OH222660   4.558   3.282  15.572 -0.2341 -0.4276  0.2342
  390TIP3    H122661   4.591   3.316  15.489 -0.4584 -0.2248  0.2262
  390TIP3    H222662   4.478   3.332  15.588 -0.4821 -0.8435  0.3015
  391TIP3   OH222663   1.735   5.947   1.476  0.3851  0.5105 -0.2141
  391TIP3    H122664   1.727   6.038   1.504 -1.0430  0.3305  0.0420
  391TIP3    H222665   1.829   5.929   1.478  0.6301  1.7706  0.3733
  392TIP3   OH222666   1.374   2.909  13.993  0.3447  0.2196 -0.2353
  392TIP3    H122667   1.454   2.869  14.024  0.3520  1.1276  0.9966
  392TIP3    H222668   1.304   2.850  14.022  0.3361  1.1178  1.7749
  393TIP3   OH222669   4.118   0.675   4.887 -0.1365  0.6213 -0.1329
  393TIP3    H122670   4.193   0.618   4.872 -0.5890 -0.0977  0.2769
  393TIP3    H222671   4.089   0.654   4.976 -1.4083  0.1959 -0.6279
  394TIP3   OH222672   0.092   3.671   3.118 -0.5142 -0.5413 -0.5894
  394TIP3    H122673   0.116   3.737   3.053 -1.1180 -0.8843 -1.1671
  394TIP3    H222674   0.003   3.645   3.094 -0.8408 -0.5081  0.5053
  395TIP3   OH222675   2.319   6.313   4.518 -0.2370  0.2788  0.1624
  395TIP3    H122676   2.259   6.378   4.555 -1.2138  0.0920 -1.0150
  395TIP3    H222677   2.399   6.322   4.570 -2.0547 -1.2739  3.6272
  396TIP3   OH222678   0.877   4.971   3.369 -0.2723 -0.6960 -0.1587
  396TIP3    H122679   0.796   4.951   3.416 -1.3030 -0.3213 -1.7186
  396TIP3    H222680   0.852   4.973   3.277  1.3889  0.0583 -0.6316
  397TIP3   OH222681   2.567   5.505  11.623  0.1649 -0.1124  0.0727
  397TIP3    H122682   2.636   5.521  11.559  1.6346  1.1209  1.8592
  397TIP3    H222683   2.595   5.427  11.670  1.5036  1.4536  2.0971
  398TIP3   OH222684   1.856   6.457  15.254 -0.1394 -0.7446  0.3298
  398TIP3    H122685   1.795   6.476  15.183 -1.4291  1.4447  1.8787
  398TIP3    H222686   1.943   6.471  15.217 -0.8287  3.8241 -0.1027
  399TIP3   OH222687   4.044   6.282  10.696 -0.1432 -0.5204 -0.4729
  399TIP3    H122688   4.108   6.240  10.637  0.0831  0.1330 -0.6961
  399TIP3    H222689   4.083   6.366  10.718 -0.0542 -0.8982  0.9185
  400TIP3   OH222690   3.531   0.504  13.129 -1.0521 -0.1504  0.0585
  400TIP3    H122691   3.447   0.502  13.084 -2.3134 -0.2937  2.2765
  400TIP3    H222692   3.562   0.413  13.126 -0.9124 -0.0807 -0.8361
  401TIP3   OH222693   3.016   4.831   1.519 -0.3465  0.5566 -0.4571
  401TIP3    H122694   3.082   4.900   1.530  0.1786  0.2351 -1.4960
  401TIP3    H222695   2.995   4.833   1.426 -1.0868 -0.0060 -0.3088
  402TIP3   OH222696   3.128   2.649  14.927 -0.4479 -0.3367 -0.2727
  402TIP3    H122697   3.182   2.693  14.993  0.2940 -1.1958 -0.2761
  402TIP3    H222698   3.045   2.632  14.972 -0.7377  0.9919 -0.2632
  403TIP3   OH222699   2.245   1.776  10.862  0.1455 -0.0610 -0.8509
  403TIP3    H122700   2.335   1.767  10.891 -0.2139 -2.0028 -0.1713
  403TIP3    H222701   2.234   1.707  10.797 -1.4162 -1.3343  0.6630
  404TIP3   OH222702   5.828   0.069   4.727 -0.3483 -0.3445  0.6152
  404TIP3    H122703   5.892   0.088   4.796  1.2981  1.4522 -1.2606
  404TIP3    H222704   5.745   0.058   4.774  0.5655  1.3524  2.8432
  405TIP3   OH222705   4.091   1.433  14.337 -0.2558 -0.5850  0.1761
  405TIP3    H122706   4.093   1.345  14.374 -0.9711 -1.6244 -2.1042
  405TIP3    H222707   4.182   1.451  14.312 -0.6092 -2.3446 -2.8396
  406TIP3   OH222708   1.467   5.164   0.869 -0.6638  0.3597  0.1616
  406TIP3    H122709   1.533   5.147   0.936 -0.6240 -0.4425 -0.0694
  406TIP3    H222710   1.414   5.235   0.905 -0.5121  0.0827  0.9491
  407TIP3   OH222711   2.350   5.009  16.785 -0.4058 -0.3709  0.3934
  407TIP3    H122712   2.287   4.939  16.805  0.3833 -1.2247 -0.0362
  407TIP3    H222713   2.372   4.996  16.693  0.6710 -0.3223  0.6316
  408TIP3   OH222714   2.750   2.014  13.737  0.0803 -0.0207  0.2477
  408TIP3    H122715   2.810   2.030  13.810  0.6924  0.1746 -0.2855
  408TIP3    H222716   2.729   2.102  13.704 -0.9462 -0.0565  0.7752
  409TIP3   OH222717   5.914   2.112   5.408 -0.4343 -0.4481 -0.4589
  409TIP3    H122718   5.977   2.167   5.362 -1.0473 -0.6848 -1.6094
  409TIP3    H222719   5.915   2.145   5.498  0.6516  0.1452 -0.6742
  410TIP3   OH222720   3.143   3.588   2.573 -0.0919 -0.2735 -0.7754
  410TIP3    H122721   3.117   3.608   2.483 -0.2999  1.9074 -0.2680
  410TIP3    H222722   3.063   3.597   2.624  0.2650 -0.3540 -0.1911
  411TIP3   OH222723   6.729   6.109   2.776 -0.1972  0.1306 -0.4992
  411TIP3    H122724   6.819   6.093   2.803 -0.2956  0.5516  0.1055
  411TIP3    H222725   6.733   6.192   2.727 -0.2241  0.0430 -0.6504
  412TIP3   OH222726   2.014   5.133  13.344  0.6093 -0.2390 -0.4485
  412TIP3    H122727   2.029   5.051  13.297  1.3923 -0.1440 -0.3678
  412TIP3    H222728   2.012   5.200  13.276  2.7671  0.0385 -0.2999
  413TIP3   OH222729   3.281   2.436  12.279  0.0690 -0.1645  0.4966
  413TIP3    H122730   3.326   2.351  12.287  1.1565  0.4345  0.9132
  413TIP3    H222731   3.351   2.498  12.258 -1.0680  0.2298 -2.5163
  414TIP3   OH222732   2.559   2.110  14.809  0.1181 -0.0295  0.4449
  414TIP3    H122733   2.617   2.053  14.859  1.2937  0.4739 -0.2745
  414TIP3    H222734   2.616   2.148  14.742 -0.0559  3.5083  2.0433
  415TIP3   OH222735   5.323   3.648   4.488  0.1858  0.1506 -0.1252
  415TIP3    H122736   5.322   3.739   4.516  0.1902  0.5321 -1.3325
  415TIP3    H222737   5.378   3.647   4.410 -0.0645 -0.8350 -0.3066
  416TIP3   OH222738   1.287   4.216  16.854  0.2635  0.0256 -0.3848
  416TIP3    H122739   1.299   4.231  16.760  0.0461 -0.0158 -0.4209
  416TIP3    H222740   1.340   4.139  16.873  1.3297  0.7779 -0.2101
  417TIP3   OH222741   4.468   4.175  14.456  0.3869  0.3512 -0.8654
  417TIP3    H122742   4.426   4.089  14.451  1.1443 -0.0858  0.0985
  417TIP3    H222743   4.396   4.237  14.450 -0.1312 -0.3235 -2.0802
  418TIP3   OH222744   6.031   4.148  17.022  0.4644 -0.3390  0.0812
  418TIP3    H122745   6.041   4.243  17.035  2.1255 -0.2355 -1.6222
  418TIP3    H222746   6.092   4.109  17.084 -1.0485 -0.4190  1.6233
  419TIP3   OH222747   6.326   1.301  11.175  0.9038  0.3080  0.4979
  419TIP3    H122748   6.398   1.293  11.238 -0.3274 -1.2153  1.7919
  419TIP3    H222749   6.341   1.232  11.111 -0.8139 -1.9326  2.3466
  420TIP3   OH222750   4.611   3.311  12.931  0.0675 -0.2501 -0.5902
  420TIP3    H122751   4.639   3.348  13.015 -0.4190  0.3711 -0.6872
  420TIP3    H222752   4.689   3.312  12.877  0.7147 -1.8757  0.2485
  421TIP3   OH222753   5.566   0.241   6.081  0.1639  0.4535 -0.0760
  421TIP3    H122754   5.592   0.330   6.104  2.8151 -0.3033  0.1322
  421TIP3    H222755   5.527   0.206   6.161  0.2395  1.0267  0.2190
  422TIP3   OH222756   5.904   6.031  11.296  0.1216  0.6048  0.1420
  422TIP3    H122757   5.972   6.038  11.229 -0.5631  2.7842 -0.4260
  422TIP3    H222758   5.945   5.984  11.368  1.2625 -0.7451 -1.3307
  423TIP3   OH222759   4.387   1.949  15.625  0.3301  0.1371 -0.2598
  423TIP3    H122760   4.332   1.884  15.670 -0.3283  0.4433 -0.6108
  423TIP3    H222761   4.327   1.996  15.568  1.3531 -1.2272 -2.6286
  424TIP3   OH222762   5.657   3.300   1.116 -0.0924  0.0544 -0.4041
  424TIP3    H122763   5.679   3.244   1.042  0.2797 -0.6384  0.2139
  424TIP3    H222764   5.567   3.327   1.100 -1.0188 -2.3733  0.2678
  425TIP3   OH222765   6.704   4.835   0.483 -0.1076  0.3620  0.3557
  425TIP3    H122766   6.765   4.874   0.421  1.5019 -0.3818  1.3954
  425TIP3    H222767   6.664   4.910   0.528  2.3660  0.9428  1.7937
  426TIP3   OH222768   2.277   6.087  13.903  0.1978  0.6925 -0.0352
  426TIP3    H122769   2.282   6.115  13.811 -0.4651 -0.1600 -0.3490
  426TIP3    H222770   2.352   6.028  13.914 -0.7345 -0.6329 -0.5663
  427TIP3   OH222771   2.974   0.968  16.115 -0.5630 -0.2713  1.1192
  427TIP3    H122772   2.881   0.990  16.116 -0.7068 -0.0553 -2.3931
  427TIP3    H222773   3.019   1.053  16.118 -0.7393  0.0073 -1.5318
  428TIP3   OH222774   5.215   2.999  16.362  0.6704 -0.5014 -0.1583
  428TIP3    H122775   5.158   3.071  16.390  0.5008 -0.2679 -1.0743
  428TIP3    H222776   5.288   3.002  16.423  0.6836  0.4768 -0.2047
  429TIP3   OH222777   5.516   6.718  11.582 -0.2211 -0.1940  0.3792
  429TIP3    H122778   5.601   6.763  11.579  0.1701 -0.9361  0.2369
  429TIP3    H222779   5.536   6.632  11.619 -0.9843 -0.2222  0.7370
  430TIP3   OH222780   2.360   2.991   1.588  0.3565  0.0924 -0.0324
  430TIP3    H122781   2.315   3.015   1.507  0.3541 -0.6566 -0.2579
  430TIP3    H222782   2.361   2.895   1.587  0.8603  0.0903  0.5743
  431TIP3   OH222783   1.173   2.497   1.457  0.3354 -0.4785 -0.0893
  431TIP3    H122784   1.173   2.500   1.553 -3.6865  1.5275  0.0470
  431TIP3    H222785   1.190   2.405   1.436  1.6488 -0.9260  2.4512
  432TIP3   OH222786   4.691   1.248  11.276 -0.2346  0.0857 -0.4258
  432TIP3    H122787   4.625   1.200  11.326  0.4514  0.2982  0.7392
  432TIP3    H222788   4.666   1.340  11.284  0.8693  0.2936  1.1295
  433TIP3   OH222789   1.097   5.307  16.825 -0.3974 -0.2523  0.3740
  433TIP3    H122790   1.113   5.213  16.838  1.0084 -0.2010 -0.8492
  433TIP3    H222791   1.183   5.347  16.832 -0.3452  0.4709 -2.9433
  434TIP3   OH222792   2.864   6.332  15.172  0.2921 -0.2604 -0.6957
  434TIP3    H122793   2.944   6.363  15.128  1.1930  0.9100  1.5867
  434TIP3    H222794   2.793   6.356  15.113  1.3768  1.7498 -1.2587
  435TIP3   OH222795   1.563   4.167   0.924 -0.0397  0.1086 -0.4134
  435TIP3    H122796   1.626   4.140   0.857 -0.7223 -0.7948 -0.7232
  435TIP3    H222797   1.543   4.086   0.972 -0.8542  0.3975 -0.2471
  436TIP3   OH222798   3.983   1.779   6.600  0.3829 -0.1449 -0.1773
  436TIP3    H122799   3.990   1.716   6.671  1.6112 -0.4143 -0.5096
  436TIP3    H222800   3.981   1.865   6.643 -2.9601 -0.3704  0.3858
  437TIP3   OH222801   5.457   2.691  14.618  0.2263  0.3920  1.0403
  437TIP3    H122802   5.399   2.738  14.678 -1.5731 -1.6419  1.0277
  437TIP3    H222803   5.541   2.736  14.625 -0.7042  1.9787  2.9001
  438TIP3   OH222804   0.501   5.616   5.327  0.1782  0.8531  0.1854
  438TIP3    H122805   0.440   5.687   5.348  1.4974  1.8920  0.6743
  438TIP3    H222806   0.579   5.635   5.379 -0.1025 -2.0601  1.9112
  439TIP3   OH222807   6.137   3.729   3.321  0.2191 -0.0111  0.2044
  439TIP3    H122808   6.088   3.687   3.392 -1.0107  0.0362 -0.5663
  439TIP3    H222809   6.200   3.786   3.365 -0.0024 -0.5407  1.2509
  440TIP3   OH222810   3.786   6.119  17.091  0.3811  0.2828  0.0933
  440TIP3    H122811   3.736   6.199  17.110  2.4039  1.0410  2.7491
  440TIP3    H222812   3.875   6.150  17.074  1.0998 -1.3692  0.6486
  441TIP3   OH222813   6.332   1.739  14.872  0.2585 -0.0352  0.0098
  441TIP3    H122814   6.360   1.828  14.850 -1.0518  0.1764 -0.8885
  441TIP3    H222815   6.402   1.683  14.838  0.4855  0.5814 -0.5565
  442TIP3   OH222816   4.838   4.213   4.461 -0.5774  0.5549  0.0033
  442TIP3    H122817   4.869   4.159   4.534 -0.9004  1.1481  0.5903
  442TIP3    H222818   4.914   4.266   4.437 -0.1918 -0.3020 -0.7233
  443TIP3   OH222819   6.111   2.080   4.228  0.0115 -0.4870  0.3235
  443TIP3    H122820   6.142   2.020   4.160 -3.5425 -3.1286  0.7687
  443TIP3    H222821   6.096   2.162   4.181 -1.8646 -2.0702 -2.0900
  444TIP3   OH222822   1.761   5.666  11.749  0.2307 -0.1725 -0.6498
  444TIP3    H122823   1.849   5.678  11.785  0.1890  0.0899 -0.6304
  444TIP3    H222824   1.705   5.653  11.826  0.5161 -2.2291 -0.7229
  445TIP3   OH222825   3.210   1.275  13.380 -0.6638  0.7069  0.3193
  445TIP3    H122826   3.283   1.235  13.427 -0.1214 -1.8264 -2.3368
  445TIP3    H222827   3.138   1.275  13.443  0.3746 -1.1543  1.5993
  446TIP3   OH222828   6.557   1.433  11.046  0.2818  0.0446 -0.0566
  446TIP3    H122829   6.562   1.340  11.069 -0.0316 -0.5369 -2.1450
  446TIP3    H222830   6.647   1.456  11.021 -0.0087 -0.2797 -1.4894
  447TIP3   OH222831   3.927   0.152  16.610 -0.3510  0.3998 -0.5248
  447TIP3    H122832   3.902   0.234  16.653  0.3607  0.3771 -0.0601
  447TIP3    H222833   3.892   0.083  16.667 -0.5748  0.3728 -0.6901
  448TIP3   OH222834   4.362   2.016  13.181 -0.1893  0.2144  0.1586
  448TIP3    H122835   4.312   1.959  13.240  1.3166  0.1009  1.3713
  448TIP3    H222836   4.382   1.961  13.105 -0.5809 -0.2055  0.3552
  449TIP3   OH222837   3.688   2.312  13.711  0.4707  0.0875  0.5688
  449TIP3    H122838   3.691   2.389  13.655  0.4435  0.0528  0.5183
  449TIP3    H222839   3.731   2.243  13.659 -1.0495 -0.3923 -0.1125
  450TIP3   OH222840   5.749   6.393   0.393  0.1797  0.0274 -0.6074
  450TIP3    H122841   5.694   6.393   0.471 -0.5370  3.8030 -0.9107
  450TIP3    H222842   5.821   6.451   0.414  1.1217 -0.5448 -2.0797
  451TIP3   OH222843   6.303   3.454   0.010  0.4945  0.3511  0.2998
  451TIP3    H122844   6.262   3.374  -0.024 -0.4947  0.9594  0.0138
  451TIP3    H222845   6.312   3.438   0.103  2.4569 -1.0054 -0.0698
  452TIP3   OH222846   2.632   2.435   1.102  0.2197 -0.8153 -0.3745
  452TIP3    H122847   2.569   2.371   1.067 -0.0655 -1.5079  1.3211
  452TIP3    H222848   2.659   2.399   1.186 -1.5968  2.2785  1.7487
  453TIP3   OH222849   6.789   1.489   5.157  0.3919 -0.4098 -0.8519
  453TIP3    H122850   6.709   1.527   5.120  1.2570  1.3941 -1.0281
  453TIP3    H222851   6.832   1.447   5.082 -0.4250 -1.4989 -0.7293
  454TIP3   OH222852   3.254   2.196   5.304  0.0602 -0.0341  0.0343
  454TIP3    H122853   3.242   2.189   5.209  0.4586  1.7222 -0.1951
  454TIP3    H222854   3.304   2.118   5.328 -1.7111 -1.5304 -0.8379
  455TIP3   OH222855   2.137   4.426   0.930  0.4798  0.3303  0.6591
  455TIP3    H122856   2.062   4.435   0.872  0.9417 -0.1563 -0.0287
  455TIP3    H222857   2.196   4.497   0.905  1.3505 -0.7574 -0.5276
  456TIP3   OH222858   1.353   2.195  16.867  0.3172 -0.1649 -0.5069
  456TIP3    H122859   1.372   2.219  16.958 -0.3215  0.4499 -0.5231
  456TIP3    H222860   1.369   2.275  16.817 -1.8186  0.3031 -0.5693
  457TIP3   OH222861   6.211   2.062   5.493 -0.7077 -0.4199 -0.3111
  457TIP3    H122862   6.136   2.084   5.547 -1.2429 -1.4571 -0.6110
  457TIP3    H222863   6.238   2.145   5.455 -1.3217  0.0590  0.2744
  458TIP3   OH222864   0.988   4.667  14.205  0.3065  0.2735  0.2518
  458TIP3    H122865   0.929   4.594  14.187  0.6128 -0.2932  1.4442
  458TIP3    H222866   0.933   4.732  14.248  0.4578 -0.0949  1.0126
  459TIP3   OH222867   5.239   5.559   4.666  0.4907  0.2908  0.0471
  459TIP3    H122868   5.326   5.520   4.668  0.0264 -1.0852 -2.3075
  459TIP3    H222869   5.246   5.628   4.600 -0.3873 -0.4546 -0.8603
  460TIP3   OH222870   4.185   1.659  11.104 -0.6307  0.0372 -0.5077
  460TIP3    H122871   4.160   1.571  11.079  0.1311  0.3608 -2.6252
  460TIP3    H222872   4.242   1.647  11.180 -0.1210 -1.3478 -1.0779
  461TIP3   OH222873   4.029   4.560  15.709  0.4112  0.1357  0.0492
  461TIP3    H122874   4.015   4.503  15.785  1.2439  0.7759  0.7119
  461TIP3    H222875   4.123   4.580  15.712  0.6300 -0.4626 -1.6190
  462TIP3   OH222876   2.097   1.800   1.681  0.5544  0.0564 -0.2442
  462TIP3    H122877   2.158   1.859   1.638  0.8103 -0.1343 -0.1488
  462TIP3    H222878   2.034   1.858   1.725 -0.2324  0.2464 -1.5881
  463TIP3   OH222879   3.542   2.626   2.873 -0.2416  0.4255 -0.0138
  463TIP3    H122880   3.631   2.630   2.837  0.5452  0.6311  1.8529
  463TIP3    H222881   3.544   2.550   2.931 -1.0613  0.8675  0.6026
  464TIP3   OH222882   4.357   5.536  15.728 -0.6414 -0.0014  0.4342
  464TIP3    H122883   4.338   5.615  15.678  0.3345  0.2840  0.4903
  464TIP3    H222884   4.272   5.507  15.761 -0.9531  1.3410  0.8776
  465TIP3   OH222885   1.467   0.310  15.384  0.0919 -0.0781 -0.2633
  465TIP3    H122886   1.444   0.219  15.365  1.5350 -0.3120 -1.0466
  465TIP3    H222887   1.500   0.344  15.301  0.8884  0.7303  0.3664
  466TIP3   OH222888   4.002   0.463   1.803 -0.1222 -0.1518 -0.0097
  466TIP3    H122889   4.023   0.399   1.735  0.1271 -0.3312  0.2317
  466TIP3    H222890   3.907   0.468   1.803 -0.2240 -1.4395  0.7954
  467TIP3   OH222891   0.065   3.459  14.576 -0.2294 -0.3274 -0.2672
  467TIP3    H122892   0.051   3.508  14.495  0.8520 -1.3640 -1.1138
  467TIP3    H222893  -0.001   3.390  14.573  0.5659 -1.0757 -0.8632
  468TIP3   OH222894   3.572   2.683   5.366 -0.2616 -0.9369  0.5306
  468TIP3    H122895   3.489   2.714   5.402  0.0856  1.2393 -0.3728
  468TIP3    H222896   3.567   2.704   5.273  2.0006  1.0552  0.7690
  469TIP3   OH222897   1.165   6.484  14.174  0.6994 -0.3293  0.4559
  469TIP3    H122898   1.147   6.419  14.241 -0.2180 -1.4586 -0.8245
  469TIP3    H222899   1.079   6.520  14.151  1.0576  0.4111  0.2278
  470TIP3   OH222900   4.270   5.798   5.906  0.2705 -0.1059 -0.2984
  470TIP3    H122901   4.302   5.710   5.929  1.2860  0.0154 -1.1352
  470TIP3    H222902   4.294   5.808   5.814 -0.3908  0.8227 -0.3807
  471TIP3   OH222903   0.475   0.586  11.946  0.3306 -0.3065  0.0247
  471TIP3    H122904   0.485   0.518  12.012  0.2002  0.4458  0.8283
  471TIP3    H222905   0.458   0.538  11.865  3.0085 -1.3441  0.0011
  472TIP3   OH222906   2.615   4.420  13.887  0.6701 -0.1587 -0.3248
  472TIP3    H122907   2.706   4.393  13.896  0.7807  0.0139 -0.8934
  472TIP3    H222908   2.568   4.369  13.953  0.9867 -1.1616 -0.8551
  473TIP3   OH222909   4.811   5.402  15.363 -0.4906 -0.1857  0.1375
  473TIP3    H122910   4.825   5.309  15.380  1.3814  0.0353 -0.0419
  473TIP3    H222911   4.780   5.437  15.447 -2.3815 -1.1417 -0.1033
  474TIP3   OH222912   4.820   0.304  13.071  0.1684 -0.0210  0.2305
  474TIP3    H122913   4.881   0.270  13.005 -1.9659 -0.4564 -1.6330
  474TIP3    H222914   4.792   0.227  13.120  0.7802  0.1292  0.8380
  475TIP3   OH222915   6.211   4.309   1.215  0.6598  0.0032 -0.2459
  475TIP3    H122916   6.209   4.405   1.225  1.6501 -0.0825  1.0681
  475TIP3    H222917   6.126   4.287   1.177  1.1712  1.5890 -2.5248
  476TIP3   OH222918   3.400   4.625   6.550 -0.3623  0.4086  0.0764
  476TIP3    H122919   3.485   4.623   6.506 -0.6918 -1.2502 -0.5397
  476TIP3    H222920   3.403   4.551   6.611 -1.6670 -0.1772 -0.5460
  477TIP3   OH222921   5.704   3.598  15.558 -0.0615 -0.5357 -0.0646
  477TIP3    H122922   5.654   3.661  15.505 -1.8774 -0.7236  1.3212
  477TIP3    H222923   5.758   3.652  15.615 -0.8476 -0.2157  0.4023
  478TIP3   OH222924   6.130   4.381   0.559  0.7425  0.5547 -0.0744
  478TIP3    H122925   6.101   4.355   0.647 -1.9809  1.8431 -0.4890
  478TIP3    H222926   6.134   4.477   0.563 -1.9002  0.8577 -1.9199
  479TIP3   OH222927   1.785   6.206  11.684 -0.0696  0.0524 -0.1216
  479TIP3    H122928   1.836   6.286  11.695  0.8067 -0.3099 -1.3644
  479TIP3    H222929   1.717   6.230  11.621 -1.0896  0.3560  1.0490
  480TIP3   OH222930   3.032   6.064  13.752 -0.0507 -0.0292 -0.2880
  480TIP3    H122931   3.086   5.999  13.798  0.3102 -0.5684 -1.4345
  480TIP3    H222932   3.068   6.066  13.663 -1.3372  0.2752 -0.8225
  481TIP3   OH222933   0.992   2.908  15.989  0.1933  0.1748 -0.5289
  481TIP3    H122934   1.002   2.981  15.927  2.9597  3.1883  2.9924
  481TIP3    H222935   1.030   2.833  15.944  1.5537  2.0235 -2.7113
  482TIP3   OH222936   0.549   3.564  11.868  0.4366 -0.3196 -0.2614
  482TIP3    H122937   0.558   3.655  11.840  2.3629 -0.6037 -0.7373
  482TIP3    H222938   0.517   3.518  11.791  0.9919 -0.2930 -0.5124
  483TIP3   OH222939   4.063   2.076   6.054 -0.4862 -0.2964  0.1849
  483TIP3    H122940   4.056   1.981   6.054  2.8321 -0.6711 -0.2352
  483TIP3    H222941   4.115   2.097   6.132 -0.6354  1.0906 -0.0523
  484TIP3   OH222942   1.260   6.525  10.870  0.1228 -0.3663 -0.0720
  484TIP3    H122943   1.304   6.569  10.943 -2.5885  0.3470  1.2656
  484TIP3    H222944   1.278   6.432  10.883 -0.5370 -0.2806  1.7396
  485TIP3   OH222945   4.986   5.110   5.674 -0.0603 -0.0833  0.4073
  485TIP3    H122946   5.007   5.018   5.658  0.8147  0.1337  0.2988
  485TIP3    H222947   4.891   5.110   5.688 -0.2098 -0.8810 -0.4715
  486TIP3   OH222948   3.589   0.665  14.972 -0.2529 -0.5362 -0.1684
  486TIP3    H122949   3.579   0.638  15.063 -0.6876  0.2287  0.0184
  486TIP3    H222950   3.665   0.723  14.972 -0.1910 -0.6160 -0.3125
  487TIP3   OH222951   2.378   6.144   1.911  0.4682 -0.1704 -0.0207
  487TIP3    H122952   2.332   6.208   1.965 -1.6903 -0.0107 -1.9218
  487TIP3    H222953   2.336   6.060   1.931  1.4149 -0.5580  0.4179
  488TIP3   OH222954   2.666   3.049   2.625 -0.5552 -0.3246  0.7451
  488TIP3    H122955   2.629   3.079   2.541 -2.1230 -2.3824  0.6334
  488TIP3    H222956   2.663   3.126   2.681  0.8292  1.2091 -1.1332
  489TIP3   OH222957   0.714   2.210   6.537 -0.6187  0.2548  0.2133
  489TIP3    H122958   0.663   2.163   6.470  0.8617 -0.5508 -0.4011
  489TIP3    H222959   0.745   2.141   6.595 -0.4367  0.7604  0.7157
  490TIP3   OH222960   5.876   5.641   0.871 -0.2003 -0.5373 -0.1479
  490TIP3    H122961   5.809   5.707   0.887  0.5164 -0.2393  1.8800
  490TIP3    H222962   5.837   5.558   0.897 -0.2066 -0.5501 -0.1972
  491TIP3   OH222963   6.456   5.538   4.474 -0.1971  0.3533  0.3413
  491TIP3    H122964   6.530   5.477   4.477 -0.3840  0.1450  1.0123
  491TIP3    H222965   6.480   5.602   4.407 -0.4774 -1.0684 -1.2090
  492TIP3   OH222966   1.512   5.133   5.515  0.2464 -0.7558  0.5426
  492TIP3    H122967   1.520   5.227   5.501  1.9501 -0.9649 -0.0297
  492TIP3    H222968   1.501   5.096   5.427 -1.0831 -1.0689  0.8072
  493TIP3   OH222969   0.856   3.377  15.554 -0.0726 -0.1705 -0.1569
  493TIP3    H122970   0.904   3.450  15.515 -1.1991 -1.1722 -3.7966
  493TIP3    H222971   0.781   3.417  15.597  0.1883  0.9030 -0.6739
  494TIP3   OH222972   4.102   4.264  13.179  0.0362 -0.1621  0.5182
  494TIP3    H122973   4.120   4.302  13.093  0.5999 -0.1701  0.6275
  494TIP3    H222974   4.009   4.241  13.176 -0.6819  2.3607  0.8790
  495TIP3   OH222975   5.267   4.045   0.678 -0.2415 -0.3549 -0.3830
  495TIP3    H122976   5.332   3.986   0.641 -2.3739 -1.9161 -1.8727
  495TIP3    H222977   5.246   4.105   0.606 -1.0998 -0.4640 -0.2305
  496TIP3   OH222978   5.675   1.843   6.641  0.3756  0.0268  0.0558
  496TIP3    H122979   5.653   1.779   6.708  0.3858 -0.1906 -0.1482
  496TIP3    H222980   5.590   1.871   6.606  0.4016 -1.8551 -1.7174
  497TIP3   OH222981   5.951   1.104   3.892 -0.5183 -0.3436 -0.5584
  497TIP3    H122982   6.007   1.028   3.878 -0.7085 -0.3960 -1.0197
  497TIP3    H222983   5.874   1.089   3.837 -0.7240  0.0058 -0.3712
  498TIP3   OH222984   5.185   3.392   5.067 -0.1942 -0.4125 -0.3249
  498TIP3    H122985   5.201   3.428   4.979 -0.1747 -0.2937 -0.2737
  498TIP3    H222986   5.121   3.323   5.053  0.6805 -1.1941 -0.5917
  499TIP3   OH222987   1.039   0.547  15.098  0.3970 -0.3565 -0.0645
  499TIP3    H122988   0.964   0.503  15.138  1.9392 -1.6136  1.6246
  499TIP3    H222989   1.052   0.501  15.014 -0.5357 -0.2881 -0.2555
  500TIP3   OH222990   1.291   5.117   2.951 -0.1333 -0.5174  0.0568
  500TIP3    H122991   1.373   5.073   2.926  1.0372  0.6045  1.6916
  500TIP3    H222992   1.279   5.184   2.883  0.8548 -0.0566  0.3184
  501TIP3   OH222993   1.357   5.955  16.253  0.1327  0.1627  0.3233
  501TIP3    H122994   1.336   5.911  16.335  0.4636 -0.2370  0.1995
  501TIP3    H222995   1.411   6.030  16.279  1.6698 -0.9118  0.3578
  502TIP3   OH222996   4.703   3.514  16.259 -0.5465  0.3073 -0.2344
  502TIP3    H122997   4.743   3.533  16.175  0.9432 -2.4238 -0.2409
  502TIP3    H222998   4.614   3.486  16.238 -0.1461 -0.4699 -0.9384
  503TIP3   OH222999   5.471   5.453   3.177  0.6652  0.0102 -0.0959
  503TIP3    H123000   5.523   5.388   3.130  1.1414 -0.0330  0.4812
  503TIP3    H223001   5.530   5.487   3.244 -0.2297 -0.4896  0.9796
  504TIP3   OH223002   3.329   0.787   5.313 -0.8705 -0.5403 -0.0614
  504TIP3    H123003   3.377   0.731   5.252 -1.1963  0.2535 -1.0625
  504TIP3    H223004   3.389   0.860   5.330 -1.0892 -0.3622 -0.0528
  505TIP3   OH223005   5.703   2.808  12.961  0.3071  0.5507 -0.7493
  505TIP3    H123006   5.784   2.756  12.960 -0.4410 -0.6765 -0.4383
  505TIP3    H223007   5.732   2.898  12.970  1.6085  0.0196  1.0440
  506TIP3   OH223008   1.878   4.895   6.465  0.6622  0.2470  0.1109
  506TIP3    H123009   1.849   4.978   6.503  0.2575 -0.7550  2.0993
  506TIP3    H223010   1.967   4.882   6.499  0.9736  0.1605 -0.7149
  507TIP3   OH223011   0.675   5.944  16.228 -0.0648  0.3329  0.0901
  507TIP3    H123012   0.721   5.862  16.208 -0.6225 -0.0006  0.1467
  507TIP3    H223013   0.607   5.950  16.160 -1.2405 -0.2225  1.1836
  508TIP3   OH223014   6.017   6.304  12.888 -0.1703 -0.0936 -0.1709
  508TIP3    H123015   6.092   6.346  12.930 -0.7016  0.3935  0.3068
  508TIP3    H223016   5.956   6.375  12.870 -0.3627 -0.4313 -0.9092
  509TIP3   OH223017   4.315   2.813  14.504  0.2271  0.4433  0.1885
  509TIP3    H123018   4.355   2.728  14.484  1.2652  0.7774  0.7501
  509TIP3    H223019   4.389   2.873  14.510 -0.4899  1.3780 -0.1131
  510TIP3   OH223020   5.274   3.260  15.408 -0.2667 -0.1618 -0.4683
  510TIP3    H123021   5.334   3.186  15.417 -0.4523 -0.1005  1.8833
  510TIP3    H223022   5.328   3.332  15.375  1.3260  0.1977  2.5543
  511TIP3   OH223023   2.934   5.793   0.029 -0.0268 -0.2545  0.1917
  511TIP3    H123024   2.883   5.864  -0.011 -1.7429 -0.9315  1.0843
  511TIP3    H223025   2.897   5.784   0.117  1.0560 -1.3897  0.5502
  512TIP3   OH223026   0.058   2.938  15.950  0.3504 -0.0683 -0.6530
  512TIP3    H123027   0.063   2.889  16.032 -1.1409 -1.2045 -1.1917
  512TIP3    H223028   0.060   2.872  15.881  2.9605  0.9334 -1.6633
  513TIP3   OH223029   4.637   0.540  11.343 -0.8109 -0.1124  0.0302
  513TIP3    H123030   4.685   0.587  11.275  1.0730 -0.7774  0.8392
  513TIP3    H223031   4.555   0.513  11.300 -0.7294  1.4957 -1.2451
  514TIP3   OH223032   1.790   0.358   2.872  0.2867 -0.3850 -1.0919
  514TIP3    H123033   1.737   0.279   2.875  0.4191 -0.4783 -1.1793
  514TIP3    H223034   1.873   0.333   2.912  0.2558 -0.2334 -0.9320
  515TIP3   OH223035   6.394   2.200  13.487 -0.6221  0.2202 -0.4442
  515TIP3    H123036   6.422   2.264  13.553 -0.4293 -0.0213 -0.2903
  515TIP3    H223037   6.392   2.116  13.534  0.4856 -0.1310 -0.9794
  516TIP3   OH223038   2.414   4.426  15.418  0.3864 -0.0222 -0.1917
  516TIP3    H123039   2.410   4.347  15.473  1.6162 -1.6324 -2.2386
  516TIP3    H223040   2.494   4.470  15.446  0.7610 -0.5886 -0.3452
  517TIP3   OH223041   6.729   1.464   6.103 -0.1676 -0.1043  0.1993
  517TIP3    H123042   6.762   1.504   6.023  2.7421 -0.4448  1.1366
  517TIP3    H223043   6.683   1.535   6.148 -0.6326  0.4438 -1.0897
  518TIP3   OH223044   1.043   5.047  13.442 -0.6681  0.1296 -0.0142
  518TIP3    H123045   1.056   4.980  13.509  1.2732  1.3476  0.9270
  518TIP3    H223046   1.036   5.129  13.492 -0.2471  0.9457 -1.2630
  519TIP3   OH223047   2.446   2.314   0.212 -0.4168 -0.0887  0.3892
  519TIP3    H123048   2.505   2.245   0.241 -0.7391 -0.5220  0.0269
  519TIP3    H223049   2.435   2.298   0.118 -0.2227  0.6575  0.2310
  520TIP3   OH223050   5.488   3.309  10.892 -0.1301 -0.0063  0.4971
  520TIP3    H123051   5.538   3.381  10.931 -0.0832  0.9166 -1.1915
  520TIP3    H223052   5.400   3.345  10.879 -1.0816 -1.3462  2.6569
  521TIP3   OH223053   6.457   0.999   3.127  0.3449  0.4091 -0.2175
  521TIP3    H123054   6.405   1.070   3.162  1.1767  0.8311  0.1819
  521TIP3    H223055   6.460   0.934   3.197 -1.3423 -0.5521 -0.9689
  522TIP3   OH223056   2.821   4.776  16.451 -0.9433  0.7233 -0.1526
  522TIP3    H123057   2.741   4.821  16.478 -1.5513  1.8759 -3.4935
  522TIP3    H223058   2.861   4.834  16.386  2.1266 -0.3065  0.6284
  523TIP3   OH223059   2.673   5.761  16.373  0.2662  0.2306 -0.5577
  523TIP3    H123060   2.726   5.697  16.420 -0.8528  0.5458  1.2291
  523TIP3    H223061   2.727   5.840  16.371  0.9088 -0.2123 -1.1357
  524TIP3   OH223062   3.069   1.243  16.126  0.7465  0.3583 -0.7103
  524TIP3    H123063   3.099   1.232  16.036  2.4233 -2.0254  0.0460
  524TIP3    H223064   3.131   1.304  16.166 -0.1338  1.6013 -1.1670
  525TIP3   OH223065   5.478   3.104   5.366  0.3112 -0.4880 -0.0574
  525TIP3    H123066   5.419   3.088   5.292 -0.9851 -1.6691  1.1784
  525TIP3    H223067   5.515   3.018   5.385  1.9996  0.1305 -0.4133
  526TIP3   OH223068   0.942   6.567  12.621  0.5662  0.3762  0.2457
  526TIP3    H123069   0.854   6.547  12.652  0.0137  3.6744  1.2397
  526TIP3    H223070   0.946   6.529  12.533 -1.1444 -1.3959  0.8688
  527TIP3   OH223071   1.480   4.529   2.881  0.7328  0.0481 -0.0358
  527TIP3    H123072   1.450   4.579   2.805  1.8828 -1.1067 -1.2993
  527TIP3    H223073   1.399   4.505   2.927 -0.0407  0.1004 -1.3204
  528TIP3   OH223074   1.116   4.147  12.870 -0.2029 -0.1997 -0.4505
  528TIP3    H123075   1.129   4.122  12.962  0.4383  2.5791  0.3261
  528TIP3    H223076   1.032   4.108  12.846 -1.6892  1.0703  2.2008
  529TIP3   OH223077   0.778   4.118  13.339  0.3779  0.1462  0.2140
  529TIP3    H123078   0.763   4.210  13.314 -0.4362  0.3809  1.4868
  529TIP3    H223079   0.692   4.087  13.366  0.5961 -1.0923 -0.4312
  530TIP3   OH223080   5.533   0.424   4.089  0.3038 -0.2627  0.3642
  530TIP3    H123081   5.573   0.426   4.176  2.3248 -0.9408 -0.4738
  530TIP3    H223082   5.603   0.393   4.031 -1.0242 -0.0098 -1.4888
  531TIP3   OH223083   6.527   0.010  13.569 -0.3290 -0.0904 -0.0697
  531TIP3    H123084   6.580   0.074  13.524 -0.9054  0.0455 -0.5710
  531TIP3    H223085   6.566  -0.075  13.547  1.0701  0.1206  1.4378
  532TIP3   OH223086   1.888   3.001  11.393 -0.1475 -0.5201 -0.2204
  532TIP3    H123087   1.892   3.089  11.354  0.2963 -0.5808 -0.3233
  532TIP3    H223088   1.939   3.009  11.474  0.6197 -0.8949 -0.6591
  533TIP3   OH223089   6.211   2.334  12.256  0.2905 -0.2026 -0.0403
  533TIP3    H123090   6.228   2.426  12.237  1.7369 -0.6646 -1.2107
  533TIP3    H223091   6.247   2.321  12.344  0.8624  0.1666 -0.2093
  534TIP3   OH223092   5.468   4.884   1.927 -0.6174 -0.1929 -0.1619
  534TIP3    H123093   5.557   4.917   1.928 -1.1691  1.5191 -1.9964
  534TIP3    H223094   5.431   4.911   2.012 -0.3778  2.1204 -0.7296
  535TIP3   OH223095   6.745   4.715   2.593  0.0067 -0.1967 -0.2338
  535TIP3    H123096   6.742   4.781   2.663 -0.8840 -0.6682  0.1834
  535TIP3    H223097   6.677   4.744   2.531  0.9484  0.3484 -1.0360
  536TIP3   OH223098   4.304   1.421   0.904 -0.0011  0.0320 -0.1788
  536TIP3    H123099   4.334   1.467   0.825  0.4623 -0.1349 -0.1069
  536TIP3    H223100   4.303   1.329   0.878  0.5397 -0.0642  0.1226
  537TIP3   OH223101   5.795   3.358  12.334  0.8302 -0.1520  0.2660
  537TIP3    H123102   5.728   3.301  12.371  0.9162 -0.4008  0.0419
  537TIP3    H223103   5.757   3.391  12.253  0.0875  1.4976  1.2436
  538TIP3   OH223104   0.878   3.365  13.027 -0.5031 -0.1785  0.5881
  538TIP3    H123105   0.824   3.354  12.948 -0.6134  0.3770  0.5779
  538TIP3    H223106   0.844   3.445  13.068 -1.2758 -1.1114  1.8663
  539TIP3   OH223107   6.256   1.706  11.140  0.0943  0.1192  0.1936
  539TIP3    H123108   6.300   1.789  11.158  0.3220 -0.4028  2.3100
  539TIP3    H223109   6.249   1.663  11.226 -1.8925 -1.1273 -0.5142
  540TIP3   OH223110   2.533   5.273   2.350 -0.4226 -0.1502  0.0005
  540TIP3    H123111   2.571   5.288   2.437 -1.9616 -0.2578  0.7302
  540TIP3    H223112   2.517   5.179   2.347  1.5443 -0.5065 -1.2775
  541TIP3   OH223113   6.317   3.296   2.557 -0.1411 -0.7042 -0.1369
  541TIP3    H123114   6.232   3.308   2.600  0.3689 -0.8604  0.9463
  541TIP3    H223115   6.309   3.213   2.510 -0.9360 -0.1977 -0.9284
  542TIP3   OH223116   3.186   1.786   1.814  0.5586 -0.1154 -0.3405
  542TIP3    H123117   3.128   1.856   1.844  0.4664 -0.3924  0.1359
  542TIP3    H223118   3.127   1.721   1.776  0.6811  0.2700 -1.2135
  543TIP3   OH223119   6.671   4.052  15.544  0.0668 -0.0627 -0.0069
  543TIP3    H123120   6.679   3.994  15.620  1.3262 -1.2707 -1.0002
  543TIP3    H223121   6.673   3.993  15.468 -1.0036  1.1227 -1.0020
  544TIP3   OH223122   0.961   1.390   0.705  0.5437  0.2340 -0.1083
  544TIP3    H123123   0.969   1.342   0.622 -1.2492 -0.6409  0.1673
  544TIP3    H223124   0.974   1.323   0.772 -0.5895  0.3885  0.2857
  545TIP3   OH223125   4.418   4.043  12.080  0.0271  0.6450  0.0997
  545TIP3    H123126   4.456   3.978  12.021 -0.0746 -0.0372  0.7703
  545TIP3    H223127   4.379   4.108  12.022 -0.2367 -0.1075 -0.5850
  546TIP3   OH223128   1.423   4.036   5.217 -0.4713 -0.1876  0.6689
  546TIP3    H123129   1.465   4.122   5.218 -0.3968 -0.2115  2.6767
  546TIP3    H223130   1.472   3.987   5.151 -0.5256  1.2795 -0.5230
  547TIP3   OH223131   0.094   6.621  14.717 -0.2471  0.4494  0.9864
  547TIP3    H123132   0.178   6.624  14.672 -1.0875  0.4837 -0.6753
  547TIP3    H223133   0.090   6.534  14.757 -0.0957 -0.1877 -0.3404
  548TIP3   OH223134   2.780   1.773   4.376 -0.2320  0.5219  0.3079
  548TIP3    H123135   2.759   1.786   4.284  1.8934  1.0138 -0.1726
  548TIP3    H223136   2.700   1.798   4.423 -0.9388  1.5103 -1.3279
  549TIP3   OH223137   1.237   1.850   3.924  0.3388  0.2939 -0.1289
  549TIP3    H123138   1.267   1.895   3.845  0.9721  0.7234  0.3478
  549TIP3    H223139   1.287   1.769   3.927 -0.3697 -0.1819 -0.6640
  550TIP3   OH223140   3.457   0.275  14.336 -0.7547  0.4114 -0.3720
  550TIP3    H123141   3.442   0.313  14.422 -1.9346 -0.4753 -0.1670
  550TIP3    H223142   3.455   0.181  14.350 -0.7683  0.2556 -1.3342
  551TIP3   OH223143   5.147   5.265  14.880 -0.2602  0.2696 -0.2586
  551TIP3    H123144   5.214   5.245  14.815  0.2616 -1.8064  0.8356
  551TIP3    H223145   5.183   5.233  14.962 -2.4293 -0.6186  0.4156
  552TIP3   OH223146   2.024   1.329  16.923  0.3933  1.2043  0.1820
  552TIP3    H123147   1.997   1.382  16.847 -0.2958  0.2264 -0.2663
  552TIP3    H223148   2.114   1.303  16.902  0.8855  2.4763  0.5795
  553TIP3   OH223149   0.318   2.626   2.368 -0.1711  0.2366  0.2365
  553TIP3    H123150   0.255   2.665   2.429 -0.4783  1.7523 -0.9968
  553TIP3    H223151   0.270   2.620   2.285  0.4961 -1.0427 -0.0791
  554TIP3   OH223152   2.364   3.183   5.509 -0.2424 -0.2258 -0.2218
  554TIP3    H123153   2.314   3.265   5.509  0.7901  0.4194  0.0921
  554TIP3    H223154   2.341   3.141   5.427  0.5117  1.1995 -1.2118
  555TIP3   OH223155   3.376   1.329  14.181  0.0354 -0.0443  0.3520
  555TIP3    H123156   3.282   1.314  14.193 -0.0798 -0.6228 -1.0615
  555TIP3    H223157   3.415   1.242  14.188  0.1891 -0.1272 -1.0999
  556TIP3   OH223158   3.454   1.300  16.978  0.2289 -0.2485 -0.0102
  556TIP3    H123159   3.528   1.239  16.974  0.6555  0.0834  1.8703
  556TIP3    H223160   3.386   1.250  17.023 -1.1342 -0.9105 -2.6205
  557TIP3   OH223161   5.194   4.675  11.089 -0.4211  0.2762  0.1240
  557TIP3    H123162   5.269   4.618  11.069 -1.0953 -0.6560  0.2157
  557TIP3    H223163   5.205   4.749  11.029  1.0013  0.5449  0.6777
  558TIP3   OH223164   4.964   3.905   1.816  0.2693  0.5417  0.6683
  558TIP3    H123165   5.046   3.943   1.844  0.3115  0.3323  0.8300
  558TIP3    H223166   4.978   3.881   1.724  0.5055  0.1846  0.7952
  559TIP3   OH223167   5.928   6.646  16.809 -0.7781 -0.1480  0.3884
  559TIP3    H123168   5.950   6.675  16.897  0.9278 -0.2328  0.0126
  559TIP3    H223169   6.012   6.632  16.766 -1.5770 -0.0338 -1.2903
  560TIP3   OH223170   0.659   1.359  10.820  0.5125  0.0074 -0.0609
  560TIP3    H123171   0.631   1.295  10.754  0.1105  0.3365 -0.2134
  560TIP3    H223172   0.671   1.440  10.771 -1.7770  0.7997  0.5439
  561TIP3   OH223173   1.883   2.229   0.097  0.2986 -0.2998  1.1435
  561TIP3    H123174   1.892   2.148   0.047 -0.6886  0.2782 -0.0343
  561TIP3    H223175   1.946   2.289   0.057  0.3407 -0.1981  1.3654
  562TIP3   OH223176   6.658   2.768   3.329  0.1464 -0.3077 -0.6275
  562TIP3    H123177   6.646   2.846   3.274  0.9579  0.6602  0.5205
  562TIP3    H223178   6.720   2.796   3.397  1.5826 -2.3632 -0.9980
  563TIP3   OH223179   0.452   1.854   2.504 -0.7329 -0.3521 -0.3070
  563TIP3    H123180   0.364   1.869   2.540 -0.3023 -0.3463  0.7850
  563TIP3    H223181   0.509   1.852   2.581  0.4742  1.2985 -1.1024
  564TIP3   OH223182   1.706   1.673   0.535 -0.2148  0.2090  0.4581
  564TIP3    H123183   1.745   1.594   0.572 -0.9341 -0.1502  0.4668
  564TIP3    H223184   1.715   1.739   0.604  1.2606  0.4200  0.0891
  565TIP3   OH223185   2.727   1.079   0.169 -0.2739  0.4008  0.4069
  565TIP3    H123186   2.747   0.997   0.125 -0.3866 -1.4178  3.4514
  565TIP3    H223187   2.812   1.116   0.191 -0.1394  2.3905 -2.8794
  566TIP3   OH223188   4.586   6.288   0.895  0.2874 -0.1352  0.3539
  566TIP3    H123189   4.643   6.359   0.923 -0.0028  0.3414 -0.2559
  566TIP3    H223190   4.645   6.222   0.857  0.5710 -0.3074  1.0765
  567TIP3   OH223191   4.221   0.103   1.281 -0.1917 -0.4657  1.0077
  567TIP3    H123192   4.162   0.039   1.319 -0.1655 -2.1197 -1.5270
  567TIP3    H223193   4.286   0.051   1.234 -1.2906  1.2750 -2.8422
  568TIP3   OH223194   6.645   6.551  12.804  0.3399 -0.1566  0.5201
  568TIP3    H123195   6.671   6.572  12.894 -0.3485  0.0371  0.6801
  568TIP3    H223196   6.633   6.456  12.803  1.1418 -0.2612  0.4170
  569TIP3   OH223197   2.948   3.468  15.755  0.1220  0.4993  0.1853
  569TIP3    H123198   3.037   3.458  15.791 -0.6592 -1.2544  1.7785
  569TIP3    H223199   2.908   3.535  15.811 -0.0136  0.2374  0.4030
  570TIP3   OH223200   4.241   2.174   0.881 -0.1409  0.8845 -0.9312
  570TIP3    H123201   4.246   2.180   0.785  2.4991 -0.1963 -0.9614
  570TIP3    H223202   4.200   2.089   0.897  1.1690  0.1865 -1.1689
  571TIP3   OH223203   6.684   1.897   3.145 -0.4119  0.2364 -0.4407
  571TIP3    H123204   6.670   1.859   3.232 -2.0299  0.0755 -0.7369
  571TIP3    H223205   6.631   1.977   3.145 -0.7327  0.0380 -1.3897
  572TIP3   OH223206   4.078   3.572   2.826 -0.3736 -0.2943 -0.3430
  572TIP3    H123207   3.990   3.558   2.789 -1.1105  1.3147  0.6845
  572TIP3    H223208   4.113   3.645   2.775  0.0870 -0.4632 -0.2688
  573TIP3   OH223209   2.381   5.796   3.811  0.0028  0.1899 -0.5285
  573TIP3    H123210   2.352   5.789   3.720  0.1629 -0.1136 -0.5582
  573TIP3    H223211   2.328   5.866   3.848  0.2969  0.6769 -1.0018
  574TIP3   OH223212   5.053   0.295   5.486 -0.1340  0.1304  0.4443
  574TIP3    H123213   5.129   0.335   5.529  0.3186 -2.0394  1.7719
  574TIP3    H223214   5.058   0.203   5.509 -1.8013 -0.5275 -1.5326
  575TIP3   OH223215   4.467   4.606   0.756  0.2212 -0.3211 -0.0382
  575TIP3    H123216   4.559   4.615   0.781 -0.0362  1.0083  0.5090
  575TIP3    H223217   4.435   4.531   0.806  0.9213 -0.5987  0.0019
  576TIP3   OH223218   4.024   4.669   2.134 -0.3968  0.0453 -0.3041
  576TIP3    H123219   3.988   4.584   2.108 -0.0072 -0.6521  1.3071
  576TIP3    H223220   4.114   4.668   2.100  0.0890 -0.8289  0.9389
  577TIP3   OH223221   5.347   2.238   0.575 -0.2936  0.2098 -0.0036
  577TIP3    H123222   5.362   2.155   0.530  0.7153 -0.4066  1.3918
  577TIP3    H223223   5.339   2.303   0.505 -2.7753 -1.2662 -1.1830
  578TIP3   OH223224   0.910   2.265   5.195  0.3559 -0.4418 -0.5821
  578TIP3    H123225   0.894   2.351   5.232 -0.6748 -0.7948 -0.1663
  578TIP3    H223226   0.966   2.281   5.119 -1.0070  0.7552 -1.3849
  579TIP3   OH223227   4.319   5.030  11.426  0.0483  0.2005 -0.0706
  579TIP3    H123228   4.263   4.978  11.484  2.3429  0.4450  2.5778
  579TIP3    H223229   4.391   4.971  11.405  0.5902  1.0009 -0.4708
  580TIP3   OH223230   5.408   3.349   1.856  0.2866 -0.6453  0.1029
  580TIP3    H123231   5.360   3.376   1.934  0.0529 -1.0078  0.0860
  580TIP3    H223232   5.491   3.316   1.889  1.1962  1.4111  0.0333
  581TIP3   OH223233   2.171   5.930   0.866  0.2509 -0.0704 -0.1643
  581TIP3    H123234   2.167   5.949   0.960  0.4037 -0.1307 -0.1453
  581TIP3    H223235   2.103   5.865   0.852 -1.5033  1.7524 -0.5429
  582TIP3   OH223236   3.057   2.922  17.095 -0.2707 -0.3246 -0.5667
  582TIP3    H123237   2.992   2.852  17.096  0.1275 -0.7007 -0.0972
  582TIP3    H223238   3.139   2.878  17.072  0.2208 -0.2533  0.8822
  583TIP3   OH223239   1.509   3.647  16.585  0.1836  0.5658  0.8357
  583TIP3    H123240   1.572   3.651  16.513  0.1306  0.0478  0.7572
  583TIP3    H223241   1.486   3.554  16.591  0.0443  0.6354  1.3976
  584TIP3   OH223242   3.799   3.882   5.225 -0.1404  0.7024 -0.4900
  584TIP3    H123243   3.726   3.885   5.287 -0.5370 -1.1110 -0.7928
  584TIP3    H223244   3.793   3.794   5.187  1.8299  0.7531 -0.9822
  585TIP3   OH223245   5.188   0.051  13.726 -0.3548 -0.1847 -0.5140
  585TIP3    H123246   5.161   0.003  13.804  0.7886  0.7028  0.4659
  585TIP3    H223247   5.247   0.119  13.759 -0.2887  0.5617 -2.0926
  586TIP3   OH223248   6.191   0.517  11.023  0.4086  0.2004  0.2510
  586TIP3    H123249   6.257   0.510  10.954 -0.4702  2.4430 -0.9209
  586TIP3    H223250   6.239   0.553  11.098  1.5501 -2.9980  1.2166
  587TIP3   OH223251   0.845   3.435  10.306  0.7143 -1.3614  0.3053
  587TIP3    H123252   0.805   3.379  10.372  0.0323  0.6384  1.6867
  587TIP3    H223253   0.907   3.489  10.355  1.1174 -0.6892 -0.9031
  588TIP3   OH223254   5.664   4.805  13.013  0.6326 -0.3906 -0.1090
  588TIP3    H123255   5.619   4.744  13.071 -0.6269  0.5729 -0.0312
  588TIP3    H223256   5.757   4.788  13.027  0.4023  0.2213  2.6839
  589TIP3   OH223257   6.496   3.158   3.342 -0.3182 -0.2393 -0.0962
  589TIP3    H123258   6.546   3.145   3.422 -1.5308  1.7120  1.0646
  589TIP3    H223259   6.561   3.186   3.277  0.3700  0.3533  0.8350
  590TIP3   OH223260   0.734   6.691  15.606 -0.0796  0.3882 -0.0688
  590TIP3    H123261   0.801   6.622  15.602  2.1478  2.2851  1.6348
  590TIP3    H223262   0.673   6.662  15.673  1.3496  0.4137  1.3081
  591TIP3   OH223263   2.057   0.845   2.401 -0.1071 -0.4781 -0.5750
  591TIP3    H123264   2.013   0.849   2.316 -0.0173 -0.4829 -0.6215
  591TIP3    H223265   1.989   0.815   2.462 -1.1549  2.6079 -0.0030
  592TIP3   OH223266   1.802   4.359  16.503  0.3009  0.2973  0.2046
  592TIP3    H123267   1.857   4.318  16.569  2.5462 -0.7123 -2.1402
  592TIP3    H223268   1.716   4.369  16.545  1.3652 -1.1693  2.8808
  593TIP3   OH223269   4.531   4.549  14.921  0.8483 -0.2772  0.0984
  593TIP3    H123270   4.502   4.458  14.929 -0.4393  0.2084  1.6808
  593TIP3    H223271   4.594   4.549  14.850  0.1167 -2.2249 -0.6008
  594TIP3   OH223272   6.799   1.867   1.910  0.0627  0.3573 -0.0062
  594TIP3    H123273   6.730   1.811   1.944  0.2350  0.2922  0.2377
  594TIP3    H223274   6.831   1.822   1.831  0.4318 -0.0622  0.3751
  595TIP3   OH223275   1.734   6.144   4.730  0.1765 -0.9675  0.0770
  595TIP3    H123276   1.721   6.119   4.821 -0.1898 -0.4389  0.1699
  595TIP3    H223277   1.825   6.120   4.712  0.8460  0.5799  1.1265
  596TIP3   OH223278   5.322   1.497   1.778  0.0415  0.0624 -0.3835
  596TIP3    H123279   5.336   1.402   1.784 -1.8308 -0.2231  0.1215
  596TIP3    H223280   5.312   1.524   1.870  2.5479  1.1499 -0.3357
  597TIP3   OH223281   6.618   0.552  13.602  0.0865  0.5012  0.2451
  597TIP3    H123282   6.664   0.621  13.553 -0.4495  2.3980  2.2188
  597TIP3    H223283   6.562   0.600  13.663 -1.3150 -1.7393  0.8396
  598TIP3   OH223284   3.481   2.267  15.017 -0.2571  0.2477  0.5040
  598TIP3    H123285   3.521   2.244  15.102  0.9726 -1.3965 -0.4583
  598TIP3    H223286   3.536   2.337  14.983  0.8189 -0.8172 -0.0279
  599TIP3   OH223287   1.442   4.198   0.679  0.4363 -0.7103  0.1294
  599TIP3    H123288   1.369   4.145   0.647 -0.8464  1.2590 -0.3856
  599TIP3    H223289   1.456   4.167   0.769 -0.5014 -1.6645 -0.0349
  600TIP3   OH223290   3.306   0.407   2.299 -0.5484  0.0040 -0.0408
  600TIP3    H123291   3.246   0.443   2.234 -1.1714 -1.1378 -0.1110
  600TIP3    H223292   3.362   0.346   2.250  0.1807  0.4913  0.1650
  601TIP3   OH223293   2.803   2.778  11.933  0.6454 -0.3243  0.3009
  601TIP3    H123294   2.786   2.868  11.960 -0.3826 -0.5248  0.3555
  601TIP3    H223295   2.784   2.776  11.840  0.2534 -0.5817  0.3832
  602TIP3   OH223296   0.406   5.076  12.926  0.1777  0.7815 -0.3211
  602TIP3    H123297   0.491   5.112  12.901  0.3392 -0.1714 -1.2149
  602TIP3    H223298   0.427   5.003  12.984 -0.1294  1.7455  1.0574
  603TIP3   OH223299   1.406   2.778  12.985  0.1821  0.2592 -0.0342
  603TIP3    H123300   1.366   2.751  13.068 -1.6503 -0.4153 -1.0754
  603TIP3    H223301   1.341   2.756  12.919  1.0067  2.0481 -1.5405
  604TIP3   OH223302   5.497   3.296  13.938  0.2067  0.2567  0.1006
  604TIP3    H123303   5.416   3.328  13.976 -0.4910  0.2574 -1.3074
  604TIP3    H223304   5.476   3.207  13.908  0.3038  0.7353 -1.4624
  605TIP3   OH223305   6.797   5.417  12.126 -0.1355  0.6107  0.4589
  605TIP3    H123306   6.719   5.466  12.100 -0.2588  0.7010  0.9760
  605TIP3    H223307   6.847   5.479  12.180  1.1746  1.1671 -1.2797
  606TIP3   OH223308   6.158   2.145  12.982 -0.0865  0.0969 -0.4663
  606TIP3    H123309   6.168   2.208  13.054  1.2304 -0.8078  0.1846
  606TIP3    H223310   6.169   2.197  12.903 -1.1627  1.0459 -0.0283
  607TIP3   OH223311   1.712   3.272   0.266 -0.0581 -0.6895 -0.5321
  607TIP3    H123312   1.719   3.304   0.176 -3.0657 -0.1431 -0.6980
  607TIP3    H223313   1.628   3.306   0.297  1.3386  0.0726  2.9179
  608TIP3   OH223314   5.895   6.495  14.059  0.1187  0.1274  0.4789
  608TIP3    H123315   5.886   6.406  14.024 -0.6769 -0.0756  1.1693
  608TIP3    H223316   5.815   6.540  14.031  1.1405  1.0552 -1.0437
  609TIP3   OH223317   2.280   5.951  14.207 -0.2700  0.4578 -0.1230
  609TIP3    H123318   2.235   5.900  14.140 -0.4475 -0.7467  0.8674
  609TIP3    H223319   2.372   5.923  14.201 -0.5380 -0.8075  1.0948
  610TIP3   OH223320   0.501   1.719   6.405  0.6460 -0.8448 -0.4093
  610TIP3    H123321   0.473   1.644   6.352  0.8258  0.5243 -2.5921
  610TIP3    H223322   0.432   1.785   6.391  1.5355  0.1427 -0.2819
  611TIP3   OH223323   4.595   5.945  16.754  0.2966  0.2796  0.7994
  611TIP3    H123324   4.640   5.873  16.798 -0.8947 -1.3054 -0.4240
  611TIP3    H223325   4.515   5.959  16.805 -1.4974 -2.1163 -1.1097
  612TIP3   OH223326   1.532   3.205   1.032 -0.1426  0.2188  0.4667
  612TIP3    H123327   1.442   3.196   1.002 -0.0443  0.0415  0.2142
  612TIP3    H223328   1.533   3.284   1.086 -0.6103 -0.1900  1.0891
  613TIP3   OH223329   5.863   5.025  11.136 -0.3165  0.2379 -0.0484
  613TIP3    H123330   5.888   4.981  11.055  1.6524  2.6301 -0.8407
  613TIP3    H223331   5.770   5.044  11.125  0.2120  1.8557 -2.4790
  614TIP3   OH223332   3.413   5.464  15.311  0.3704 -0.5386 -0.1903
  614TIP3    H123333   3.445   5.408  15.381 -1.0253  0.5393  1.3772
  614TIP3    H223334   3.402   5.405  15.236 -0.4824 -2.2415  1.2184
  615TIP3   OH223335   5.811   4.472  15.844  0.1468 -0.4517  0.4834
  615TIP3    H123336   5.877   4.528  15.885 -1.7667  1.0192  1.7251
  615TIP3    H223337   5.809   4.393  15.899 -0.8351  0.5717  1.9938
  616TIP3   OH223338   2.877   3.267   2.453 -0.1749 -0.0240 -0.0894
  616TIP3    H123339   2.859   3.267   2.547 -2.7472 -1.0286 -0.5045
  616TIP3    H223340   2.831   3.344   2.420 -1.5057 -1.0781 -0.8138
  617TIP3   OH223341   6.523   3.609  12.717  0.2535 -0.1642 -0.3543
  617TIP3    H123342   6.502   3.695  12.755  1.0663  0.8194 -2.0244
  617TIP3    H223343   6.557   3.629  12.630  2.0015 -2.0667 -0.1872
  618TIP3   OH223344   5.837   1.106  13.745  0.8354  0.5194 -0.6336
  618TIP3    H123345   5.852   1.023  13.789  0.4448  0.6673 -0.2207
  618TIP3    H223346   5.769   1.087  13.681  1.2334  0.3626 -1.0201
  619TIP3   OH223347   3.301   3.101   3.873  0.3097  0.5978 -0.1237
  619TIP3    H123348   3.304   3.109   3.969 -1.1528  1.5368 -0.1234
  619TIP3    H223349   3.346   3.179   3.841  0.3145  0.5659 -0.1945
  620TIP3   OH223350   4.234   0.310   4.051 -0.2431  0.5465  0.1020
  620TIP3    H123351   4.300   0.244   4.072 -1.6422 -0.3374  2.1045
  620TIP3    H223352   4.185   0.273   3.978  0.2318  0.2987 -0.0949
  621TIP3   OH223353   0.597   2.039   2.290 -0.0482 -0.4396  0.0512
  621TIP3    H123354   0.602   1.975   2.219 -1.2770 -1.2888  0.6909
  621TIP3    H223355   0.582   1.986   2.369 -1.3447  0.6393  0.5667
  622TIP3   OH223356   1.713   3.571   4.194 -0.0275  0.1641  0.2603
  622TIP3    H123357   1.735   3.660   4.168 -1.4908  0.6347  0.5298
  622TIP3    H223358   1.795   3.522   4.187  0.7799  1.5161  0.0600
  623TIP3   OH223359   6.114   5.368  16.252  0.3443 -0.5444 -0.0585
  623TIP3    H123360   6.116   5.384  16.346 -1.1825  0.6272 -0.1853
  623TIP3    H223361   6.184   5.304  16.237  4.0135  2.7267  1.1636
  624TIP3   OH223362   4.798   1.067  12.485  0.3474  0.5415 -0.0832
  624TIP3    H123363   4.798   1.154  12.524 -0.0555  0.0955  0.9426
  624TIP3    H223364   4.865   1.019  12.534 -0.0562  0.0112 -0.0478
  625TIP3   OH223365   3.759   0.751  16.773  0.3449  0.3175  0.2504
  625TIP3    H123366   3.779   0.657  16.780  0.5253  0.4157  1.1616
  625TIP3    H223367   3.749   0.780  16.863  1.5928  1.4618  0.0438
  626TIP3   OH223368   4.098   6.245  13.263 -0.2233 -0.6034 -0.7882
  626TIP3    H123369   4.080   6.195  13.183 -0.5572 -2.1112  0.1835
  626TIP3    H223370   4.033   6.315  13.263  0.8926  0.5049 -2.6858
  627TIP3   OH223371   1.919   1.486   4.965 -0.2699 -0.0735  0.1956
  627TIP3    H123372   1.914   1.411   5.025 -1.4294 -0.0121  0.1970
  627TIP3    H223373   1.865   1.553   5.006  0.0181  0.4476 -0.2629
  628TIP3   OH223374   1.394   5.497   6.787 -0.5465 -0.0443  0.1226
  628TIP3    H123375   1.429   5.418   6.827  0.7184  1.8365  3.1108
  628TIP3    H223376   1.464   5.530   6.731 -0.6029 -0.3975 -0.1537
  629TIP3   OH223377   0.947   4.874  15.287 -0.4077 -0.5765 -0.3908
  629TIP3    H123378   1.027   4.924  15.300 -0.9685  0.5798 -1.2342
  629TIP3    H223379   0.976   4.793  15.245  0.4035 -0.5402  0.0847
  630TIP3   OH223380   5.533   4.234   2.458  0.0345  0.3883  0.1559
  630TIP3    H123381   5.556   4.327   2.451  1.6933  0.0573  0.7156
  630TIP3    H223382   5.611   4.193   2.495 -0.5310 -1.3054 -0.4405
  631TIP3   OH223383   2.593   6.221  15.838  0.3045  0.4336 -0.0273
  631TIP3    H123384   2.534   6.262  15.775 -1.4491  0.5503  1.5988
  631TIP3    H223385   2.673   6.204  15.788 -1.1831 -0.0415 -2.4444
  632TIP3   OH223386   5.057   1.511  17.113  0.4904  0.1645 -0.0874
  632TIP3    H123387   4.990   1.480  17.174 -1.2926 -0.1850 -2.0795
  632TIP3    H223388   5.013   1.577  17.060  1.4949 -0.4965 -1.8753
  633TIP3   OH223389   6.777   2.367   3.012  0.3347 -0.4314  0.2072
  633TIP3    H123390   6.772   2.355   2.917  1.2014  1.4753 -0.1473
  633TIP3    H223391   6.692   2.404   3.036  0.9415  1.4248 -0.2989
  634TIP3   OH223392   6.160   3.006  12.014 -0.3821  0.9475  0.0566
  634TIP3    H123393   6.066   3.019  12.002 -0.2821  1.3970 -0.2593
  634TIP3    H223394   6.166   2.930  12.071 -0.9201  0.1028 -0.9751
  635TIP3   OH223395   4.242   6.226  16.223  0.0701  0.4748  0.1312
  635TIP3    H123396   4.192   6.201  16.301  0.6000  0.3979  0.4514
  635TIP3    H223397   4.333   6.211  16.247  0.2589  0.7316 -0.4042
  636TIP3   OH223398   3.087   0.613   1.783  0.2459  0.2499  0.2008
  636TIP3    H123399   3.089   0.603   1.688 -0.7410  0.9663  0.0915
  636TIP3    H223400   3.002   0.576   1.809  1.9048 -3.3413  1.2668
  637TIP3   OH223401   6.681   1.307   1.419 -0.0496  0.2900 -0.1546
  637TIP3    H123402   6.723   1.341   1.340 -1.1378  1.4598 -0.2512
  637TIP3    H223403   6.597   1.272   1.389 -0.1221 -0.0014  0.3730
  638TIP3   OH223404   3.293   4.119  11.402  0.4442 -0.1136 -0.3897
  638TIP3    H123405   3.362   4.053  11.396 -1.3122 -1.9414 -1.5905
  638TIP3    H223406   3.237   4.102  11.327 -1.9197  0.5656  1.1287
  639TIP3   OH223407   5.790   2.585   3.175 -0.6940  0.2074 -0.0994
  639TIP3    H123408   5.826   2.627   3.097  0.3658 -1.0496 -0.3103
  639TIP3    H223409   5.786   2.654   3.240 -0.8618  1.0898 -1.0214
  640TIP3   OH223410   6.090   0.931  12.681  0.2838  0.1347 -0.2770
  640TIP3    H123411   6.127   0.862  12.735  0.6337  0.5538  0.0268
  640TIP3    H223412   6.101   0.901  12.591 -0.5416 -0.6869 -0.1128
  641TIP3   OH223413   1.433   5.639   1.600 -0.7596 -0.2588 -0.2344
  641TIP3    H123414   1.462   5.610   1.513 -2.8581  1.3859 -1.5956
  641TIP3    H223415   1.509   5.684   1.637 -0.2121  0.1672 -1.7903
  642TIP3   OH223416   0.768   2.341  11.090  0.0614 -0.0046  0.1925
  642TIP3    H123417   0.682   2.382  11.092  0.2149  0.3141  0.5830
  642TIP3    H223418   0.751   2.248  11.072 -0.2159  0.4030 -1.7647
  643TIP3   OH223419   1.331   3.407   2.769  0.1171 -0.1820  0.0733
  643TIP3    H123420   1.336   3.490   2.817  0.1929 -1.0805  1.7131
  643TIP3    H223421   1.389   3.348   2.818 -0.6622 -1.4567 -0.4953
  644TIP3   OH223422   4.669   1.601  16.095  0.1902  0.1773  0.2509
  644TIP3    H123423   4.670   1.676  16.154  2.4755  0.3131  0.1401
  644TIP3    H223424   4.608   1.539  16.136 -0.8713  1.6204  0.9244
  645TIP3   OH223425   4.332   2.589  15.919  0.3696 -0.3649 -0.1816
  645TIP3    H123426   4.285   2.555  15.843 -1.6573 -1.0525  1.3087
  645TIP3    H223427   4.311   2.529  15.990 -0.4202  1.9303  1.6886
  646TIP3   OH223428   6.791   2.029  16.270 -0.9917  0.6225  0.4910
  646TIP3    H123429   6.729   1.964  16.303 -3.2430  3.1240  1.5573
  646TIP3    H223430   6.759   2.052  16.183 -1.3357  1.5728  0.8499
  647TIP3   OH223431   1.283   4.310  14.852 -0.0364 -0.3114 -0.3437
  647TIP3    H123432   1.336   4.389  14.844  0.1223 -0.4284 -0.4747
  647TIP3    H223433   1.264   4.303  14.946 -2.3321  1.3561 -0.5892
  648TIP3   OH223434   6.608   5.503   0.658  0.1463  0.3827 -0.2428
  648TIP3    H123435   6.626   5.537   0.570 -0.1983  0.4015 -0.3079
  648TIP3    H223436   6.690   5.461   0.685 -0.1323 -0.7438 -1.0863
  649TIP3   OH223437   6.331   2.054  12.389  0.3297  0.4489 -0.1944
  649TIP3    H123438   6.258   1.998  12.416 -0.9962  1.4596 -1.4808
  649TIP3    H223439   6.406   1.995  12.386 -0.7201 -0.9684 -0.1976
  650TIP3   OH223440   1.086   6.473   3.694 -0.2405 -0.2156  0.1377
  650TIP3    H123441   1.094   6.497   3.786 -0.6734 -3.7189  1.2144
  650TIP3    H223442   1.003   6.511   3.667 -1.5917 -1.5743  2.1140
  651TIP3   OH223443   2.662   3.575  15.266  0.2597 -0.6450  0.2346
  651TIP3    H123444   2.709   3.492  15.262  0.5023 -0.4974 -0.0495
  651TIP3    H223445   2.731   3.642  15.265  0.2493 -0.4465  3.0794
  652TIP3   OH223446   3.667   2.251   2.596 -0.6206 -0.3855  0.1123
  652TIP3    H123447   3.723   2.277   2.524  0.6654  1.4983  1.7014
  652TIP3    H223448   3.578   2.270   2.565 -0.0751  0.7542 -0.8319
  653TIP3   OH223449   3.025   3.081   3.466  0.5742 -0.3334  0.7438
  653TIP3    H123450   2.970   3.023   3.414 -1.4186 -0.7008  3.0618
  653TIP3    H223451   3.067   3.023   3.530 -0.3056  0.5138  2.1537
  654TIP3   OH223452   0.567   6.267   3.755  0.3275 -0.3484 -0.7910
  654TIP3    H123453   0.631   6.276   3.684  0.2251  0.4677 -0.7914
  654TIP3    H223454   0.520   6.350   3.755 -0.9766 -1.0698 -1.0109
  655TIP3   OH223455   3.527   5.524  14.412 -0.4029  0.5341 -0.1372
  655TIP3    H123456   3.528   5.604  14.465  1.3852  1.0255 -0.8330
  655TIP3    H223457   3.471   5.545  14.337 -1.9497  0.2522  0.8911
  656TIP3   OH223458   3.015   3.738  12.338  0.2466 -0.5009  0.9661
  656TIP3    H123459   2.939   3.796  12.340 -0.9939 -1.9703 -0.8830
  656TIP3    H223460   3.084   3.790  12.296 -0.8176 -0.2764 -0.5815
  657TIP3   OH223461   1.140   1.771  13.032 -0.0188 -0.2301  0.2536
  657TIP3    H123462   1.099   1.835  12.974 -0.6731 -0.2321  0.7039
  657TIP3    H223463   1.121   1.687  12.991 -1.7064 -0.3369  1.1811
  658TIP3   OH223464   6.384   4.638   6.023 -0.0897  0.1419 -0.2274
  658TIP3    H123465   6.467   4.668   6.061  0.3508 -1.0066 -0.2286
  658TIP3    H223466   6.366   4.701   5.953  0.1691  1.0709  0.5239
  659TIP3   OH223467   6.676   3.232   2.195 -0.0176 -0.3185  0.0686
  659TIP3    H123468   6.756   3.215   2.146  0.6753 -0.7918  1.3229
  659TIP3    H223469   6.666   3.327   2.193  1.6936 -0.0564  1.5636
  660TIP3   OH223470   0.857   1.895  11.114 -0.7332  0.2294  0.0268
  660TIP3    H123471   0.869   1.902  11.208  1.6160  0.5076 -0.2437
  660TIP3    H223472   0.856   1.801  11.097 -1.0153  0.1809  0.3063
  661TIP3   OH223473   4.506   6.251  16.337  0.1841 -0.3983 -0.4105
  661TIP3    H123474   4.552   6.289  16.263 -0.0143 -0.7299 -0.7081
  661TIP3    H223475   4.550   6.167  16.353  1.6022  0.5962  1.1979
  662TIP3   OH223476   0.422   2.934  14.120  0.0180 -0.1168  0.1815
  662TIP3    H123477   0.407   2.871  14.191  1.8888 -3.5393 -2.1395
  662TIP3    H223478   0.507   2.972  14.139  1.1595 -2.0486 -0.7581
  663TIP3   OH223479   5.321   2.909  15.435  0.0102 -0.9066  0.4954
  663TIP3    H123480   5.300   2.817  15.416  1.4761 -1.5442  1.6898
  663TIP3    H223481   5.416   2.908  15.449  0.3868  1.1800 -1.5026
  664TIP3   OH223482   2.066   1.681   5.351  0.0585 -0.0953  0.8453
  664TIP3    H123483   1.977   1.707   5.327 -0.3609 -1.9138  0.2505
  664TIP3    H223484   2.115   1.762   5.351 -1.4253  0.8517  0.3857
  665TIP3   OH223485   0.118   0.858   1.328  0.0705 -0.4372 -0.1869
  665TIP3    H123486   0.025   0.877   1.319  0.0757 -0.7251 -0.9466
  665TIP3    H223487   0.161   0.919   1.268  0.3248 -0.6995 -0.2729
  666TIP3   OH223488   1.911   3.695  10.802 -0.3733  0.4058 -0.2637
  666TIP3    H123489   1.890   3.601  10.806  1.8217 -0.1218  0.1882
  666TIP3    H223490   1.839   3.737  10.850 -0.3832 -1.2443  1.3171
  667TIP3   OH223491   2.745   2.564  13.750  1.0123  0.3059 -0.3027
  667TIP3    H123492   2.735   2.654  13.781 -2.3612  0.2562 -0.8112
  667TIP3    H223493   2.719   2.510  13.824  0.5661 -0.1158 -0.7563
  668TIP3   OH223494   0.311   6.042   2.043 -0.2923  0.0494 -0.1612
  668TIP3    H123495   0.242   6.104   2.067  0.3854  1.4600 -1.6508
  668TIP3    H223496   0.297   6.027   1.949  1.1860  0.0857 -0.4115
  669TIP3   OH223497   5.379   5.629  15.919 -0.2470 -0.1454  0.5801
  669TIP3    H123498   5.447   5.647  15.854 -0.5578  2.0043  0.8058
  669TIP3    H223499   5.422   5.576  15.986  1.3849  1.6436  1.0004
  670TIP3   OH223500   6.296   4.895   1.172  0.1950 -0.8672  0.2872
  670TIP3    H123501   6.221   4.922   1.225  0.3845 -1.5232  0.9213
  670TIP3    H223502   6.305   4.963   1.106  0.6258  0.5788  1.7627
  671TIP3   OH223503   1.624   3.027  12.671 -0.2976 -0.5161  0.3769
  671TIP3    H123504   1.570   3.078  12.731 -0.6071 -1.3480  0.8190
  671TIP3    H223505   1.641   2.945  12.718 -0.3720 -1.0973 -0.5850
  672TIP3   OH223506   1.413   5.904   0.209  0.3718  0.0218 -0.0913
  672TIP3    H123507   1.400   5.822   0.257 -0.5422  0.4510  0.4253
  672TIP3    H223508   1.490   5.888   0.154 -0.0155 -1.3003 -0.2719
  673TIP3   OH223509   5.868   1.243  17.175  0.9691  0.6633 -0.0290
  673TIP3    H123510   5.809   1.211  17.107  0.9524  1.3887 -0.3609
  673TIP3    H223511   5.938   1.178  17.178  0.1409 -0.2252  0.3970
  674TIP3   OH223512   3.226   5.249   1.801 -0.3001 -0.3438 -0.4165
  674TIP3    H123513   3.251   5.296   1.881 -0.7573 -2.6815  1.2096
  674TIP3    H223514   3.308   5.240   1.752 -0.0505  1.3043 -0.3515
  675TIP3   OH223515   3.613   1.420   4.177 -0.5750  0.0557  0.7703
  675TIP3    H123516   3.580   1.346   4.227  0.5778 -0.3460  0.9637
  675TIP3    H223517   3.556   1.493   4.202 -1.5050 -0.6739  0.8355
  676TIP3   OH223518   0.599   3.825   4.164 -0.3455  0.8053  0.2644
  676TIP3    H123519   0.570   3.882   4.235 -1.5180 -1.0422  1.3723
  676TIP3    H223520   0.674   3.778   4.200 -0.8911 -0.0755  0.2863
  677TIP3   OH223521   4.584   4.731  16.791  0.3210 -0.1865 -0.1087
  677TIP3    H123522   4.656   4.776  16.746  0.3481  0.1247  0.2460
  677TIP3    H223523   4.597   4.639  16.770 -0.1306  0.0178 -1.4209
  678TIP3   OH223524   4.744   5.215  13.110  0.5179 -0.1565 -0.2835
  678TIP3    H123525   4.803   5.223  13.185 -1.2376  0.5063  1.1183
  678TIP3    H223526   4.754   5.297  13.062  0.6742 -0.0061  0.0045
  679TIP3   OH223527   3.261   1.582   6.646 -0.5898 -0.5931  0.1750
  679TIP3    H123528   3.281   1.656   6.703  0.7786  0.8465 -2.0157
  679TIP3    H223529   3.313   1.510   6.680  1.0852  0.5417  0.1488
  680TIP3   OH223530   3.938   2.164  14.359  0.0611  0.3311 -0.7659
  680TIP3    H123531   3.990   2.089  14.387 -1.2436 -0.3876 -0.1633
  680TIP3    H223532   3.978   2.192  14.277  0.1100 -1.5358 -1.4205
  681TIP3   OH223533   4.825   5.753  11.881  0.6207  0.0994  0.4454
  681TIP3    H123534   4.739   5.778  11.848 -0.6431 -2.5011  1.4693
  681TIP3    H223535   4.860   5.693  11.815  0.6214 -0.6221  1.0888
  682TIP3   OH223536   1.779   0.041  15.143  0.6276  0.3359 -0.1211
  682TIP3    H123537   1.684   0.044  15.134  0.4500  0.1133  1.3747
  682TIP3    H223538   1.794   0.048  15.237  1.9336 -2.5916  0.0126
  683TIP3   OH223539   6.600   6.592   0.040  0.2947 -0.3859 -0.4031
  683TIP3    H123540   6.631   6.513  -0.005  3.2794 -0.4569  1.5127
  683TIP3    H223541   6.628   6.664  -0.017 -0.1020 -0.6139 -0.8918
  684TIP3   OH223542   3.291   0.265  11.234 -0.2771 -0.2867  0.2316
  684TIP3    H123543   3.264   0.240  11.146 -2.0234 -1.0156  0.9326
  684TIP3    H223544   3.220   0.235  11.291  0.1890  1.3140  1.7575
  685TIP3   OH223545   6.489   5.500   2.513 -0.0808  0.7556  0.3204
  685TIP3    H123546   6.536   5.581   2.535  2.0525  0.3891 -2.3473
  685TIP3    H223547   6.465   5.462   2.597  2.8833  1.9354  1.8351
  686TIP3   OH223548   1.239   4.489   3.037 -0.8386  0.2079  0.6602
  686TIP3    H123549   1.157   4.446   3.014 -0.8563 -0.2309  1.5146
  686TIP3    H223550   1.213   4.578   3.060 -1.3329 -0.4099  2.6321
  687TIP3   OH223551   6.164   4.083   2.624 -0.2690  0.1588 -0.0951
  687TIP3    H123552   6.204   4.035   2.696  0.1888 -0.1846 -0.5672
  687TIP3    H223553   6.199   4.041   2.545 -0.6580  0.6112 -0.5158
  688TIP3   OH223554   2.954   4.010   2.731  0.4827  0.1597  0.2977
  688TIP3    H123555   2.932   3.997   2.639  0.7378  0.8885  0.1311
  688TIP3    H223556   3.031   4.067   2.730  1.5105 -1.1665  0.9118
  689TIP3   OH223557   2.738   0.312  13.335 -0.4880 -0.4628  0.2058
  689TIP3    H123558   2.744   0.217  13.348 -0.8007 -0.1435  3.4853
  689TIP3    H223559   2.652   0.335  13.369  0.6561  1.2871  2.1363
  690TIP3   OH223560   2.127   0.415  10.430 -0.0982  0.0374 -0.2850
  690TIP3    H123561   2.057   0.477  10.448  0.8988  1.8959 -2.3213
  690TIP3    H223562   2.087   0.350  10.371 -0.4871  0.2328 -0.2393
  691TIP3   OH223563   5.354   2.447  16.222 -0.6370  0.3717 -0.0275
  691TIP3    H123564   5.302   2.447  16.302 -1.6027 -1.1912 -0.6110
  691TIP3    H223565   5.290   2.430  16.152  0.1703  1.7322 -1.1599
  692TIP3   OH223566   1.346   2.996   2.032  0.3262  0.8535  0.2902
  692TIP3    H123567   1.303   2.918   2.066  0.9701  0.3697  0.0101
  692TIP3    H223568   1.349   3.056   2.107  1.3542 -0.0417  1.0043
  693TIP3   OH223569   6.436   5.157  14.837 -0.0474 -0.2618  0.0576
  693TIP3    H123570   6.441   5.241  14.790  1.7549  0.7313  1.8561
  693TIP3    H223571   6.344   5.149  14.862 -0.1108  1.6298  0.5764
  694TIP3   OH223572   2.658   2.799   5.008 -0.2800 -0.4460  0.6761
  694TIP3    H123573   2.678   2.875   4.953 -0.3403  0.8342  2.3400
  694TIP3    H223574   2.563   2.794   5.007 -0.3569  0.4793  1.7864
  695TIP3   OH223575   0.578   6.120  12.557  0.5360 -0.2869 -0.7056
  695TIP3    H123576   0.562   6.175  12.633  0.7216 -1.6110  0.3328
  695TIP3    H223577   0.511   6.146  12.493 -2.3758 -1.9621  1.4437
  696TIP3   OH223578   4.529   3.600   1.306  0.0040  0.2756  0.4856
  696TIP3    H123579   4.489   3.659   1.370 -0.2008 -0.2151  0.8152
  696TIP3    H223580   4.614   3.639   1.287  0.1499  0.3159  1.2083
  697TIP3   OH223581   0.649   3.159   5.082 -0.0502  0.8940 -0.5846
  697TIP3    H123582   0.574   3.217   5.066 -3.3211 -1.8532  2.7151
  697TIP3    H223583   0.609   3.077   5.112  4.3078 -2.0057 -1.7568
  698TIP3   OH223584   3.574   5.752  11.818  0.1963 -0.2849 -0.8508
  698TIP3    H123585   3.598   5.767  11.726 -0.7142 -0.6399 -1.1644
  698TIP3    H223586   3.507   5.683  11.813 -2.9849  2.5420 -0.2890
  699TIP3   OH223587   4.965   4.259   3.399 -0.1462 -0.3436  0.5980
  699TIP3    H123588   4.961   4.211   3.316 -0.5981 -1.3350  1.1700
  699TIP3    H223589   4.877   4.250   3.436  0.3362 -0.8044  1.6663
  700TIP3   OH223590   0.870   2.545   2.239  0.1550  0.0075 -0.4617
  700TIP3    H123591   0.814   2.480   2.280  0.4670  0.6145  0.9880
  700TIP3    H223592   0.810   2.611   2.205 -0.1428  2.0454  3.3891
  701TIP3   OH223593   4.157   5.752  11.931 -0.4787 -0.0532 -0.4105
  701TIP3    H123594   4.094   5.707  11.876 -0.3286 -0.6843 -0.0783
  701TIP3    H223595   4.160   5.841  11.897 -1.9865  0.1626 -0.0677
  702TIP3   OH223596   1.583   4.498   0.083 -0.3881  0.6381 -0.1610
  702TIP3    H123597   1.511   4.460   0.031 -0.4769 -0.2334  0.5728
  702TIP3    H223598   1.626   4.422   0.122  0.0118  1.2493  0.6024
  703TIP3   OH223599   1.533   3.626  14.648  0.1970  0.1310  0.5352
  703TIP3    H123600   1.513   3.697  14.710 -0.4260  1.3125 -0.9420
  703TIP3    H223601   1.501   3.659  14.563  1.3965 -1.2466 -0.4958
  704TIP3   OH223602   1.829   4.926   5.019 -0.6703  0.8613 -0.1436
  704TIP3    H123603   1.754   4.900   4.966 -0.7146  1.9803 -0.6723
  704TIP3    H223604   1.792   4.962   5.099 -0.7031  1.2165 -0.3139
  705TIP3   OH223605   1.630   2.301  16.944  0.3282 -0.1357 -0.0312
  705TIP3    H123606   1.604   2.328  16.856  1.0176  1.9347  0.3487
  705TIP3    H223607   1.548   2.302  16.995  0.2780  1.0034 -0.1126
  706TIP3   OH223608   6.670   3.665  15.606  0.6901  0.0669  0.1507
  706TIP3    H123609   6.754   3.689  15.645  0.2734 -0.2252  1.2425
  706TIP3    H223610   6.692   3.594  15.546  1.1715 -0.2721  0.7129
  707TIP3   OH223611   2.489   3.953   0.582  0.1178  0.4026 -0.0236
  707TIP3    H123612   2.517   3.908   0.662 -0.3941 -1.6337 -0.9462
  707TIP3    H223613   2.399   3.924   0.568 -0.5079  2.3359 -0.2633
  708TIP3   OH223614   5.717   6.555  10.821  0.0178 -0.0715  0.2210
  708TIP3    H123615   5.639   6.501  10.804 -0.8092 -0.3750  4.1084
  708TIP3    H223616   5.787   6.493  10.836 -0.5050 -0.1298  2.8265
  709TIP3   OH223617   1.864   5.590   1.482 -0.4054 -0.2663  0.1264
  709TIP3    H123618   1.957   5.593   1.504 -0.0329  1.8540 -1.4558
  709TIP3    H223619   1.821   5.634   1.556  0.1136  0.8245 -0.2037
  710TIP3   OH223620   2.549   1.345  14.694 -0.6954 -0.0615  0.0291
  710TIP3    H123621   2.486   1.370  14.627  0.2133  0.8734 -0.5160
  710TIP3    H223622   2.632   1.381  14.663 -0.0711 -0.4374  1.1929
  711TIP3   OH223623   1.510   5.412   5.559 -0.6109  0.1505  0.5717
  711TIP3    H123624   1.470   5.489   5.597 -1.1365 -0.0350  0.4019
  711TIP3    H223625   1.604   5.431   5.559 -0.5713  0.0459  2.1726
  712TIP3   OH223626   4.438   2.820  16.794  0.2260  0.8571 -0.1754
  712TIP3    H123627   4.527   2.851  16.777  0.1309  0.6161 -1.1737
  712TIP3    H223628   4.397   2.818  16.708 -0.8057  1.1289  0.3045
  713TIP3   OH223629   4.316   0.870   4.214 -0.6535  0.1898  0.3054
  713TIP3    H123630   4.369   0.835   4.142 -2.0196 -0.5394 -0.4106
  713TIP3    H223631   4.359   0.839   4.293  0.4533  0.3417 -0.2271
  714TIP3   OH223632   2.103   4.516  15.425  0.5999  0.8408  0.1750
  714TIP3    H123633   2.197   4.502  15.431  0.1855 -2.3958  1.1188
  714TIP3    H223634   2.077   4.542  15.513  0.4239 -0.0376  0.3931
  715TIP3   OH223635   0.028   3.548  13.564  0.8191 -0.5252  0.6277
  715TIP3    H123636  -0.017   3.491  13.502 -2.0448  2.7860 -0.7031
  715TIP3    H223637   0.105   3.579  13.516 -0.1134  0.1900 -0.4728
  716TIP3   OH223638   0.319   6.590   2.026 -0.0956 -0.2769  0.3732
  716TIP3    H123639   0.386   6.639   1.979 -0.0920  0.2681  0.9197
  716TIP3    H223640   0.368   6.525   2.076  0.0345  0.1232  0.7747
  717TIP3   OH223641   3.794   5.494   5.503  0.2683  0.3856 -0.7333
  717TIP3    H123642   3.822   5.454   5.420 -0.6798 -1.3363 -0.2777
  717TIP3    H223643   3.786   5.420   5.563 -0.2691  1.4519  0.5519
  718TIP3   OH223644   1.414   3.691   2.321  0.0177 -0.0618  0.1694
  718TIP3    H123645   1.415   3.651   2.408 -0.7404 -0.0277  0.1951
  718TIP3    H223646   1.506   3.691   2.294 -0.0924 -3.8283 -0.7660
  719TIP3   OH223647   5.079   1.393   1.536 -0.0083  0.1765  0.2169
  719TIP3    H123648   5.113   1.348   1.459  3.4726 -0.6465  2.0154
  719TIP3    H223649   5.122   1.478   1.536 -0.9873  0.6948  0.6033
  720TIP3   OH223650   2.145   5.139  17.204 -0.0296 -0.1319 -0.0001
  720TIP3    H123651   2.218   5.129  17.143 -1.6280 -0.9420 -1.8886
  720TIP3    H223652   2.072   5.168  17.149 -1.3232 -0.0665  1.6929
  721TIP3   OH223653   0.329   6.650   5.650 -0.7126 -0.3265 -0.0369
  721TIP3    H123654   0.386   6.634   5.575 -1.0050 -0.2881 -0.2687
  721TIP3    H223655   0.366   6.596   5.720  0.1882  0.4327  0.0993
  722TIP3   OH223656   4.883   6.150  13.249 -0.2693 -0.1960 -0.4631
  722TIP3    H123657   4.915   6.060  13.259 -0.9136 -0.2028  1.9469
  722TIP3    H223658   4.894   6.189  13.335 -1.2400  1.6505 -1.1341
  723TIP3   OH223659   5.578   1.996   1.803  0.1135 -0.3275  0.8454
  723TIP3    H123660   5.624   1.987   1.719 -0.3082  0.4172  0.5236
  723TIP3    H223661   5.517   1.922   1.805 -0.2779 -0.0252  0.2300
  724TIP3   OH223662   1.739   4.081   4.321  0.6313 -0.2563  0.4468
  724TIP3    H123663   1.675   4.010   4.315 -0.1323  0.2552  1.8503
  724TIP3    H223664   1.796   4.070   4.245 -2.0735  0.2024 -1.7894
  725TIP3   OH223665   0.293   6.732   4.147 -0.2608  0.2272 -0.5023
  725TIP3    H123666   0.308   6.647   4.188  1.1678  0.0471 -1.3020
  725TIP3    H223667   0.366   6.786   4.178  0.5182  0.2629 -2.2370
  726TIP3   OH223668   5.359   3.629   3.556  0.0299  0.3024 -0.3747
  726TIP3    H123669   5.326   3.592   3.474 -1.0714  1.2059 -0.3650
  726TIP3    H223670   5.293   3.694   3.582 -1.1292 -1.8377  2.6804
  727TIP3   OH223671   1.250   4.495   0.933  0.0360  0.0020  0.5771
  727TIP3    H123672   1.161   4.480   0.964 -0.6155  1.2782 -0.5539
  727TIP3    H223673   1.239   4.544   0.851  1.7930  1.5387  1.1736
  728TIP3   OH223674   5.412   1.191   0.121  0.0442 -0.2807  0.7984
  728TIP3    H123675   5.499   1.201   0.160 -0.5559  2.5343  1.6651
  728TIP3    H223676   5.425   1.210   0.028  0.1885  1.8030  1.1869
  729TIP3   OH223677   0.134   0.020  12.570  0.6119  0.1037 -0.4742
  729TIP3    H123678   0.074   0.028  12.643  0.9218 -1.3670 -0.0230
  729TIP3    H223679   0.082   0.041  12.493  0.4822  2.4553  0.1993
  730TIP3   OH223680   6.120   5.054   5.819 -0.2450  0.3855 -0.2365
  730TIP3    H123681   6.042   5.048   5.873  0.4010 -2.4261  0.5253
  730TIP3    H223682   6.175   5.119   5.864 -0.9945  0.3579  0.7580
  731TIP3   OH223683   6.567   4.814   3.514 -0.1533 -0.2768  0.1916
  731TIP3    H123684   6.611   4.895   3.489 -1.1693 -0.5015 -2.7624
  731TIP3    H223685   6.509   4.839   3.586  0.7370  1.2329  0.4177
  732TIP3   OH223686   6.010   3.969  10.609 -0.5099  0.2748  0.1093
  732TIP3    H123687   6.090   4.006  10.571 -0.2646  0.4801  0.8096
  732TIP3    H223688   5.961   3.936  10.533  0.1419  0.3254 -0.3478
  733TIP3   OH223689   5.523   6.066  12.141 -0.0715 -0.0235 -0.6519
  733TIP3    H123690   5.482   5.980  12.139  1.5142 -1.0740  3.0494
  733TIP3    H223691   5.575   6.070  12.061 -1.4023 -1.8036 -1.6788
  734TIP3   OH223692   5.238   4.728   4.310  0.1597  0.2944  0.1133
  734TIP3    H123693   5.148   4.705   4.331 -0.1411  1.5551  0.2814
  734TIP3    H223694   5.291   4.671   4.365 -0.4975 -1.0190 -0.5646
  735TIP3   OH223695   2.934   0.799   2.886  0.2240 -0.9616 -0.0706
  735TIP3    H123696   3.010   0.855   2.904 -0.9903  1.2260 -1.4314
  735TIP3    H223697   2.873   0.818   2.956 -0.3293 -0.2938 -0.7232
  736TIP3   OH223698   0.446   0.638   3.772 -0.3699  0.7670 -0.1718
  736TIP3    H123699   0.485   0.583   3.703 -3.3174 -1.4297 -0.2835
  736TIP3    H223700   0.468   0.593   3.853 -2.8722 -0.8086 -0.2692
  737TIP3   OH223701   3.773   6.136  11.408  0.0078  0.2224 -0.0281
  737TIP3    H123702   3.854   6.185  11.421  0.4813 -0.3149 -0.9230
  737TIP3    H223703   3.770   6.117  11.314 -0.3573 -1.1316  0.2324
  738TIP3   OH223704   5.615   5.762   5.090  0.6191  0.0290  0.1691
  738TIP3    H123705   5.682   5.718   5.143  0.7663  1.0660  0.8810
  738TIP3    H223706   5.660   5.839   5.054  0.1673  0.0159 -0.4397
  739TIP3   OH223707   3.885   1.073   0.549  0.3614 -0.1976 -0.5064
  739TIP3    H123708   3.815   1.014   0.522 -0.2715 -1.0632  2.6953
  739TIP3    H223709   3.951   1.016   0.589  1.1575  0.9885 -0.0697
  740TIP3   OH223710   5.324   0.827   0.755 -0.3370  0.1265  0.1540
  740TIP3    H123711   5.394   0.878   0.797  0.9060 -1.0457 -0.4185
  740TIP3    H223712   5.308   0.754   0.815 -0.7999  0.1796  0.0962
  741TIP3   OH223713   3.769   5.144  13.840 -0.0671 -0.2064 -0.2076
  741TIP3    H123714   3.750   5.199  13.763 -0.6357  2.6832  1.8221
  741TIP3    H223715   3.733   5.193  13.913  0.2157 -2.9708  1.9326
  742TIP3   OH223716   6.376   4.891  12.724 -0.4030  0.1352  0.1498
  742TIP3    H123717   6.409   4.928  12.642 -0.5763  1.7649  0.7735
  742TIP3    H223718   6.284   4.917  12.727 -0.2805  0.5031  1.0692
  743TIP3   OH223719   6.034   3.957   5.035 -0.1804  0.9669 -0.3884
  743TIP3    H123720   6.083   3.877   5.014 -0.4248  0.9755 -0.9996
  743TIP3    H223721   6.102   4.024   5.046  0.0396  0.6366  0.3331
  744TIP3   OH223722   6.181   3.179   0.783 -0.5634  0.0984 -0.5105
  744TIP3    H123723   6.152   3.263   0.818 -1.2105  0.0530 -0.9137
  744TIP3    H223724   6.259   3.157   0.835 -1.3152  0.1745  0.7017
  745TIP3   OH223725   3.118   4.729   3.670 -0.1809  0.0461  0.9126
  745TIP3    H123726   3.171   4.728   3.750 -1.7679  0.6775  2.0105
  745TIP3    H223727   3.029   4.713   3.700 -0.8037  0.2064 -0.7589
  746TIP3   OH223728   3.635   4.781   2.328 -0.1618 -0.1406 -0.2005
  746TIP3    H123729   3.582   4.860   2.319  0.1362  0.0827 -0.0304
  746TIP3    H223730   3.697   4.784   2.256 -0.1862 -0.2493 -0.2271
  747TIP3   OH223731   0.358   1.844  11.205  0.5159 -0.1623 -0.1595
  747TIP3    H123732   0.434   1.808  11.159  1.6306 -0.1873  1.6300
  747TIP3    H223733   0.317   1.902  11.140  1.2026 -1.2633 -1.6363
  748TIP3   OH223734   0.597   6.175   3.381 -0.0198  0.0895  0.1846
  748TIP3    H123735   0.578   6.118   3.456  0.7644 -1.8607 -1.0504
  748TIP3    H223736   0.647   6.121   3.321 -1.5364  1.2544 -2.2794
  749TIP3   OH223737   0.948   5.357  13.347 -0.1716 -0.1246 -0.6969
  749TIP3    H123738   0.887   5.420  13.386  0.6999 -0.0697  0.6502
  749TIP3    H223739   1.011   5.412  13.299 -1.1142 -0.1806 -2.0764
  750TIP3   OH223740   5.446   1.965   3.500  0.0695 -0.1265  0.3585
  750TIP3    H123741   5.382   2.025   3.460  1.2718 -1.1163 -3.4852
  750TIP3    H223742   5.499   2.021   3.557  1.5690  2.8297 -3.5210
  751TIP3   OH223743   6.605   5.564   0.035  0.4893  0.2812  0.0557
  751TIP3    H123744   6.524   5.546   0.083 -0.1370 -0.9764 -1.3444
  751TIP3    H223745   6.651   5.628   0.088 -0.8192  0.0535  1.5625
  752TIP3   OH223746   5.227   0.724   1.631 -0.2789 -0.1915  0.2875
  752TIP3    H123747   5.226   0.806   1.680 -3.4158 -0.1580  0.4019
  752TIP3    H223748   5.194   0.659   1.693 -1.5075 -0.7169 -0.8475
  753TIP3   OH223749   6.548   5.453  10.835 -0.2994 -0.1562  0.3641
  753TIP3    H123750   6.495   5.529  10.812 -0.5371  0.0702  1.5541
  753TIP3    H223751   6.514   5.382  10.781  0.4045  0.7243 -1.2892
  754TIP3   OH223752   5.589   5.726  14.973  0.0538 -0.3405  0.1748
  754TIP3    H123753   5.679   5.716  15.003  0.0717 -1.0390 -0.0911
  754TIP3    H223754   5.537   5.674  15.033 -0.2691  0.6260  0.7547
  755TIP3   OH223755   5.194   0.588  15.862 -0.3875  0.3865  0.1121
  755TIP3    H123756   5.200   0.576  15.956 -1.3085  0.2138  0.1505
  755TIP3    H223757   5.277   0.631  15.838  1.0565 -1.9601  0.5872
  756TIP3   OH223758   0.277   2.217  11.061 -0.1832 -0.7597 -0.2890
  756TIP3    H123759   0.373   2.214  11.062 -0.1136  0.5668 -0.1176
  756TIP3    H223760   0.250   2.128  11.041  1.1171 -0.6938 -2.6752
  757TIP3   OH223761   5.965   0.821   4.047 -0.3110  0.1291 -0.4663
  757TIP3    H123762   6.043   0.846   3.998 -0.9071  3.1782 -0.0666
  757TIP3    H223763   5.903   0.792   3.980  0.6016 -0.7668 -0.9392
  758TIP3   OH223764   4.781   2.173   2.371  0.3406  0.2592  0.1662
  758TIP3    H123765   4.691   2.162   2.402  0.0779 -0.3879 -0.7855
  758TIP3    H223766   4.835   2.163   2.450 -0.4837  2.3553  1.0440
  759TIP3   OH223767   1.154   4.497   2.474  0.8715  0.4063  0.0622
  759TIP3    H123768   1.203   4.579   2.468  2.5113 -0.3767  1.9522
  759TIP3    H223769   1.216   4.430   2.445  0.8233 -0.5513  2.0243
  760TIP3   OH223770   1.718   6.697   0.817 -0.3132  0.1854  0.2683
  760TIP3    H123771   1.760   6.713   0.732 -0.4781  0.8237  0.3007
  760TIP3    H223772   1.657   6.770   0.827 -1.2116 -0.5679  0.3615
  761TIP3   OH223773   4.638   5.829   1.336  0.1055 -0.3439  0.4544
  761TIP3    H123774   4.712   5.793   1.287 -1.1205 -0.4671 -1.4021
  761TIP3    H223775   4.565   5.771   1.316 -1.2700  1.5529 -0.4152
  762TIP3   OH223776   1.171   5.374   3.471 -0.2513 -0.4392  0.4547
  762TIP3    H123777   1.171   5.292   3.520 -0.5979 -0.4900  0.3747
  762TIP3    H223778   1.218   5.436   3.526 -0.1944 -0.6328  0.6208
  763TIP3   OH223779   0.754   2.695  11.263  0.0133  0.1275 -0.3106
  763TIP3    H123780   0.747   2.680  11.168 -0.3248 -0.8771 -0.1385
  763TIP3    H223781   0.700   2.625  11.302 -2.3372  2.2652  0.5366
  764TIP3   OH223782   5.300   3.392  13.703  0.4390  0.1006 -0.1542
  764TIP3    H123783   5.344   3.477  13.706  0.6672  0.1078 -2.2123
  764TIP3    H223784   5.356   3.338  13.647 -0.0310 -1.2198  0.6104
  765TIP3   OH223785   1.121   4.896  12.242 -0.6668 -0.5104 -0.1056
  765TIP3    H123786   1.175   4.860  12.171  0.9064  0.2083  0.6702
  765TIP3    H223787   1.117   4.990  12.223 -0.3741 -0.3370  0.6574
  766TIP3   OH223788   6.667   6.265  16.246 -0.1867 -0.6861 -0.0323
  766TIP3    H123789   6.575   6.291  16.250  0.3665  1.3882  0.4182
  766TIP3    H223790   6.683   6.220  16.329  0.1205  2.5389  1.8499
  767TIP3   OH223791   1.456   1.308   3.647  0.0372  0.4241 -0.0157
  767TIP3    H123792   1.397   1.382   3.657  0.3440  0.8065 -0.8974
  767TIP3    H223793   1.421   1.259   3.572 -0.1627 -0.3295  0.5541
  768TIP3   OH223794   4.315   4.542   2.361  0.5208 -0.9029 -0.1154
  768TIP3    H123795   4.303   4.574   2.272 -0.3556 -0.8719  0.0055
  768TIP3    H223796   4.406   4.563   2.382  0.9860 -1.6551 -1.2895
  769TIP3   OH223797   5.438   3.623   5.050 -0.3951  0.2769 -0.4094
  769TIP3    H123798   5.494   3.556   5.089 -0.0279  0.6493 -0.2857
  769TIP3    H223799   5.381   3.575   4.989  0.8379  0.0212 -1.4153
  770TIP3   OH223800   0.477   2.855  14.933 -0.3000 -0.4834  0.6804
  770TIP3    H123801   0.409   2.812  14.984 -1.4786 -0.0131 -0.4479
  770TIP3    H223802   0.478   2.808  14.849  0.5947 -0.3151  0.5816
  771TIP3   OH223803   0.868   4.778  11.906  0.5881 -0.0342 -0.2727
  771TIP3    H123804   0.947   4.828  11.884  1.2874 -0.6556  0.7448
  771TIP3    H223805   0.870   4.770  12.001  0.5804 -2.0901 -0.3926
  772TIP3   OH223806   4.600   2.963   4.306  0.0206 -0.1664  0.7299
  772TIP3    H123807   4.639   3.041   4.266 -1.9722  1.4103  1.7121
  772TIP3    H223808   4.598   2.899   4.236  2.6334  0.2570  0.1535
  773TIP3   OH223809   2.299   6.501   4.941 -0.0876 -0.1107  0.3938
  773TIP3    H123810   2.258   6.537   4.862 -0.5820 -0.8967  0.2854
  773TIP3    H223811   2.381   6.463   4.910  0.2103  0.4842  0.4325
  774TIP3   OH223812   0.185   5.265   3.964 -0.3095  0.0768  0.4870
  774TIP3    H123813   0.128   5.201   3.921 -1.8629  1.4874  0.3301
  774TIP3    H223814   0.258   5.276   3.903 -1.7206  0.9227 -1.1597
  775TIP3   OH223815   2.173   2.413   0.142  0.3769  0.2930 -0.0329
  775TIP3    H123816   2.248   2.448   0.189 -0.7331  1.0301  1.2577
  775TIP3    H223817   2.097   2.446   0.190 -0.7729 -0.6710 -1.1217
  776TIP3   OH223818   0.443   1.755  15.580  0.4986  0.3092 -0.3549
  776TIP3    H123819   0.519   1.772  15.524  0.0997 -0.9339 -1.3259
  776TIP3    H223820   0.460   1.669  15.617  0.5725  0.9569  1.1773
  777TIP3   OH223821   4.853   5.407  16.154  0.4732  0.3971  0.1260
  777TIP3    H123822   4.893   5.465  16.219  0.7033  0.1388  0.2142
  777TIP3    H223823   4.804   5.343  16.205  2.2767 -1.0325  0.1498
  778TIP3   OH223824   1.630   2.441   1.354 -0.3067  0.7816 -0.6503
  778TIP3    H123825   1.718   2.474   1.376 -0.0674 -1.4379  2.4869
  778TIP3    H223826   1.646   2.368   1.294  0.0463  0.2853  0.0320
  779TIP3   OH223827   5.740   1.874  14.580 -0.4238  0.3846  0.4369
  779TIP3    H123828   5.684   1.799  14.563 -0.1642 -0.3628  2.5316
  779TIP3    H223829   5.743   1.921  14.497 -1.6953 -1.1682 -0.5579
  780TIP3   OH223830   2.091   0.403   4.184  0.3724  0.2057  0.3090
  780TIP3    H123831   2.104   0.343   4.258  1.5767  0.9377  0.7116
  780TIP3    H223832   2.115   0.489   4.218 -0.7881  0.8510 -0.4317
  781TIP3   OH223833   1.061   3.222   0.698  0.0204 -0.3788  0.4174
  781TIP3    H123834   1.025   3.144   0.740  0.7547  0.4738  2.7852
  781TIP3    H223835   0.986   3.281   0.689 -0.7369 -1.5793 -2.2200
  782TIP3   OH223836   3.688   3.877  15.845 -0.5610  0.1831 -0.4807
  782TIP3    H123837   3.711   3.808  15.784 -0.3476  2.8657 -3.7041
  782TIP3    H223838   3.769   3.894  15.893  0.0323 -0.2628 -1.2995
  783TIP3   OH223839   1.238   4.830   0.392  0.7060  0.1350 -0.0289
  783TIP3    H123840   1.332   4.814   0.404  0.7388 -0.2253 -0.7109
  783TIP3    H223841   1.198   4.744   0.403  0.2449  0.5539  2.0106
  784TIP3   OH223842   5.362   4.798  15.625  0.4582 -0.2304  0.3053
  784TIP3    H123843   5.400   4.711  15.615 -0.2402 -0.3891 -1.2616
  784TIP3    H223844   5.336   4.823  15.536 -1.0877  0.7838  1.0045
  785TIP3   OH223845   0.101   4.278   0.136  0.5106  0.4957  0.3286
  785TIP3    H123846   0.092   4.304   0.044  1.1826  0.7599  0.3365
  785TIP3    H223847   0.011   4.275   0.169  0.2897  0.7347 -0.2417
  786TIP3   OH223848   2.092   6.648  11.850  0.4872 -0.1754  0.0767
  786TIP3    H123849   2.034   6.576  11.873  0.7743 -0.5159 -0.2416
  786TIP3    H223850   2.039   6.705  11.794  0.2450 -0.1126  0.3682
  787TIP3   OH223851   2.732   4.395   5.409  0.1031  0.1340 -0.3579
  787TIP3    H123852   2.808   4.443   5.441 -0.0303 -0.9635  1.8212
  787TIP3    H223853   2.673   4.391   5.484 -1.1728 -0.8756 -1.3640
  788TIP3   OH223854   4.359   4.753   0.542 -0.4154 -0.9574 -0.7906
  788TIP3    H123855   4.432   4.766   0.482  0.4374  0.0189  0.4237
  788TIP3    H223856   4.397   4.708   0.617 -0.9591 -0.0243  0.0592
  789TIP3   OH223857   4.244   6.289  17.081 -0.0640 -0.5238  0.1239
  789TIP3    H123858   4.245   6.340  17.162 -3.2286 -1.3271  0.8326
  789TIP3    H223859   4.326   6.240  17.082  1.5762  2.0304  1.0316
  790TIP3   OH223860   3.742   0.456   1.764  0.9343 -0.1799 -0.1158
  790TIP3    H123861   3.688   0.513   1.709  0.6153 -1.2871 -0.9776
  790TIP3    H223862   3.741   0.371   1.719  4.2943  0.0190 -0.8135
  791TIP3   OH223863   5.688   1.073  13.526 -0.3555 -0.4958  0.8542
  791TIP3    H123864   5.695   1.002  13.462 -0.3814  0.3630 -0.1426
  791TIP3    H223865   5.600   1.108  13.513 -0.2490 -0.1182  1.1420
  792TIP3   OH223866   2.432   3.474   2.812 -0.4357 -0.1118 -0.1818
  792TIP3    H123867   2.411   3.479   2.718  2.1153 -0.9747 -0.8796
  792TIP3    H223868   2.442   3.380   2.829  0.4747  0.1249  0.6241
  793TIP3   OH223869   3.435   5.856  13.561  0.1765  0.1004 -0.2567
  793TIP3    H123870   3.384   5.778  13.539 -0.8825  0.8649 -0.5990
  793TIP3    H223871   3.419   5.917  13.489  0.6044  0.8075  0.2257
  794TIP3   OH223872   4.843   5.067  15.665  0.2252 -0.2059 -0.0437
  794TIP3    H123873   4.766   5.119  15.645  1.0067  1.0656  0.1157
  794TIP3    H223874   4.824   5.026  15.750 -0.3277 -0.0424 -0.0897
  795TIP3   OH223875   4.715   0.736   3.060 -0.8646 -0.5152 -0.5855
  795TIP3    H123876   4.640   0.690   3.021 -1.1345  0.0164 -0.7107
  795TIP3    H223877   4.771   0.758   2.985  0.1584 -2.1798 -0.3558
  796TIP3   OH223878   2.026   4.831  16.173 -0.4276 -0.0895 -0.2729
  796TIP3    H123879   2.049   4.757  16.228 -0.5966  0.0525 -0.0064
  796TIP3    H223880   2.108   4.856  16.130  0.1845  1.1082  1.5000
  797TIP3   OH223881   0.836   2.129  14.506 -0.4025  0.4645  0.2916
  797TIP3    H123882   0.897   2.056  14.518 -0.6636 -0.2537 -2.2880
  797TIP3    H223883   0.759   2.104  14.557  0.3065 -0.0099  1.1794
  798TIP3   OH223884   2.467   6.204   5.130  0.0898  0.1981  0.0681
  798TIP3    H123885   2.537   6.236   5.074  0.6158 -1.2867 -0.1557
  798TIP3    H223886   2.502   6.209   5.219  1.3752 -2.5182 -0.1830
  799TIP3   OH223887   5.934   6.096   4.315 -0.3084  0.0393 -0.2326
  799TIP3    H123888   5.960   6.006   4.335 -0.9999 -0.2381 -0.5440
  799TIP3    H223889   5.939   6.102   4.220  0.7277  0.6525 -0.1534
  800TIP3   OH223890   3.659   2.827   0.824 -0.5504 -0.1083 -0.4657
  800TIP3    H123891   3.602   2.812   0.900 -1.5923  3.4286 -0.3753
  800TIP3    H223892   3.598   2.829   0.749 -0.2924  1.3650 -0.6727
  801TIP3   OH223893   5.973   3.267   5.385 -0.4624 -0.0592  0.2008
  801TIP3    H123894   6.041   3.320   5.425  0.9008 -1.7985  0.3170
  801TIP3    H223895   5.977   3.288   5.292  2.5621 -2.3972 -0.3617
  802TIP3   OH223896   0.557   0.533   4.677  0.3508 -0.1332 -0.3936
  802TIP3    H123897   0.524   0.607   4.728  1.1666 -0.2010  0.2546
  802TIP3    H223898   0.603   0.573   4.604 -0.0545 -0.0164 -0.5837
  803TIP3   OH223899   4.795   3.666   1.320  0.0844 -0.4961 -0.5870
  803TIP3    H123900   4.810   3.648   1.227 -0.6205 -1.6532 -0.4999
  803TIP3    H223901   4.832   3.590   1.365  0.6646  0.1805  0.1134
  804TIP3   OH223902   3.884   5.527  13.864  0.1886 -0.2811 -0.7908
  804TIP3    H123903   3.972   5.559  13.846  0.5358 -1.0544 -0.5123
  804TIP3    H223904   3.885   5.506  13.958  0.0330 -1.2558 -0.9983
  805TIP3   OH223905   5.230   0.028  14.974 -0.4674 -0.6345 -0.6886
  805TIP3    H123906   5.183   0.096  15.022  0.6674  0.6627 -1.3451
  805TIP3    H223907   5.302   0.003  15.032  0.4705  0.4052 -1.3677
  806TIP3   OH223908   2.842   3.998   5.610 -0.0770 -0.5194 -0.5237
  806TIP3    H123909   2.833   4.081   5.563  0.7077 -0.6025 -0.8396
  806TIP3    H223910   2.878   4.023   5.695  0.0164 -0.5192 -0.5629
  807TIP3   OH223911   5.838   5.394  13.737 -0.0780  0.4827 -0.1724
  807TIP3    H123912   5.871   5.457  13.802 -0.0592 -0.7651  1.0840
  807TIP3    H223913   5.914   5.340  13.715 -0.5073 -0.3058  0.2301
  808TIP3   OH223914   0.819   5.944   0.527 -0.0442 -0.1213 -0.1960
  808TIP3    H123915   0.791   5.875   0.467  2.1375 -0.4251 -0.9771
  808TIP3    H223916   0.800   5.910   0.614  1.4009 -1.9740 -0.5432
  809TIP3   OH223917   6.719   4.363   5.352 -0.3394  0.1526 -0.0731
  809TIP3    H123918   6.751   4.434   5.407  0.4481  0.2867 -0.6886
  809TIP3    H223919   6.626   4.355   5.375 -0.9037  2.5313 -1.1982
  810TIP3   OH223920   5.513   2.891   4.228  0.3901  0.0962 -0.0151
  810TIP3    H123921   5.573   2.855   4.162 -1.5669 -0.1927 -1.7215
  810TIP3    H223922   5.518   2.986   4.216  0.3479  0.0635 -0.2828
  811TIP3   OH223923   2.474   5.870  14.418 -0.0528  0.2492 -0.3409
  811TIP3    H123924   2.529   5.798  14.388  1.6553  0.5355  1.8293
  811TIP3    H223925   2.509   5.947  14.374  0.6622  0.2820  0.2640
  812TIP3   OH223926   5.219   4.005   2.323 -0.1777 -0.0939 -0.1049
  812TIP3    H123927   5.169   3.927   2.302  0.6319 -0.6922  0.1450
  812TIP3    H223928   5.268   3.982   2.401  1.7202 -0.0885 -1.2451
  813TIP3   OH223929   1.916   0.706  16.784 -1.1512  0.6339  0.4884
  813TIP3    H123930   1.839   0.753  16.814 -1.9088 -1.1028  1.4237
  813TIP3    H223931   1.933   0.641  16.852 -1.3625 -1.7577 -1.5873
  814TIP3   OH223932   1.963   5.706  11.507  0.7528 -0.5179  0.0740
  814TIP3    H123933   1.957   5.792  11.548  1.2052 -0.3691 -0.1641
  814TIP3    H223934   2.042   5.710  11.454 -0.2262 -0.4260 -1.4497
  815TIP3   OH223935   4.898   5.183  14.303  0.2844 -0.0327 -0.5041
  815TIP3    H123936   4.946   5.239  14.242  0.1095  0.7171  0.0390
  815TIP3    H223937   4.807   5.192  14.277  0.2801 -0.3067 -0.5970
  816TIP3   OH223938   5.800   5.182   1.689  0.5148 -0.0240  0.4388
  816TIP3    H123939   5.741   5.193   1.763  0.5723 -0.5578  0.5691
  816TIP3    H223940   5.750   5.131   1.625  0.8954 -0.6670  0.6387
  817TIP3   OH223941   2.300   4.595  14.467  0.7491  0.1334 -0.3590
  817TIP3    H123942   2.327   4.509  14.500  1.2089 -0.1031 -1.3378
  817TIP3    H223943   2.314   4.654  14.541 -1.8385 -0.9870  1.1914
  818TIP3   OH223944   4.176   4.068  16.092 -0.6028 -0.1033 -0.2985
  818TIP3    H123945   4.232   3.991  16.104  0.6213  0.8485  0.3643
  818TIP3    H223946   4.088   4.033  16.080 -0.1566 -1.5905  0.5536
  819TIP3   OH223947   1.693   0.418  16.675 -0.5612  0.0901  0.1684
  819TIP3    H123948   1.754   0.354  16.640 -1.1654  0.0220 -0.7961
  819TIP3    H223949   1.678   0.391  16.766  2.0104  0.9828  0.9335
  820TIP3   OH223950   4.973   0.175   4.327  0.0374  0.3206  0.8981
  820TIP3    H123951   4.891   0.152   4.372  0.0886  0.5224  1.0970
  820TIP3    H223952   4.992   0.100   4.271  1.1046 -0.9126  2.8030
  821TIP3   OH223953   5.584   5.934   4.219  0.2608  0.1427 -0.5157
  821TIP3    H123954   5.667   5.921   4.264 -0.6491 -0.2575  1.1309
  821TIP3    H223955   5.546   5.846   4.214 -1.0182  0.5922  0.7261
  822TIP3   OH223956   4.517   5.936   2.403  0.1420 -0.2094  0.0590
  822TIP3    H123957   4.470   5.945   2.319  0.2917  1.4847  0.1289
  822TIP3    H223958   4.459   5.881   2.456 -0.5481 -0.2853 -0.7355
  823TIP3   OH223959   5.138   6.008  15.509  0.2200 -0.1395 -0.1103
  823TIP3    H123960   5.207   5.961  15.554  0.3051 -1.3330 -1.4577
  823TIP3    H223961   5.183   6.071  15.453  0.1492  0.3657  0.3888
  824TIP3   OH223962   6.683   0.596  15.068  0.4978  0.4590 -0.1829
  824TIP3    H123963   6.680   0.504  15.096 -1.2506  0.8107  0.9932
  824TIP3    H223964   6.637   0.596  14.983 -2.3607  0.6119  1.2493
  825TIP3   OH223965   1.355   0.796  11.211  0.3506 -0.0359  0.3612
  825TIP3    H123966   1.277   0.782  11.157  0.0391 -0.1700  0.8410
  825TIP3    H223967   1.425   0.751  11.163  0.3960  1.1003 -0.6943
  826TIP3   OH223968   2.629   5.342  13.583 -0.1606  0.3947 -0.4125
  826TIP3    H123969   2.676   5.259  13.572  0.1050  0.5902 -0.7763
  826TIP3    H223970   2.633   5.360  13.677 -1.2224 -0.5880 -0.1573
  827TIP3   OH223971   3.697   5.533  16.123  0.6876 -0.3113 -0.2019
  827TIP3    H123972   3.754   5.457  16.109 -0.2520 -0.8680 -1.1244
  827TIP3    H223973   3.641   5.507  16.197 -0.4910 -1.0668 -1.3148
  828TIP3   OH223974   3.590   3.346   6.151 -0.1455  0.3438 -0.0807
  828TIP3    H123975   3.514   3.403   6.145 -0.7505 -0.5056 -0.7040
  828TIP3    H223976   3.555   3.257   6.140  0.9188 -0.0662 -0.3329
  829TIP3   OH223977   0.104   2.587  14.319 -0.4363  0.3817 -0.5949
  829TIP3    H123978   0.157   2.508  14.303 -0.3498  0.1880  0.5147
  829TIP3    H223979   0.166   2.659  14.307 -0.2168  0.2172 -0.4763
  830TIP3   OH223980   0.755   0.449   3.384 -0.0389 -0.0728 -0.3389
  830TIP3    H123981   0.846   0.473   3.365  0.1821 -1.0448 -0.5571
  830TIP3    H223982   0.705   0.480   3.308 -0.1851  1.9815  0.5103
  831TIP3   OH223983   4.764   5.112  12.170  0.0050  0.1481 -0.3577
  831TIP3    H123984   4.824   5.039  12.187  0.4163  0.0121 -2.1799
  831TIP3    H223985   4.818   5.190  12.180 -0.6468  0.3585  2.5247
  832TIP3   OH223986   1.752   1.244  13.542  0.2161  0.9525  0.0490
  832TIP3    H123987   1.793   1.160  13.526  0.6027  0.7691  1.8541
  832TIP3    H223988   1.778   1.298  13.467  0.1835 -0.4265 -0.9880
  833TIP3   OH223989   5.371   4.475  10.654  0.1601 -0.7700  0.2664
  833TIP3    H123990   5.384   4.565  10.682  0.7019 -0.3580 -1.2298
  833TIP3    H223991   5.440   4.426  10.698  1.4706 -0.0109 -0.8759
  834TIP3   OH223992   0.571   4.187   4.561 -0.1337 -0.0524  0.2107
  834TIP3    H123993   0.548   4.259   4.621  0.0890 -0.9814  1.4414
  834TIP3    H223994   0.656   4.157   4.591 -0.0663 -0.6102 -0.5240
  835TIP3   OH223995   4.291   3.690  12.202  0.2231 -0.4831 -0.3410
  835TIP3    H123996   4.385   3.689  12.218  0.5434  2.1331 -1.6141
  835TIP3    H223997   4.280   3.634  12.124  0.2005 -3.3238  1.5316
  836TIP3   OH223998   4.220   0.596   3.331  0.2785 -0.8154  0.1597
  836TIP3    H123999   4.134   0.629   3.304 -0.6561 -2.6441  0.7220
  836TIP3    H224000   4.261   0.670   3.375  0.2228  1.0053 -2.5976
  837TIP3   OH224001   1.104   3.127   0.061 -0.1185 -0.0949  0.3335
  837TIP3    H124002   1.056   3.060   0.109  0.3373 -0.2343  0.6047
  837TIP3    H224003   1.079   3.209   0.104 -1.4700  0.0386 -0.6495
  838TIP3   OH224004   6.612   4.209   4.932  0.1373 -0.5081  0.4650
  838TIP3    H124005   6.694   4.228   4.978 -0.1815  0.3529  0.7023
  838TIP3    H224006   6.584   4.125   4.968  1.2744 -1.1752 -0.1496
  839TIP3   OH224007   0.660   5.368  12.317  0.3161  0.0817 -0.3015
  839TIP3    H124008   0.591   5.301  12.319 -0.0454  0.2540 -3.1898
  839TIP3    H224009   0.612   5.451  12.327  0.4306  0.0758  0.3336
  840TIP3   OH224010   6.337   3.935   4.866 -0.0819  0.4814  0.1429
  840TIP3    H124011   6.303   4.020   4.895  0.2795  0.7751 -0.2772
  840TIP3    H224012   6.422   3.927   4.909  0.4339  0.8984 -0.7745
  841TIP3   OH224013   1.578   2.097  10.640  0.1481  0.3875  0.3679
  841TIP3    H124014   1.556   2.017  10.688  0.5890  0.4796  0.7348
  841TIP3    H224015   1.630   2.148  10.702 -0.2098  1.0022  0.1652
  842TIP3   OH224016   6.152   6.007  12.479  0.5087 -0.2259 -0.2131
  842TIP3    H124017   6.061   6.030  12.461  0.7707  0.2933 -0.9159
  842TIP3    H224018   6.156   6.002  12.575 -0.7650 -2.4643 -0.2014
  843TIP3   OH224019   5.125   2.586  17.062 -0.0625  0.9909  0.1594
  843TIP3    H124020   5.151   2.678  17.052  0.8126  0.5762 -1.6854
  843TIP3    H224021   5.205   2.541  17.086 -0.3030  0.5746  0.1865
  844TIP3   OH224022   3.433   1.962  15.237  0.5843  0.3891  0.3619
  844TIP3    H124023   3.452   1.885  15.184  3.4439  0.4743  1.1049
  844TIP3    H224024   3.365   1.932  15.299  2.4116 -1.9720  1.3941
  845TIP3   OH224025   6.449   2.270  14.905  0.1375 -0.1762  0.5981
  845TIP3    H124026   6.477   2.276  14.814  0.8034 -1.9626  0.6415
  845TIP3    H224027   6.503   2.334  14.951  1.3795 -0.7902  0.0497
  846TIP3   OH224028   4.933   5.181  12.810  0.1589  0.1898  0.0336
  846TIP3    H124029   4.967   5.155  12.724 -2.1507 -2.1614 -0.3180
  846TIP3    H224030   5.001   5.154  12.872  1.2941  0.7197 -0.9438
  847TIP3   OH224031   1.406   4.230  13.762  0.3743  0.2919 -0.3886
  847TIP3    H124032   1.335   4.279  13.804  0.1198  0.1836 -0.6951
  847TIP3    H224033   1.411   4.266  13.674 -0.0923 -0.5184 -0.7499
  848TIP3   OH224034   2.001   1.087  15.525 -0.1378  0.8141 -0.1620
  848TIP3    H124035   1.972   1.160  15.470 -1.1564  0.1448 -0.5397
  848TIP3    H224036   2.029   1.020  15.463 -1.7380 -0.1316  0.0902
  849TIP3   OH224037   2.483   1.084  12.316  0.4426  0.4110  0.0980
  849TIP3    H124038   2.511   1.098  12.225 -1.9134  1.7373 -0.5230
  849TIP3    H224039   2.417   1.015  12.310  0.9277 -0.1319  0.9406
  850TIP3   OH224040   5.270   3.036   5.206 -0.0179 -0.2098 -0.0492
  850TIP3    H124041   5.249   2.978   5.133  2.0661  0.6281 -1.4128
  850TIP3    H224042   5.222   3.117   5.187 -0.5122 -0.4308  0.2327
  851TIP3   OH224043   0.104   5.543   4.964  0.0247  0.0135  0.0442
  851TIP3    H124044   0.162   5.467   4.964 -0.7152 -0.5721  0.1024
  851TIP3    H224045   0.066   5.544   5.052  0.1994  0.5943  0.1179
  852TIP3   OH224046   3.374   1.466   5.239 -0.4098 -0.4287 -0.7807
  852TIP3    H124047   3.332   1.404   5.300  0.9867  0.6706  1.4127
  852TIP3    H224048   3.303   1.525   5.213 -0.9172 -0.5321  0.3087
  853TIP3   OH224049   4.726   1.692   4.251 -0.0120 -0.2817 -0.2738
  853TIP3    H124050   4.764   1.736   4.327  0.5165  0.7938 -1.1448
  853TIP3    H224051   4.801   1.668   4.197 -0.3747 -1.2123 -0.3906
  854TIP3   OH224052   4.212   0.146  16.548  0.0163 -0.3433  0.5353
  854TIP3    H124053   4.130   0.144  16.599 -0.7882 -0.4911 -0.7220
  854TIP3    H224054   4.190   0.198  16.470  1.5670  0.9095  0.8883
  855TIP3   OH224055   4.093   6.522   3.291 -0.4379  0.5959  0.4808
  855TIP3    H124056   4.143   6.446   3.323 -1.1280 -0.0934 -0.0364
  855TIP3    H224057   4.138   6.549   3.212  0.1832  1.1378  1.0084
  856TIP3   OH224058   3.280   4.744   2.226 -0.0121  0.1248  0.5128
  856TIP3    H124059   3.358   4.710   2.269 -0.1270 -1.5510 -0.4925
  856TIP3    H224060   3.207   4.709   2.277 -0.1140  0.0326  0.3081
  857TIP3   OH224061   4.906   2.375  14.039  0.0356  0.3448  0.3515
  857TIP3    H124062   4.828   2.344  14.084  0.0633  0.5351  0.5321
  857TIP3    H224063   4.889   2.357  13.946 -1.2207  2.4574  0.1094
  858TIP3   OH224064   1.884   1.484   3.896 -0.3419 -0.0975 -0.0333
  858TIP3    H124065   1.798   1.516   3.869 -0.6242  2.4446  3.2696
  858TIP3    H224066   1.866   1.414   3.958  0.0709 -0.8217 -0.7121
  859TIP3   OH224067   3.197   5.765   0.091  0.3297  0.0364 -0.2860
  859TIP3    H124068   3.192   5.816   0.172 -1.2375  0.7742 -0.8218
  859TIP3    H224069   3.110   5.770   0.053  0.8441 -0.8911 -1.6877
  860TIP3   OH224070   3.506   6.678   2.691 -0.0114  0.1765  0.0205
  860TIP3    H124071   3.584   6.734   2.696 -0.4156  0.6878  0.6713
  860TIP3    H224072   3.455   6.715   2.619  1.3878 -1.5377 -1.9922
  861TIP3   OH224073   5.235   0.780   5.919 -0.0961 -0.3533  0.2969
  861TIP3    H124074   5.159   0.818   5.964 -0.4773 -0.0238 -0.5985
  861TIP3    H224075   5.270   0.715   5.981 -1.2058 -0.6269  0.6579
  862TIP3   OH224076   0.058   6.447   1.600  0.0479 -0.4576  0.2944
  862TIP3    H124077   0.013   6.520   1.558  0.3122 -1.3713 -1.7179
  862TIP3    H224078   0.052   6.376   1.535  1.7322 -1.5217  1.2493
  863TIP3   OH224079   4.328   3.423  15.356 -0.5447 -0.2186 -0.5292
  863TIP3    H124080   4.261   3.480  15.394 -0.7891 -1.1795  0.5372
  863TIP3    H224081   4.292   3.335  15.363  0.6269 -0.7078 -0.3628
  864TIP3   OH224082   5.267   1.180   0.642 -0.3636  0.2024  0.1664
  864TIP3    H124083   5.351   1.184   0.596 -1.7216 -0.2655 -2.5487
  864TIP3    H224084   5.285   1.125   0.719  1.6949 -0.2600 -0.5741
  865TIP3   OH224085   4.452   1.005  15.600 -0.4200 -0.4798 -0.2858
  865TIP3    H124086   4.389   1.016  15.672 -0.7877  0.8287 -0.7877
  865TIP3    H224087   4.437   0.916  15.569 -1.2922 -0.5453  0.2845
  866TIP3   OH224088   1.933   3.897  14.026  0.1997 -0.5250  0.1832
  866TIP3    H124089   1.981   3.815  14.039  1.4506  0.2338  0.5741
  866TIP3    H224090   1.909   3.925  14.114  0.8600  0.1357  0.1625
  867TIP3   OH224091   0.895   5.311   3.724  0.0375  0.2168 -0.5421
  867TIP3    H124092   0.892   5.406   3.729 -1.6855  0.1565  0.5212
  867TIP3    H224093   0.887   5.291   3.631  0.5102  1.0984 -0.7774
  868TIP3   OH224094   5.433   6.745  11.248  0.1929 -0.1138  0.2760
  868TIP3    H124095   5.369   6.712  11.184 -1.2136 -1.1249  2.0723
  868TIP3    H224096   5.498   6.675  11.255 -0.1767 -0.4351  0.6033
  869TIP3   OH224097   4.099   6.438   0.867 -0.5498  0.2120 -0.4597
  869TIP3    H124098   4.112   6.378   0.941 -0.9787  1.2953  0.5220
  869TIP3    H224099   4.007   6.463   0.872 -0.3945  0.8853 -0.9000
  870TIP3   OH224100   3.831   0.669  15.523 -0.2600 -0.1145  0.6238
  870TIP3    H124101   3.817   0.652  15.616  0.7666  0.9494  0.9971
  870TIP3    H224102   3.918   0.708  15.519 -0.7311  0.8736 -0.6578
  871TIP3   OH224103   2.651   6.241   3.895 -0.0728 -0.1773  0.2909
  871TIP3    H124104   2.660   6.305   3.824 -2.8432  0.1896  0.1767
  871TIP3    H224105   2.714   6.172   3.872  0.0004  0.5212 -1.8499
  872TIP3   OH224106   6.832   5.305   5.746 -0.1429 -0.6777  0.1957
  872TIP3    H124107   6.848   5.369   5.815 -0.6858 -1.7538  1.3590
  872TIP3    H224108   6.918   5.265   5.730 -0.2391 -1.3427  1.2222
  873TIP3   OH224109   6.094   4.436   5.417  0.5386  0.2075 -0.4216
  873TIP3    H124110   6.137   4.393   5.491 -0.5136 -1.8079 -0.9295
  873TIP3    H224111   6.043   4.506   5.458  2.4453  1.2225  0.3995
  874TIP3   OH224112   2.991   0.684   4.874  0.1468 -0.5585  0.3532
  874TIP3    H124113   2.923   0.619   4.857 -1.0431  0.3637  1.4698
  874TIP3    H224114   3.054   0.638   4.930 -1.3639 -0.4092  2.2771
  875TIP3   OH224115   4.078   3.659   1.487 -0.5450 -0.0704  0.1263
  875TIP3    H124116   4.000   3.610   1.513 -0.3451 -0.5409 -0.1349
  875TIP3    H224117   4.105   3.705   1.567 -1.2058  0.2633  0.1585
  876TIP3   OH224118   3.990   3.759  15.582 -0.0975 -0.3358  0.4054
  876TIP3    H124119   4.052   3.772  15.654  1.6010 -1.5142 -0.7676
  876TIP3    H224120   3.915   3.716  15.623  0.6241 -0.5433  1.5654
  877TIP3   OH224121   6.129   0.707  12.823 -0.0724 -0.0298 -0.4921
  877TIP3    H124122   6.186   0.668  12.757  0.7237  0.3846 -0.0675
  877TIP3    H224123   6.042   0.671  12.805  0.2735 -0.4628 -1.3173
  878TIP3   OH224124   6.545   4.549   0.568 -0.1880 -0.3319 -0.3130
  878TIP3    H124125   6.504   4.567   0.484 -1.1066 -0.2225  0.1414
  878TIP3    H224126   6.624   4.604   0.568 -1.3016  1.3641 -0.2401
  879TIP3   OH224127   5.572   0.570   1.380  0.1568 -0.5983  0.5254
  879TIP3    H124128   5.656   0.598   1.345 -1.4055  1.5463 -1.8309
  879TIP3    H224129   5.594   0.522   1.460  3.5333  0.4836  0.3903
  880TIP3   OH224130   5.047   4.082  14.525 -0.1132  0.4903 -0.9454
  880TIP3    H124131   5.010   4.099  14.612  3.2358  0.8449  0.5765
  880TIP3    H224132   5.118   4.145  14.517  0.3367 -0.2432 -3.5176
  881TIP3   OH224133   5.239   4.940   1.142  0.2060  0.9006  0.0956
  881TIP3    H124134   5.245   5.034   1.158  0.7960  1.0662 -1.0030
  881TIP3    H224135   5.327   4.907   1.160  0.4284  0.8289 -1.0179
  882TIP3   OH224136   4.483   3.792  12.538 -0.5021 -0.0057 -0.1955
  882TIP3    H124137   4.439   3.844  12.606 -0.3713 -2.9025  2.3231
  882TIP3    H224138   4.415   3.734  12.505 -0.5862  1.4323 -2.7920
  883TIP3   OH224139   0.787   4.079   5.572 -0.4025  0.0342  0.3783
  883TIP3    H124140   0.707   4.062   5.521  0.6572  2.3139 -2.3131
  883TIP3    H224141   0.804   3.997   5.618 -2.0199 -1.9280 -2.2154
  884TIP3   OH224142   2.457   5.624   4.761  0.4825 -0.4946  0.3868
  884TIP3    H124143   2.485   5.612   4.851 -1.2482  0.6641  1.1343
  884TIP3    H224144   2.502   5.704   4.733 -2.4764  1.8869  1.8854
  885TIP3   OH224145   6.297   5.237   5.920  0.2497  0.6463 -0.2142
  885TIP3    H124146   6.292   5.240   6.016  0.1188  0.4961 -0.2172
  885TIP3    H224147   6.376   5.288   5.900 -0.2148  1.4468 -0.0758
  886TIP3   OH224148   6.841   2.960  14.155 -0.0777  0.4852 -0.1008
  886TIP3    H124149   6.748   2.965  14.176 -0.3806  1.0496 -1.4581
  886TIP3    H224150   6.881   3.032  14.204 -0.4046  0.4382  0.2382
  887TIP3   OH224151   0.125   6.001   6.325  0.3621  0.1765 -0.0932
  887TIP3    H124152   0.078   6.067   6.376  1.5242 -0.4097  1.8664
  887TIP3    H224153   0.105   5.918   6.369  0.8680 -0.4554 -1.0182
  888TIP3   OH224154   1.090   2.035  16.184 -0.5892  0.3375 -0.0069
  888TIP3    H124155   1.069   1.994  16.100 -0.1140  1.7296 -0.8279
  888TIP3    H224156   1.011   2.022  16.237 -0.3123 -2.0110 -0.0471
  889TIP3   OH224157   5.459   5.106  16.660  0.3995 -0.2597 -0.4802
  889TIP3    H124158   5.546   5.091  16.696 -0.5143 -1.5971  1.3451
  889TIP3    H224159   5.422   5.174  16.716  0.9968  1.9625 -2.6328
  890TIP3   OH224160   0.179   4.119   3.441  0.6884  0.5221 -0.3076
  890TIP3    H124161   0.167   4.090   3.531 -1.8669  2.3955  0.0572
  890TIP3    H224162   0.271   4.099   3.422  0.6660 -2.1466  1.8248
  891TIP3   OH224163   2.133   1.463  16.536 -0.5649  0.1966 -0.6126
  891TIP3    H124164   2.148   1.470  16.441  0.0133  1.8289 -0.4313
  891TIP3    H224165   2.051   1.414  16.543 -0.9978  0.6565 -1.9848
  892TIP3   OH224166   1.287   6.303  15.112 -0.7885  0.7406  0.5252
  892TIP3    H124167   1.292   6.208  15.116  0.2190  0.7997  1.0195
  892TIP3    H224168   1.244   6.321  15.028 -2.8047 -0.1593  1.3190
  893TIP3   OH224169   1.339   0.755  15.508  0.2918 -0.2987  0.2130
  893TIP3    H124170   1.342   0.676  15.454  1.3080 -1.2353  1.5736
  893TIP3    H224171   1.247   0.763  15.534  0.1569 -0.9427 -0.0481
  894TIP3   OH224172   6.149   0.329   5.677  0.0700 -0.6938 -0.3298
  894TIP3    H124173   6.060   0.364   5.674  0.1292 -0.6153 -2.1952
  894TIP3    H224174   6.195   0.386   5.739 -1.3691 -1.3338  1.4334
  895TIP3   OH224175   3.568   5.397  16.828 -0.4310  0.1153  0.2937
  895TIP3    H124176   3.490   5.344  16.839 -1.1811  0.8533 -1.1921
  895TIP3    H224177   3.603   5.372  16.743 -0.7614  1.8862 -0.4233
  896TIP3   OH224178   6.507   5.772  16.947  0.4980  0.7601 -0.0532
  896TIP3    H124179   6.558   5.764  16.866  1.2360 -1.3730  0.5404
  896TIP3    H224180   6.417   5.786  16.917  0.8690  0.7193 -1.2405
  897TIP3   OH224181   5.224   1.399   5.069  0.3924 -0.7016 -0.2469
  897TIP3    H124182   5.162   1.425   5.137  1.8180 -0.6448  1.1070
  897TIP3    H224183   5.232   1.304   5.078  0.5982 -0.6925 -0.3103
  898TIP3   OH224184   3.907   1.097   5.796 -0.4611  0.5315 -0.2699
  898TIP3    H124185   3.985   1.055   5.759  2.2037  2.9869  2.0609
  898TIP3    H224186   3.877   1.035   5.863 -1.8417 -1.2988 -2.4241
  899TIP3   OH224187   0.105   4.706   4.848  0.9787 -0.0931  0.1033
  899TIP3    H124188   0.033   4.658   4.805 -0.2023  0.6372  1.2139
  899TIP3    H224189   0.146   4.641   4.904 -0.5155  0.0762  1.4766
  900TIP3   OH224190   6.691   4.557   1.290  0.1425  0.0286  0.4322
  900TIP3    H124191   6.625   4.619   1.321  0.6435  1.9209 -1.9825
  900TIP3    H224192   6.641   4.477   1.272 -1.9261  1.7232 -2.4201
  901TIP3   OH224193   6.498   4.496   6.427  0.0205 -0.2655 -0.2116
  901TIP3    H124194   6.458   4.563   6.483 -0.3368 -0.8811  0.2972
  901TIP3    H224195   6.458   4.414   6.457 -0.5429 -0.5659 -1.7088
  902TIP3   OH224196   2.304   5.557  11.646  0.2628  0.2056  0.0473
  902TIP3    H124197   2.319   5.643  11.685 -0.5246 -0.2755  1.4705
  902TIP3    H224198   2.386   5.510  11.660 -0.6101 -0.6383  3.0547
  903TIP3   OH224199   6.833   2.189  14.449  0.2946 -0.2500  0.4447
  903TIP3    H124200   6.860   2.229  14.366  0.8093  1.4802  1.3796
  903TIP3    H224201   6.764   2.247  14.482  0.1462 -0.8698  1.2537
  904TIP3   OH224202   1.809   3.446   2.296 -0.3307  0.1574 -0.0579
  904TIP3    H124203   1.744   3.435   2.227  1.1226  1.8459 -1.8284
  904TIP3    H224204   1.773   3.399   2.371 -2.7800 -0.3435 -1.4369
  905TIP3   OH224205   5.210   6.082   5.063  0.9768 -0.4747 -0.4278
  905TIP3    H124206   5.270   6.080   5.138  0.9791  0.7816 -0.3828
  905TIP3    H224207   5.175   6.171   5.062 -0.4146 -0.9959 -0.8395
  906TIP3   OH224208   4.827   3.608   3.818 -0.2085  0.1597  0.1686
  906TIP3    H124209   4.879   3.535   3.849 -1.0050 -0.7855 -0.6625
  906TIP3    H224210   4.817   3.664   3.895 -0.8245 -1.3424  1.2359
  907TIP3   OH224211   3.364   0.321   1.821  0.4243  0.1478 -0.1729
  907TIP3    H124212   3.336   0.289   1.906  2.8995 -0.0528  0.6490
  907TIP3    H224213   3.315   0.268   1.758 -1.4825  0.3238  1.0715
  908TIP3   OH224214   1.883   1.917  11.061  0.4450  0.0799  0.1186
  908TIP3    H124215   1.922   1.982  11.003 -2.3642  0.9757 -0.9379
  908TIP3    H224216   1.955   1.856  11.080  2.1619  1.2042 -2.1753
  909TIP3   OH224217   5.481   6.220  13.121 -0.0327 -0.2973 -0.0041
  909TIP3    H124218   5.440   6.223  13.034  1.4612 -1.3028 -0.7988
  909TIP3    H224219   5.483   6.127  13.143 -1.5287  0.0420  1.7170
  910TIP3   OH224220   3.915   3.021  17.200 -0.6437  0.1435  0.9037
  910TIP3    H124221   3.981   3.057  17.140 -1.1793 -0.1928  0.0906
  910TIP3    H224222   3.936   2.928  17.205 -0.3637  0.2412  1.5555
  911TIP3   OH224223   3.784   5.626   1.579 -0.4020 -0.5271 -0.7279
  911TIP3    H124224   3.691   5.630   1.559 -0.5044  0.0991 -0.1786
  911TIP3    H224225   3.811   5.539   1.551 -0.6958 -0.0082 -2.7705
  912TIP3   OH224226   6.232   4.585   5.001 -0.1251  0.1146 -0.1104
  912TIP3    H124227   6.320   4.602   5.035 -0.3461 -0.6935  0.9039
  912TIP3    H224228   6.243   4.506   4.948 -0.1271  0.3539 -0.4678
  913TIP3   OH224229   3.254   2.410  15.169  0.1489  0.3612 -0.0843
  913TIP3    H124230   3.252   2.393  15.075  1.1700  2.7602 -0.6160
  913TIP3    H224231   3.264   2.505  15.176  3.1480  0.0383  2.3757
  914TIP3   OH224232   2.848   4.955   2.770 -0.2942 -0.4552 -0.3388
  914TIP3    H124233   2.878   4.912   2.850  0.6757  1.7651  0.5631
  914TIP3    H224234   2.764   4.994   2.794  1.8909  3.9687  1.1881
  915TIP3   OH224235   4.685   6.503   5.843 -0.5246 -0.0269 -0.0194
  915TIP3    H124236   4.707   6.485   5.935 -0.2103 -1.8724 -0.4247
  915TIP3    H224237   4.597   6.539   5.847 -0.1461  0.8654  1.0694
  916TIP3   OH224238   5.618   4.910   6.088 -0.3934  0.0463  0.0710
  916TIP3    H124239   5.621   4.996   6.129 -0.7339 -0.2250  0.6750
  916TIP3    H224240   5.709   4.893   6.062 -0.1959  0.2676  0.6133
  917TIP3   OH224241   1.155   1.991   4.154 -0.1322  0.9530 -0.4365
  917TIP3    H124242   1.184   1.932   4.085 -3.3451  1.4819 -2.4258
  917TIP3    H224243   1.063   1.971   4.167 -1.1092  4.6785 -0.4047
  918TIP3   OH224244   2.492   0.081   1.422 -0.1924  0.2325  0.2133
  918TIP3    H124245   2.457   0.103   1.509  0.2011  0.3460  0.3445
  918TIP3    H224246   2.485  -0.014   1.417 -0.8302  0.2796  0.1039
  919TIP3   OH224247   5.964   0.990   0.521 -0.2089  0.3538  0.0992
  919TIP3    H124248   6.031   0.923   0.506 -0.5059  0.1095 -0.1329
  919TIP3    H224249   5.882   0.948   0.496 -0.8333 -0.2805  2.9171
  920TIP3   OH224250   3.435   2.190  16.998 -0.5329  0.0271 -0.0587
  920TIP3    H124251   3.490   2.261  16.964 -1.4033  0.4852 -0.5465
  920TIP3    H224252   3.495   2.116  17.009  0.2708  0.6566 -0.1090
  921TIP3   OH224253   4.867   2.876  15.056 -0.3107  0.3832 -0.1863
  921TIP3    H124254   4.961   2.861  15.047 -0.6491 -1.9174 -0.4924
  921TIP3    H224255   4.845   2.843  15.143 -0.7809  1.3681  0.0866
  922TIP3   OH224256   3.322   2.647   0.987  0.4126  0.0560  0.5141
  922TIP3    H124257   3.398   2.604   0.949 -0.2067 -0.7575  0.1791
  922TIP3    H224258   3.273   2.680   0.911 -0.0989 -0.3241  0.6796
  923TIP3   OH224259   0.727   5.713  11.788  0.2617 -0.6379  0.5427
  923TIP3    H124260   0.760   5.624  11.792 -0.5763 -1.0471 -0.7924
  923TIP3    H224261   0.632   5.703  11.784  0.0657  0.3994  1.9201
  924TIP3   OH224262   5.350   5.177   0.702  0.5918  0.3911 -0.1457
  924TIP3    H124263   5.261   5.181   0.667 -0.2226 -0.0097  1.7455
  924TIP3    H224264   5.399   5.127   0.637 -0.7457 -0.0017 -0.8941
  925TIP3   OH224265   0.589   0.991  13.608  0.1660 -0.0764  0.2875
  925TIP3    H124266   0.619   1.076  13.576  2.0545 -1.2420 -1.2807
  925TIP3    H224267   0.511   0.972  13.557  1.0086 -0.2435 -0.9697
  926TIP3   OH224268   4.131   2.840   4.116 -0.1013 -0.3526 -0.1910
  926TIP3    H124269   4.158   2.767   4.171  0.4794  0.7087  0.9974
  926TIP3    H224270   4.075   2.801   4.048  2.1133 -2.2224 -1.0469
  927TIP3   OH224271   5.728   4.759   0.779 -0.1185  0.0795  0.9407
  927TIP3    H124272   5.707   4.773   0.687 -1.5615  0.8679  1.3683
  927TIP3    H224273   5.714   4.665   0.793 -1.2162  0.1883  0.6591
  928TIP3   OH224274   4.007   4.506  13.750 -0.2624  0.3502  0.1912
  928TIP3    H124275   3.951   4.555  13.810 -0.2416 -0.1802  0.6570
  928TIP3    H224276   4.067   4.458  13.808  0.0665  0.2024 -0.2700
  929TIP3   OH224277   3.150   3.825   1.221 -0.0321 -0.1375 -0.5627
  929TIP3    H124278   3.213   3.897   1.222 -1.0931  0.8151 -0.5596
  929TIP3    H224279   3.149   3.792   1.310 -0.0047  0.2528 -0.4180
  930TIP3   OH224280   2.784   4.837  14.226 -0.0907 -0.1820 -0.3519
  930TIP3    H124281   2.760   4.826  14.318 -0.0915 -1.4459 -0.4839
  930TIP3    H224282   2.880   4.833  14.226 -0.0746  0.1665 -0.3725
  931TIP3   OH224283   6.794   0.872   3.212 -0.5182 -0.1301  0.0724
  931TIP3    H124284   6.716   0.823   3.237 -1.2299  0.8616 -0.1441
  931TIP3    H224285   6.778   0.899   3.122  1.2759 -2.1921 -0.9494
  932TIP3   OH224286   5.469   5.273  16.052 -0.3879  0.2220 -0.4182
  932TIP3    H124287   5.455   5.330  16.127  0.5659 -0.1402  0.0504
  932TIP3    H224288   5.504   5.331  15.984  2.2348 -0.0014  0.5886
  933TIP3   OH224289   2.671   3.260   4.705  0.0611  0.3398 -0.0365
  933TIP3    H124290   2.694   3.305   4.787  0.1360 -0.2366  0.2654
  933TIP3    H224291   2.576   3.259   4.704  0.0574  0.7916 -0.2046
  934TIP3   OH224292   0.894   6.057  11.020 -0.3023 -0.5227 -0.6124
  934TIP3    H124293   0.834   5.999  11.066 -0.6096  0.4185  0.2133
  934TIP3    H224294   0.858   6.064  10.931 -1.4414  0.0315 -0.1261
  935TIP3   OH224295   1.807   5.448  13.459 -0.0529 -0.3096 -0.7439
  935TIP3    H124296   1.740   5.381  13.468 -0.7676  0.5728  0.9468
  935TIP3    H224297   1.887   5.407  13.489 -0.2071 -0.7856 -0.9694
  936TIP3   OH224298   3.087   6.366  15.009 -0.4884  0.4685 -0.3996
  936TIP3    H124299   3.176   6.394  14.989 -0.4006 -0.2680 -1.1164
  936TIP3    H224300   3.058   6.322  14.929 -0.4765 -1.7837  0.7528
  937TIP3   OH224301   2.251   0.991  11.942 -0.1769  0.1603  0.8707
  937TIP3    H124302   2.254   0.895  11.936 -0.4738  0.2019 -0.0306
  937TIP3    H224303   2.203   1.008  12.023 -1.6515 -0.4682  0.1647
  938TIP3   OH224304   2.364   0.210   4.827 -0.5984  0.0021 -0.2400
  938TIP3    H124305   2.327   0.137   4.878 -1.9904  0.9314  0.1510
  938TIP3    H224306   2.400   0.269   4.893 -0.7273  0.3216 -0.4519
  939TIP3   OH224307   3.825   4.986   2.972 -0.2548 -0.3880  0.0749
  939TIP3    H124308   3.757   4.932   3.012 -0.6232 -0.9364 -1.2409
  939TIP3    H224309   3.778   5.064   2.942  0.3208  0.8715  2.2220
  940TIP3   OH224310   2.650   2.367  11.865 -0.0189 -0.2754 -0.0257
  940TIP3    H124311   2.656   2.283  11.819 -1.4132  0.8601 -2.4791
  940TIP3    H224312   2.557   2.375  11.888  0.0240  0.7725 -0.1900
  941TIP3   OH224313   1.291   6.415  10.395  0.0975  0.1494 -0.0579
  941TIP3    H124314   1.216   6.473  10.379  0.2539  0.1174 -0.9638
  941TIP3    H224315   1.296   6.360  10.316 -0.9150 -2.0821  1.3379
  942TIP3   OH224316   6.840   2.560  15.243  0.6395 -0.4184  0.0264
  942TIP3    H124317   6.863   2.648  15.272  0.7286 -0.4977  0.1963
  942TIP3    H224318   6.890   2.548  15.162  0.2491 -0.1284 -0.2631
  943TIP3   OH224319   1.905   6.194  16.111  0.1013 -0.4574 -0.3225
  943TIP3    H124320   1.977   6.161  16.165 -0.6844 -1.2971  0.2438
  943TIP3    H224321   1.875   6.273  16.156  0.5989 -0.1554 -0.5121
  944TIP3   OH224322   5.732   0.293  14.532  0.1213  0.5309 -0.5965
  944TIP3    H124323   5.827   0.295  14.526  0.4154 -2.6526  0.6417
  944TIP3    H224324   5.705   0.236  14.460 -1.0409  2.5370 -1.8153
  945TIP3   OH224325   2.422   5.758   2.008  0.4112 -0.1236  0.0824
  945TIP3    H124326   2.372   5.832   2.043  0.8223  0.7220 -1.0634
  945TIP3    H224327   2.493   5.745   2.072 -0.2933 -0.2527  0.8519
  946TIP3   OH224328   3.967   4.597  16.114 -0.3625  0.4312 -0.3633
  946TIP3    H124329   3.899   4.582  16.179 -0.2305  1.5961  0.0497
  946TIP3    H224330   4.023   4.519  16.120 -1.0320 -0.0309  0.0445
  947TIP3   OH224331   2.736   5.451  16.263  0.5936 -0.0076 -0.0641
  947TIP3    H124332   2.790   5.386  16.309  1.1132 -0.1449 -0.8414
  947TIP3    H224333   2.647   5.433  16.292  0.9242  0.0027  0.9850
  948TIP3   OH224334   5.692   2.082   4.887  0.8312  0.2545  0.2041
  948TIP3    H124335   5.703   2.097   4.981  0.3442  2.5310 -0.0541
  948TIP3    H224336   5.763   2.022   4.864  1.2793  0.0838  1.9113
  949TIP3   OH224337   5.063   0.745   0.968  0.2996  0.6273 -0.5868
  949TIP3    H124338   5.133   0.694   0.928 -0.8117 -0.5439 -1.0968
  949TIP3    H224339   5.009   0.773   0.895  1.0107  2.8163 -0.3529
  950TIP3   OH224340   4.745   3.362   0.739  0.5523  0.2210  0.0450
  950TIP3    H124341   4.791   3.316   0.810  0.8516  0.1436 -0.1973
  950TIP3    H224342   4.803   3.353   0.663  0.7734  1.2852  0.0761
  951TIP3   OH224343   6.555   2.057   1.232  0.1845  0.4172 -0.0978
  951TIP3    H124344   6.639   2.077   1.190  1.8056 -0.6893  2.3338
  951TIP3    H224345   6.504   2.012   1.165  1.7320  0.7267 -1.5309
  952TIP3   OH224346   6.826   5.956   1.874  0.1827  0.0413 -0.3119
  952TIP3    H124347   6.856   5.877   1.919 -0.4333  0.7928  1.4789
  952TIP3    H224348   6.761   5.995   1.932 -0.9639  0.8543 -2.0494
  953TIP3   OH224349   2.496   2.150  13.050 -0.6861 -0.3323  0.2520
  953TIP3    H124350   2.501   2.189  13.137 -1.1829 -0.7428  0.4701
  953TIP3    H224351   2.558   2.077  13.052  0.0766  0.2925 -0.0827
  954TIP3   OH224352   3.728   0.036   5.459 -0.2489  0.2237 -0.1639
  954TIP3    H124353   3.716  -0.013   5.377 -0.5168  1.8091 -1.1255
  954TIP3    H224354   3.665  -0.003   5.520 -1.1361  0.0087 -1.1891
  955TIP3   OH224355   2.921   2.680  13.532  0.0196 -0.3284 -0.4246
  955TIP3    H124356   2.895   2.643  13.617 -0.2632 -1.1641 -0.8692
  955TIP3    H224357   3.011   2.710  13.546 -0.2829  0.2636  0.3918
  956TIP3   OH224358   1.953   5.914   2.875 -0.0634  0.3838 -0.3628
  956TIP3    H124359   1.946   6.006   2.903  1.9007  0.8729 -1.3041
  956TIP3    H224360   2.005   5.917   2.795 -0.1862 -1.5477 -0.5644
  957TIP3   OH224361   1.294   3.875   1.371  0.2589  0.6361  0.0765
  957TIP3    H124362   1.229   3.932   1.329 -1.5812 -1.0280  0.5251
  957TIP3    H224363   1.275   3.788   1.338  3.9768  0.3189 -1.7567
  958TIP3   OH224364   3.246   5.588   5.887 -0.3325 -0.1954 -0.1930
  958TIP3    H124365   3.256   5.518   5.951 -1.2345 -0.9021 -0.7882
  958TIP3    H224366   3.325   5.583   5.834  1.4153  1.7229  2.0421
  959TIP3   OH224367   4.345   6.829   4.404  0.1554  0.3350 -0.4980
  959TIP3    H124368   4.424   6.817   4.457 -0.6531  0.1829  0.6937
  959TIP3    H224369   4.336   6.924   4.397  1.4911  0.3859 -2.2813
  960TIP3   OH224370   4.066   1.599  13.220 -0.3526  0.5887 -0.4021
  960TIP3    H124371   4.041   1.656  13.147 -0.6509  2.0352  0.7895
  960TIP3    H224372   3.983   1.570  13.258 -0.2917 -2.4850 -2.2679
  961TIP3   OH224373   4.908   2.314  16.352  0.5684  0.1021  0.5365
  961TIP3    H124374   4.838   2.340  16.412 -1.4737 -1.0205 -1.2177
  961TIP3    H224375   4.908   2.382  16.284  1.1047  0.0268  0.4592
  962TIP3   OH224376   2.995   4.372  15.282  0.2216  0.7725 -0.2603
  962TIP3    H124377   2.922   4.318  15.253  0.1086  1.0999 -0.5893
  962TIP3    H224378   2.993   4.366  15.377  0.0019  0.4737 -0.2822
  963TIP3   OH224379   4.635   2.389   6.135  0.3072 -0.1998  0.1382
  963TIP3    H124380   4.606   2.434   6.056  1.8290 -0.3012 -0.5015
  963TIP3    H224381   4.554   2.356   6.174 -0.4462 -0.4387 -1.5393
  964TIP3   OH224382   0.994   3.931  13.818 -0.5196 -0.1550  0.3888
  964TIP3    H124383   0.974   4.024  13.815  1.3111  0.3040  1.5315
  964TIP3    H224384   0.973   3.904  13.907  2.2860  0.0174  1.1831
  965TIP3   OH224385   3.131   2.199  12.689  0.1279 -0.9100 -0.3856
  965TIP3    H124386   3.081   2.203  12.770 -1.2525  0.4949 -1.2463
  965TIP3    H224387   3.113   2.111  12.655 -4.1574  0.3255 -1.9973
  966TIP3   OH224388   1.126   5.696  11.907  0.0129  0.1496  0.6434
  966TIP3    H124389   1.088   5.636  11.970 -1.8122  0.3606 -0.1873
  966TIP3    H224390   1.117   5.651  11.823  0.6461  0.6700  0.2875
  967TIP3   OH224391   2.378   5.206  13.085  0.5296 -0.3366 -0.0164
  967TIP3    H124392   2.313   5.175  13.149 -1.8679  4.0968  0.0480
  967TIP3    H224393   2.358   5.157  13.005 -0.7241 -1.3707  0.8990
  968TIP3   OH224394   4.643   5.415   4.169  0.1703  0.4180 -0.2959
  968TIP3    H124395   4.726   5.449   4.204  0.7500 -0.2468 -1.0125
  968TIP3    H224396   4.668   5.356   4.099 -0.9669  1.3669 -1.5500
  969TIP3   OH224397   1.832   0.563  15.916 -0.1428  0.1889 -0.3523
  969TIP3    H124398   1.772   0.564  15.842  1.7806 -1.3319 -2.0407
  969TIP3    H224399   1.820   0.478  15.956  0.7898 -0.1051 -0.6682
  970TIP3   OH224400   2.623   1.507   2.237 -0.1680 -0.2126 -0.2976
  970TIP3    H124401   2.684   1.511   2.162  0.3287 -1.6915  0.0011
  970TIP3    H224402   2.673   1.545   2.309 -0.1857  0.0429 -0.4171
  971TIP3   OH224403   3.050   5.699   5.265 -0.1962 -0.1860  0.5807
  971TIP3    H124404   3.038   5.794   5.258 -0.1768 -0.2169  0.1077
  971TIP3    H224405   3.104   5.677   5.189 -0.6702 -0.6594  0.3791
  972TIP3   OH224406   4.657   0.730  11.537 -0.4710  0.4119 -0.2830
  972TIP3    H124407   4.629   0.699  11.623 -2.8433  0.0955 -1.0901
  972TIP3    H224408   4.641   0.656  11.479  2.0812  0.2593 -0.9048
  973TIP3   OH224409   0.537   4.502  16.380 -0.1866  0.1944  0.0180
  973TIP3    H124410   0.453   4.519  16.422 -0.9657 -1.7963 -0.5869
  973TIP3    H224411   0.553   4.409  16.398  0.9620  0.0810 -1.4501
  974TIP3   OH224412   2.825   1.022   5.803  0.8168  0.1674 -0.3460
  974TIP3    H124413   2.790   1.035   5.715 -2.3602  0.1012  0.7879
  974TIP3    H224414   2.784   0.941   5.833  1.7406  0.2665  1.2644
  975TIP3   OH224415   4.394   1.531  15.700  0.2059 -0.2578  0.0071
  975TIP3    H124416   4.424   1.453  15.747 -0.5919 -0.2005  0.6365
  975TIP3    H224417   4.436   1.525  15.615  0.6976 -1.0212  0.2924
  976TIP3   OH224418   5.144   3.781   3.282 -0.0409  0.4327 -0.2300
  976TIP3    H124419   5.104   3.803   3.366 -0.1643  1.9791 -0.6475
  976TIP3    H224420   5.192   3.700   3.298 -1.7997 -0.4602  0.7662
  977TIP3   OH224421   2.158   0.507   4.985 -0.2768 -0.3472 -0.0168
  977TIP3    H124422   2.209   0.570   4.934 -1.0256  0.2836 -0.0006
  977TIP3    H224423   2.184   0.523   5.076 -0.8899  0.3474  0.0442
  978TIP3   OH224424   0.097   4.988  16.572 -0.1794 -0.5786  0.0474
  978TIP3    H124425   0.002   4.986  16.588 -0.1963 -1.4986 -0.1495
  978TIP3    H224426   0.109   5.059  16.510 -0.7059 -0.2740  0.2831
  979TIP3   OH224427   5.434   0.373  15.819 -0.2971  0.2422 -0.0105
  979TIP3    H124428   5.508   0.313  15.821 -1.4373 -1.2813 -0.6792
  979TIP3    H224429   5.367   0.330  15.872  0.2085  3.0084  3.2235
  980TIP3   OH224430   6.409   3.652   5.505  0.4927  0.3167  0.3453
  980TIP3    H124431   6.476   3.631   5.569 -0.9199 -1.3248  1.3824
  980TIP3    H224432   6.358   3.571   5.496 -0.1309  0.8766 -1.9203
  981TIP3   OH224433   6.649   4.994  12.767  0.3416  0.5769 -0.7153
  981TIP3    H124434   6.648   5.078  12.721  2.9173  1.6612  0.9630
  981TIP3    H224435   6.557   4.976  12.786 -0.4334  2.1087 -2.6618
  982TIP3   OH224436   0.875   4.970   0.159 -0.5405  0.3345 -0.3193
  982TIP3    H124437   0.916   4.988   0.243  0.0202  0.5437 -0.6319
  982TIP3    H224438   0.845   4.880   0.165  1.8257 -0.5527 -0.8119
  983TIP3   OH224439   0.609   5.197  11.684 -0.0482 -0.4311  0.2433
  983TIP3    H124440   0.673   5.159  11.743 -0.2208 -3.1853 -1.1923
  983TIP3    H224441   0.645   5.182  11.596 -1.8421 -0.5277 -0.5183
  984TIP3   OH224442   0.936   3.865  16.347  0.2675 -0.4719 -0.0357
  984TIP3    H124443   1.016   3.906  16.316 -0.9998  2.6488  0.4737
  984TIP3    H224444   0.905   3.814  16.273  1.8041 -0.3439 -0.8079
  985TIP3   OH224445   5.221   0.931   4.728  0.1738 -0.1934 -0.1890
  985TIP3    H124446   5.311   0.901   4.713  0.0480  0.0972 -1.6161
  985TIP3    H224447   5.223   1.025   4.708 -0.6412 -0.3671 -1.1537
  986TIP3   OH224448   1.954   2.808   3.437  0.5468  0.5014 -0.0202
  986TIP3    H124449   1.975   2.806   3.530  0.7764  0.8791 -0.0581
  986TIP3    H224450   1.859   2.799   3.433  0.6985 -1.6590  0.1384
  987TIP3   OH224451   2.697   4.269  14.783  0.6162  0.0111 -0.0652
  987TIP3    H124452   2.792   4.274  14.777  0.6691 -1.8787 -2.2788
  987TIP3    H224453   2.665   4.317  14.707 -0.4876  3.5568  2.3588
  988TIP3   OH224454   2.156   0.379   1.312 -0.2523  0.1494  0.7195
  988TIP3    H124455   2.085   0.403   1.372 -1.4143 -1.6232  0.1265
  988TIP3    H224456   2.136   0.424   1.230 -0.4575 -0.0129  0.6813
  989TIP3   OH224457   0.534   1.350   2.184 -0.7340  0.5980 -0.1676
  989TIP3    H124458   0.588   1.427   2.164  0.3401  0.1056  0.7462
  989TIP3    H224459   0.578   1.278   2.139 -1.0725  0.3158 -0.0508
  990TIP3   OH224460   0.941   0.391  13.820  0.4783  0.1101  0.2079
  990TIP3    H124461   0.877   0.428  13.760  1.5400  1.0592 -0.3873
  990TIP3    H224462   0.947   0.454  13.892  0.0099 -0.4782  0.7688
  991TIP3   OH224463   2.093   5.643  17.063 -0.2711 -0.3086  0.7046
  991TIP3    H124464   2.147   5.567  17.039  0.4703  0.1340  0.9373
  991TIP3    H224465   2.057   5.619  17.149 -0.6558 -0.7095  0.4390
  992TIP3   OH224466   1.495   1.269  12.813  0.4065 -0.1505 -0.4901
  992TIP3    H124467   1.513   1.239  12.723 -0.9382 -0.4176 -0.6869
  992TIP3    H224468   1.500   1.364  12.807  2.2801 -0.1940 -0.3903
  993TIP3   OH224469   6.381   1.329  16.301  0.2006  0.0898 -0.2688
  993TIP3    H124470   6.325   1.362  16.371  0.5332  1.9411 -0.8109
  993TIP3    H224471   6.426   1.407  16.268 -0.2797 -0.6239 -2.8267
  994TIP3   OH224472   2.065   1.440   0.812 -0.4086  0.6761  0.5495
  994TIP3    H124473   2.100   1.373   0.753  1.2136  0.0707  2.1319
  994TIP3    H224474   2.103   1.522   0.779  1.9242  0.1399  1.6880
  995TIP3   OH224475   5.371   6.220   4.881  0.5245  0.0490  1.2831
  995TIP3    H124476   5.370   6.146   4.941  0.2277 -2.2548 -1.3575
  995TIP3    H224477   5.464   6.232   4.859  0.5786  0.5433  1.7504
  996TIP3   OH224478   5.005   1.187   3.249 -0.5151 -0.2621 -0.5089
  996TIP3    H124479   4.987   1.108   3.197 -0.6529 -0.6049  0.0451
  996TIP3    H224480   5.035   1.252   3.185  1.8665 -1.4418 -0.7295
  997TIP3   OH224481   4.231   4.934  12.378  0.0207 -0.0895  0.2894
  997TIP3    H124482   4.197   5.023  12.385 -1.5349 -0.6960  0.9400
  997TIP3    H224483   4.154   4.880  12.359  0.1416 -1.8198  3.9165
  998TIP3   OH224484   0.571   5.340  11.932  0.2003  0.2278  0.3060
  998TIP3    H124485   0.592   5.297  11.849 -1.4049 -1.1457  0.5471
  998TIP3    H224486   0.589   5.274  11.999  3.4345  1.9831  1.3429
  999TIP3   OH224487   0.666   4.161   2.184  0.4599  1.0624 -0.5254
  999TIP3    H124488   0.724   4.114   2.245 -2.7591 -0.3180  1.7391
  999TIP3    H224489   0.673   4.111   2.103  0.7265 -0.4841  0.3960
 1000TIP3   OH224490   2.571   3.696  11.842 -0.6145 -0.2720 -0.5639
 1000TIP3    H124491   2.633   3.640  11.795 -0.0324  1.1321 -1.5300
 1000TIP3    H224492   2.543   3.643  11.916  2.1494 -0.7840  0.2343
 1001TIP3   OH224493   4.186   0.387  16.361 -0.5026 -0.5846 -0.8221
 1001TIP3    H124494   4.118   0.432  16.412 -0.4514 -0.0156 -1.2465
 1001TIP3    H224495   4.263   0.444  16.369 -0.2034 -1.0038 -0.7050
 1002TIP3   OH224496   3.176   5.124  12.967 -0.5041  0.4630 -0.1384
 1002TIP3    H124497   3.112   5.057  12.941 -0.6322  0.4133  0.2958
 1002TIP3    H224498   3.171   5.190  12.898  2.1039 -1.5813 -2.4900
 1003TIP3   OH224499   1.612   5.886  14.080  0.7840  0.3317  0.9786
 1003TIP3    H124500   1.680   5.897  14.013 -0.3626  2.3197  0.0555
 1003TIP3    H224501   1.652   5.827  14.144  2.3216 -0.8165 -0.9063
 1004TIP3   OH224502   0.288   3.112   4.445 -0.5916  0.8459 -0.0958
 1004TIP3    H124503   0.325   3.031   4.410  0.9208  1.3332  0.3099
 1004TIP3    H224504   0.251   3.157   4.369 -0.3646  0.3253 -0.5126
 1005TIP3   OH224505   0.499   5.725   3.658  0.3008  0.0677  0.2918
 1005TIP3    H124506   0.489   5.719   3.753 -0.9539  2.2718  0.3572
 1005TIP3    H224507   0.411   5.708   3.624  0.0331  2.2484 -0.2482
 1006TIP3   OH224508   4.325   5.598  16.710 -0.0603 -0.4451  0.3614
 1006TIP3    H124509   4.275   5.537  16.655 -0.4886 -1.2097  1.5495
 1006TIP3    H224510   4.307   5.684  16.673  0.9807 -1.0361 -1.7022
 1007TIP3   OH224511   0.812   0.186  13.266 -0.1643 -0.4401 -0.6167
 1007TIP3    H124512   0.737   0.189  13.325 -0.8884  0.7307 -1.5710
 1007TIP3    H224513   0.887   0.203  13.322 -0.2208 -3.9769  0.8279
 1008TIP3   OH224514   4.434   4.490  11.531 -0.3404 -0.5450  0.1600
 1008TIP3    H124515   4.461   4.401  11.509 -0.4093 -0.1915 -1.4883
 1008TIP3    H224516   4.515   4.540  11.534 -0.3714 -0.5026  0.3273
 1009TIP3   OH224517   0.610   3.434   5.687 -0.0789  0.2011 -0.1692
 1009TIP3    H124518   0.587   3.361   5.630 -0.0557 -0.8267  1.0956
 1009TIP3    H224519   0.576   3.409   5.773  0.8512  1.2026  0.5138
 1010TIP3   OH224520   4.801   2.677  15.256 -0.0292 -0.5339  0.8078
 1010TIP3    H124521   4.843   2.654  15.338 -0.3948 -2.8205  0.4032
 1010TIP3    H224522   4.820   2.604  15.197 -0.9349  0.3917 -0.7167
 1011TIP3   OH224523   6.221   5.338  15.113 -0.0933 -0.2264 -0.4381
 1011TIP3    H124524   6.213   5.252  15.074  2.1405 -0.5851 -0.2738
 1011TIP3    H224525   6.315   5.347  15.132 -0.2036  2.3486 -0.7167
 1012TIP3   OH224526   3.338   5.406   5.184  0.2007 -0.5384  0.0146
 1012TIP3    H124527   3.422   5.444   5.210  0.1696 -0.5993  0.2094
 1012TIP3    H224528   3.280   5.481   5.176 -0.3892 -0.6748  2.3629
 1013TIP3   OH224529   4.158   1.146  12.565  0.4096  0.3046  0.0529
 1013TIP3    H124530   4.148   1.123  12.657 -3.3157  2.3446  0.3368
 1013TIP3    H224531   4.248   1.177  12.558  0.5835  0.8330  3.1944
 1014TIP3   OH224532   0.169   4.056  17.182 -0.0965  0.5526 -0.1874
 1014TIP3    H124533   0.264   4.058  17.193 -0.1766 -1.9594  2.1376
 1014TIP3    H224534   0.136   4.116  17.249 -0.1450 -0.0528  0.3475
 1015TIP3   OH224535   5.627   3.583   1.898 -0.1407  0.6247 -0.3316
 1015TIP3    H124536   5.544   3.621   1.928 -1.4202 -0.4721 -2.1902
 1015TIP3    H224537   5.630   3.497   1.939 -0.5381  0.2147 -1.1169
 1016TIP3   OH224538   3.070   1.164  11.741 -0.0845 -0.3840 -0.3953
 1016TIP3    H124539   3.154   1.143  11.701  0.4872 -0.0615  0.5854
 1016TIP3    H224540   3.053   1.093  11.803  0.6857  0.7468  1.1821
 1017TIP3   OH224541   4.981   2.456  15.679 -0.4649  0.0603  0.3758
 1017TIP3    H124542   5.019   2.368  15.674 -2.0902 -0.6542  0.1573
 1017TIP3    H224543   4.899   2.444  15.726 -1.7769  1.0803 -1.5397
 1018TIP3   OH224544   4.061   3.176   6.722  0.3608 -0.2352 -0.1927
 1018TIP3    H124545   4.067   3.252   6.778 -2.0321 -1.1968  1.5140
 1018TIP3    H224546   3.999   3.201   6.653 -0.1744 -0.5119  0.1826
 1019TIP3   OH224547   3.991   0.590   2.370  0.1415  0.6865 -0.0851
 1019TIP3    H124548   4.019   0.628   2.453 -0.0527  1.6193 -0.4246
 1019TIP3    H224549   3.908   0.547   2.389  0.5597  0.0780  0.3942
 1020TIP3   OH224550   4.838   2.034   5.048 -0.1181 -0.2345  0.0774
 1020TIP3    H124551   4.917   2.084   5.072 -0.6620  0.8578 -0.3307
 1020TIP3    H224552   4.850   2.014   4.956 -1.2057  1.7055 -0.5316
 1021TIP3   OH224553   2.814   2.482  16.136  0.2798 -0.1900 -0.0910
 1021TIP3    H124554   2.760   2.426  16.191 -1.6006  0.2671 -1.3564
 1021TIP3    H224555   2.838   2.555  16.192 -1.7739  0.3875  0.1113
 1022TIP3   OH224556   5.201   1.115  16.121  0.1466 -0.4240  0.2760
 1022TIP3    H124557   5.188   1.060  16.044  1.3331 -0.3047 -0.0299
 1022TIP3    H224558   5.292   1.144  16.115  0.1719 -0.1650  1.5579
 1023TIP3   OH224559   2.538   0.495  16.162  1.1488  0.2684  0.2906
 1023TIP3    H124560   2.626   0.535  16.164  1.1799  0.1828  0.5250
 1023TIP3    H224561   2.481   0.567  16.134  1.1155  0.6430  1.3044
 1024TIP3   OH224562   2.167   4.783   1.082 -0.0055 -0.3856 -0.1217
 1024TIP3    H124563   2.139   4.871   1.055  0.4404 -0.0883  0.3483
 1024TIP3    H224564   2.205   4.796   1.169  2.9309 -0.4851 -1.2646
 1025TIP3   OH224565   6.481   3.308   4.351  0.0053 -0.4755  0.1012
 1025TIP3    H124566   6.557   3.251   4.345 -1.0349 -1.8602 -0.2941
 1025TIP3    H224567   6.443   3.308   4.263 -0.7112 -0.1871  0.3991
 1026TIP3   OH224568   1.381   2.953   0.671 -0.8882 -0.1928  0.0469
 1026TIP3    H124569   1.389   2.886   0.603 -1.2973 -0.4486  0.2450
 1026TIP3    H224570   1.467   2.996   0.672 -0.7868 -0.3732 -0.4317
 1027TIP3   OH224571   2.357   2.994  11.176  0.3825  0.1469 -0.7599
 1027TIP3    H124572   2.316   3.072  11.213  1.3413 -0.2218  1.2274
 1027TIP3    H224573   2.285   2.934  11.160 -0.1666  0.6860 -0.3671
 1028TIP3   OH224574   5.802   4.949   3.058  0.0826  0.5235 -0.1758
 1028TIP3    H124575   5.787   4.938   3.152  0.9681 -0.2809 -0.1130
 1028TIP3    H224576   5.718   4.978   3.024 -0.6577 -0.5428  0.6512
 1029TIP3   OH224577   1.022   5.358   1.038  0.0720  0.0359  0.8244
 1029TIP3    H124578   1.073   5.285   1.073 -0.7120 -0.6403  0.5938
 1029TIP3    H224579   1.041   5.431   1.096 -0.0975 -0.6870  1.8187
 1030TIP3   OH224580   3.176   6.157  12.882  0.1306  0.3436  0.1098
 1030TIP3    H124581   3.208   6.241  12.848 -0.7730  1.1860  1.2996
 1030TIP3    H224582   3.197   6.094  12.812 -1.3579  1.9356 -1.8991
 1031TIP3   OH224583   4.998   1.547   1.932 -0.1921 -0.6900 -0.0558
 1031TIP3    H124584   4.914   1.513   1.964 -0.1330 -0.7307  0.0558
 1031TIP3    H224585   5.018   1.621   1.989  0.3636 -1.3222  0.5968
 1032TIP3   OH224586   2.301   5.409  15.007 -0.0831 -0.2642  0.1006
 1032TIP3    H124587   2.356   5.450  15.074 -0.0045  1.4700 -0.9621
 1032TIP3    H224588   2.341   5.436  14.924 -0.7064 -1.6246 -0.6701
 1033TIP3   OH224589   4.691   1.305  12.232 -0.1292  0.0948  0.2920
 1033TIP3    H124590   4.674   1.328  12.324 -0.7504 -0.1236  0.2379
 1033TIP3    H224591   4.626   1.237  12.212 -0.5475  0.7256 -0.5535
 1034TIP3   OH224592   3.199   0.994   6.395 -0.3662  0.1838 -0.5618
 1034TIP3    H124593   3.155   1.030   6.472  0.6132 -0.0674  0.1257
 1034TIP3    H224594   3.225   1.071   6.345 -0.0260  0.3897 -0.0795
 1035TIP3   OH224595   5.442   0.214  13.880  0.0659  0.4816 -0.1266
 1035TIP3    H124596   5.523   0.240  13.925 -0.4338  0.0257  1.0905
 1035TIP3    H224597   5.384   0.289  13.889 -1.2086 -0.7123  2.9740
 1036TIP3   OH224598   1.782   0.352  12.628 -0.5919 -0.5681 -0.1312
 1036TIP3    H124599   1.795   0.339  12.534  1.3663 -0.4710  0.0881
 1036TIP3    H224600   1.870   0.350  12.665 -1.2782 -0.0006  1.6391
 1037TIP3   OH224601   3.710   5.434   3.309 -0.2878  0.1304 -0.6511
 1037TIP3    H124602   3.626   5.479   3.315  0.0238  0.6965 -0.3624
 1037TIP3    H224603   3.757   5.462   3.388 -0.7594 -2.1565  0.5493
 1038TIP3   OH224604   3.549   2.574  15.370 -0.2861 -0.2003  0.1298
 1038TIP3    H124605   3.505   2.492  15.347  1.9050 -1.1325 -1.0859
 1038TIP3    H224606   3.554   2.572  15.466 -1.3094 -0.8797  0.1871
 1039TIP3   OH224607   5.411   0.776  15.795 -0.2003  0.4960  0.0447
 1039TIP3    H124608   5.387   0.786  15.887  1.3034 -0.7867  0.6278
 1039TIP3    H224609   5.507   0.782  15.795 -0.1170 -0.5217 -1.2925
 1040TIP3   OH224610   3.529   5.686   4.859 -0.5039 -0.0404  0.4186
 1040TIP3    H124611   3.454   5.627   4.858  1.0287 -2.0942 -0.9256
 1040TIP3    H224612   3.597   5.637   4.906  1.1825  0.0994 -1.7337
 1041TIP3   OH224613   5.622   0.858   5.034 -0.5181 -0.3952  0.5261
 1041TIP3    H124614   5.696   0.854   5.094  0.4560  0.6791 -0.5419
 1041TIP3    H224615   5.546   0.834   5.087  0.6445 -1.9667  1.5353
 1042TIP3   OH224616   3.794   4.211   0.886 -0.4892  0.0001  0.4092
 1042TIP3    H124617   3.738   4.134   0.883 -2.0022  1.0053  1.3412
 1042TIP3    H224618   3.746   4.277   0.835  0.4467  0.5375  0.1929
 1043TIP3   OH224619   0.891   1.909   4.138 -0.4801 -0.1497 -0.4454
 1043TIP3    H124620   0.835   1.917   4.215 -2.7106 -0.3947 -1.9353
 1043TIP3    H224621   0.894   1.814   4.121  0.0364 -0.1020 -0.6253
 1044TIP3   OH224622   1.980   1.270   4.566 -0.1722  0.5536  0.2369
 1044TIP3    H124623   2.012   1.252   4.654  1.3513 -0.3914 -0.4677
 1044TIP3    H224624   2.059   1.282   4.514 -1.0402  0.8885 -1.0503
 1045TIP3   OH224625   5.395   4.537   5.572  0.5418 -0.8018 -0.2379
 1045TIP3    H124626   5.431   4.526   5.660  0.0242 -0.7048 -0.0119
 1045TIP3    H224627   5.318   4.482   5.570  0.0570 -0.1288 -0.3384
 1046TIP3   OH224628   1.618   0.383  12.263  0.8048  0.3493 -0.0119
 1046TIP3    H124629   1.644   0.472  12.284 -0.4578  1.0338 -1.1894
 1046TIP3    H224630   1.557   0.358  12.332 -0.8655  1.3993 -1.0554
 1047TIP3   OH224631   2.201   2.751   3.923 -0.2585 -0.2201  0.2125
 1047TIP3    H124632   2.287   2.711   3.920  0.0906  0.3616  1.6273
 1047TIP3    H224633   2.200   2.801   4.005 -1.7438  0.2172 -0.0310
 1048TIP3   OH224634   0.086   5.209   2.730  0.5685  0.5216 -0.5851
 1048TIP3    H124635   0.110   5.227   2.822 -0.6704 -0.7610  0.0181
 1048TIP3    H224636   0.047   5.291   2.700 -0.0402  0.6167  0.4033
 1049TIP3   OH224637   6.584   2.655  15.081  0.0233 -0.3567 -0.4917
 1049TIP3    H124638   6.564   2.656  15.174  1.5704  0.2673 -0.1387
 1049TIP3    H224639   6.624   2.570  15.065 -0.0203 -0.3685 -0.5413
 1050TIP3   OH224640   2.577   2.643  13.367 -0.0285 -0.5031 -0.0657
 1050TIP3    H124641   2.613   2.731  13.355 -1.3457 -0.1951 -2.3405
 1050TIP3    H224642   2.651   2.584  13.353  0.6458  0.1974  0.4504
 1051TIP3   OH224643   6.067   1.048  17.191 -0.2167  0.3205 -0.3359
 1051TIP3    H124644   6.062   0.954  17.174 -0.3376  0.9521 -5.3001
 1051TIP3    H224645   6.157   1.072  17.168 -0.7182  1.6449 -1.0358
 1052TIP3   OH224646   3.632   3.922   0.076 -0.2731  0.1765 -0.1779
 1052TIP3    H124647   3.715   3.887   0.044  0.7566  1.4920  0.9014
 1052TIP3    H224648   3.607   3.864   0.148 -0.0853  0.0051 -0.2505
 1053TIP3   OH224649   5.436   3.979   4.281 -0.5686 -0.2489  0.2496
 1053TIP3    H124650   5.499   4.027   4.227 -0.8115  0.3637  0.4979
 1053TIP3    H224651   5.393   3.919   4.221  0.9969 -1.4581  0.2728
 1054TIP3   OH224652   2.237   6.480   0.716 -0.5806 -0.2199  0.2163
 1054TIP3    H124653   2.323   6.468   0.677 -0.3544  2.0977 -0.1179
 1054TIP3    H224654   2.252   6.536   0.792 -1.8908  1.3112 -0.5793
 1055TIP3   OH224655   5.709   5.218   5.534  0.6055  0.6023 -0.1266
 1055TIP3    H124656   5.668   5.132   5.537  1.7359  0.0799  1.4920
 1055TIP3    H224657   5.636   5.278   5.519 -0.5493 -0.4245  1.1247
 1056TIP3   OH224658   1.815   3.248   5.386 -0.1843 -0.0299  0.0974
 1056TIP3    H124659   1.793   3.162   5.349 -1.2654  0.0167  0.5801
 1056TIP3    H224660   1.816   3.235   5.480  0.8848  0.2270  0.1366
 1057TIP3   OH224661   0.514   5.036  16.884  0.4119  0.0604 -0.0112
 1057TIP3    H124662   0.602   5.010  16.910 -0.2485 -2.2538  0.0737
 1057TIP3    H224663   0.510   5.019  16.790  0.4446  1.4774 -0.3038
 1058TIP3   OH224664   3.897   5.707   0.015  0.3001 -0.2093 -0.0583
 1058TIP3    H124665   3.837   5.698  -0.060  0.1997 -0.2990  0.0335
 1058TIP3    H224666   3.962   5.637   0.001  0.0175 -0.5242  0.1864
 1059TIP3   OH224667   0.047   3.691   0.612 -0.1369 -0.0647 -0.0797
 1059TIP3    H124668   0.067   3.725   0.525  0.6549 -0.5514 -0.1007
 1059TIP3    H224669  -0.047   3.708   0.624 -0.0685  0.7752 -0.6707
 1060TIP3   OH224670   4.556   1.101  16.869  0.1943  0.0847  0.2160
 1060TIP3    H124671   4.629   1.116  16.808 -0.4461  0.6905 -0.4210
 1060TIP3    H224672   4.547   1.006  16.872  0.5064  0.0320 -0.3173
 1061TIP3   OH224673   5.023   1.425  12.790 -0.0740  0.0421 -0.1330
 1061TIP3    H124674   5.020   1.497  12.727 -0.6513 -0.1552 -0.3320
 1061TIP3    H224675   4.980   1.460  12.868  2.1157  0.8804  0.7940
 1062TIP3   OH224676   3.631   0.131  14.001 -0.0898  0.0219 -0.4679
 1062TIP3    H124677   3.572   0.206  14.008 -0.3962 -0.2872  0.3782
 1062TIP3    H224678   3.666   0.120  14.090  1.7333  0.5847 -1.0738
 1063TIP3   OH224679   4.340   3.677   1.110 -0.1257 -1.0898  0.1322
 1063TIP3    H124680   4.390   3.647   1.186  0.8952  2.1878  0.9247
 1063TIP3    H224681   4.396   3.744   1.070 -2.6169  0.5936 -0.7314
 1064TIP3   OH224682   3.434   2.503   0.090 -0.4122  0.1033 -0.8359
 1064TIP3    H124683   3.389   2.469   0.167  0.6417 -0.6646 -0.5441
 1064TIP3    H224684   3.383   2.471   0.016  0.3054 -1.8056 -0.5545
 1065TIP3   OH224685   4.038   4.404   1.885  0.7582  0.0810  0.5174
 1065TIP3    H124686   4.007   4.320   1.851  0.7187 -0.0724  0.9232
 1065TIP3    H224687   4.001   4.409   1.973  0.4574  0.6933  0.3627
 1066TIP3   OH224688   4.776   1.515   2.460 -0.1002 -0.4778  0.3172
 1066TIP3    H124689   4.757   1.484   2.372 -1.0496 -1.0040  0.7003
 1066TIP3    H224690   4.870   1.532   2.459 -0.3296  0.9677 -1.2388
 1067TIP3   OH224691   6.575   2.397  15.751 -0.0465 -0.4129 -0.0538
 1067TIP3    H124692   6.567   2.492  15.741  2.3666  0.0119  1.0796
 1067TIP3    H224693   6.667   2.379  15.730 -0.0957 -2.2739  1.0831
 1068TIP3   OH224694   4.988   6.313   3.174  0.1197  0.2669  0.1149
 1068TIP3    H124695   5.055   6.341   3.110  0.3148 -1.4373 -0.4832
 1068TIP3    H224696   5.038   6.267   3.241 -0.5167 -2.8216 -1.3466
 1069TIP3   OH224697   4.805   0.110  15.879 -0.0075 -0.5454 -0.2842
 1069TIP3    H124698   4.878   0.141  15.932 -0.2019 -0.4354 -0.0852
 1069TIP3    H224699   4.843   0.098  15.791  0.0553  0.2802 -0.3726
 1070TIP3   OH224700   3.795   3.976   5.640  0.2988 -0.1005 -0.2607
 1070TIP3    H124701   3.762   4.052   5.686  0.9178 -0.6282  1.1028
 1070TIP3    H224702   3.884   4.001   5.612 -0.5168  0.6789 -2.3676
 1071TIP3   OH224703   2.459   1.247   3.433 -0.6066  0.1572 -0.0130
 1071TIP3    H124704   2.382   1.231   3.487  0.0947  0.2864  1.0482
 1071TIP3    H224705   2.527   1.272   3.495  0.3095 -0.0155 -0.9285
 1072TIP3   OH224706   3.888   6.152  10.295 -0.5385 -0.8521  0.1531
 1072TIP3    H124707   3.866   6.213  10.366 -0.6072 -0.0276 -0.5669
 1072TIP3    H224708   3.838   6.073  10.316  0.4639 -1.1248  1.7365
 1073TIP3   OH224709   0.001   4.256   4.496 -0.9661 -0.3463 -0.3235
 1073TIP3    H124710   0.075   4.208   4.532 -0.9136 -0.9670 -1.2303
 1073TIP3    H224711  -0.036   4.197   4.430 -0.2863  1.2275 -2.1995
 1074TIP3   OH224712   3.017   6.624  15.097 -0.2312 -0.2100 -0.7434
 1074TIP3    H124713   3.025   6.529  15.090  0.8653 -0.0121 -2.9866
 1074TIP3    H224714   2.938   6.638  15.150  0.6145 -2.3316  1.2289
 1075TIP3   OH224715   1.508   5.646   4.337 -0.2007 -0.2688  0.4545
 1075TIP3    H124716   1.500   5.664   4.243  1.7688 -0.7710  0.1414
 1075TIP3    H224717   1.600   5.621   4.349  0.1109  1.6026  2.8275
 1076TIP3   OH224718   3.952   3.501  16.226  0.1230 -0.5331 -0.1398
 1076TIP3    H124719   3.881   3.565  16.232  0.5479  0.1207 -1.7590
 1076TIP3    H224720   3.908   3.417  16.238 -0.6273 -0.0402  0.7916
 1077TIP3   OH224721   4.237   2.339  16.032  0.2215 -0.2364  0.0688
 1077TIP3    H124722   4.146   2.367  16.018  0.2646 -1.0486 -2.2724
 1077TIP3    H224723   4.238   2.306  16.122 -1.3626  1.3168  0.7251
 1078TIP3   OH224724   4.197   5.129   4.567  0.1226  0.2253  0.0207
 1078TIP3    H124725   4.168   5.058   4.511 -0.1270  0.8853 -0.7089
 1078TIP3    H224726   4.293   5.126   4.562  0.1520 -0.6447  0.7659
 1079TIP3   OH224727   5.101   1.135   2.868  0.3590  0.0930  0.0846
 1079TIP3    H124728   5.177   1.083   2.894 -1.5894 -2.4706  1.0956
 1079TIP3    H224729   5.061   1.163   2.951 -0.8640 -0.3018 -0.3434
 1080TIP3   OH224730   3.993   4.526   4.747  0.2535 -0.5896  0.2951
 1080TIP3    H124731   3.983   4.618   4.723 -2.4203 -1.2049 -1.3350
 1080TIP3    H224732   3.986   4.526   4.843 -0.0348  0.8483  0.3048
 1081TIP3   OH224733   5.794   0.437  16.787 -0.2208  0.0340 -0.5950
 1081TIP3    H124734   5.796   0.382  16.709 -1.0310 -2.1958  0.8638
 1081TIP3    H224735   5.718   0.494  16.774 -1.5555 -1.6626 -0.6357
 1082TIP3   OH224736   5.163   5.778   2.495  0.1056 -0.0650 -0.2163
 1082TIP3    H124737   5.205   5.861   2.474 -1.4435  0.9273  0.5161
 1082TIP3    H224738   5.076   5.801   2.525 -1.2335 -2.1038 -2.2100
 1083TIP3   OH224739   1.498   0.954  15.436 -0.3400  0.1093  0.0028
 1083TIP3    H124740   1.471   1.036  15.478  0.2818  0.6771 -0.6819
 1083TIP3    H224741   1.442   0.888  15.476 -0.9770  0.8869  0.4461
 1084TIP3   OH224742   2.309   4.052  14.930 -0.6271  0.0512 -0.2878
 1084TIP3    H124743   2.301   4.091  14.843  0.3465 -1.4917 -1.1322
 1084TIP3    H224744   2.379   3.987  14.920 -0.7248 -0.3973  1.5733
 1085TIP3   OH224745   4.869   6.182   0.152  0.4393 -0.3203 -0.3542
 1085TIP3    H124746   4.916   6.121   0.208  1.0185 -2.5220 -3.0612
 1085TIP3    H224747   4.910   6.174   0.067 -0.8119  2.4111 -1.3343
 1086TIP3   OH224748   3.067   4.683  11.641 -0.1077  0.0828  0.8068
 1086TIP3    H124749   3.121   4.741  11.588  0.0464 -0.6613  0.1385
 1086TIP3    H224750   3.003   4.741  11.683  0.6148  0.8480  0.8744
 1087TIP3   OH224751   2.202   2.495   2.535  0.0418 -0.1474  0.4156
 1087TIP3    H124752   2.214   2.513   2.442 -1.3042  0.2272  0.2961
 1087TIP3    H224753   2.248   2.412   2.550  1.8074  0.6752 -0.1728
 1088TIP3   OH224754   4.405   2.608   2.426 -0.0331  0.6475  0.2434
 1088TIP3    H124755   4.479   2.568   2.473  0.7853 -0.1043 -1.6030
 1088TIP3    H224756   4.329   2.586   2.479  0.7311 -1.0289  0.7076
 1089TIP3   OH224757   3.662   1.499   6.097 -0.1324  0.3460 -0.3071
 1089TIP3    H124758   3.626   1.410   6.093 -0.1227  0.3465 -0.3886
 1089TIP3    H224759   3.671   1.526   6.006  3.5651 -1.0502 -0.5334
 1090TIP3   OH224760   1.680   6.503  14.145  0.2184  0.2171 -0.4965
 1090TIP3    H124761   1.775   6.513  14.132  0.4459  0.1431  0.9608
 1090TIP3    H224762   1.647   6.593  14.146  0.2406  0.2368 -1.1940
 1091TIP3   OH224763   0.672   5.186   5.089 -0.1619  0.1930  0.3992
 1091TIP3    H124764   0.620   5.264   5.070  0.1780  0.4329  0.4544
 1091TIP3    H224765   0.620   5.114   5.053 -0.1425  0.5129 -0.2745
 1092TIP3   OH224766   3.827   1.057   4.445 -0.5449 -0.0536  0.4769
 1092TIP3    H124767   3.741   1.061   4.485 -0.3976 -0.4066  0.8373
 1092TIP3    H224768   3.888   1.083   4.514 -0.2417 -1.1697  0.6604
 1093TIP3   OH224769   4.854   5.596  11.434 -0.0550 -0.1712  0.1520
 1093TIP3    H124770   4.910   5.644  11.373  0.3131 -0.7105  0.0631
 1093TIP3    H224771   4.789   5.553  11.378  1.6603 -2.5948 -0.1573
 1094TIP3   OH224772   1.435   2.185   5.952 -0.1985 -0.1849  0.3005
 1094TIP3    H124773   1.387   2.117   5.999 -1.9758  0.7971 -0.0284
 1094TIP3    H224774   1.526   2.155   5.952 -0.8735 -2.3369  0.5118
 1095TIP3   OH224775   2.030   3.620  12.650 -1.0467  0.0191 -0.0996
 1095TIP3    H124776   2.027   3.670  12.731 -2.0241 -0.5476  0.2320
 1095TIP3    H224777   2.021   3.686  12.581 -0.8883  0.4367  0.2756
 1096TIP3   OH224778   1.433   5.276   3.155  0.0448  0.0478 -0.6958
 1096TIP3    H124779   1.424   5.366   3.122 -1.7949 -0.0047 -0.4110
 1096TIP3    H224780   1.407   5.221   3.081 -0.0888 -0.2127 -0.4534
 1097TIP3   OH224781   5.976   1.454   1.916 -0.4894 -0.3715  0.1635
 1097TIP3    H124782   5.910   1.506   1.870 -1.6153 -1.4540  0.5086
 1097TIP3    H224783   6.033   1.422   1.846 -0.8404 -0.1382 -0.2341
 1098TIP3   OH224784   0.833   3.682  10.939  0.0596 -0.5003 -0.1520
 1098TIP3    H124785   0.809   3.604  10.988  1.1197 -1.1916 -0.6782
 1098TIP3    H224786   0.753   3.735  10.935 -0.6817 -1.5753  0.1763
 1099TIP3   OH224787   4.650   0.132  10.737 -0.2378 -0.6113 -0.4729
 1099TIP3    H124788   4.688   0.219  10.750 -1.0827 -0.0458 -1.7159
 1099TIP3    H224789   4.630   0.127  10.644 -2.1095 -1.3507 -0.0782
 1100TIP3   OH224790   2.630   4.185   3.953 -0.7721  0.4394  0.3460
 1100TIP3    H124791   2.703   4.174   4.014 -0.7452 -1.2980  0.0689
 1100TIP3    H224792   2.613   4.279   3.952  0.6749  0.7496  1.3296
 1101TIP3   OH224793   2.072   6.490  14.188  0.0810  0.5227 -0.2180
 1101TIP3    H124794   2.080   6.549  14.264 -1.1219  1.0433 -0.4755
 1101TIP3    H224795   2.154   6.441  14.188 -0.0458  0.1969  1.6839
 1102TIP3   OH224796   3.187   2.578  16.102 -0.4172  0.0759 -0.1532
 1102TIP3    H124797   3.209   2.657  16.152  3.5404 -0.6837 -0.3770
 1102TIP3    H224798   3.167   2.512  16.168 -0.4713  0.4234  0.1842
 1103TIP3   OH224799   3.848   5.878  15.661  0.1413 -0.5498  0.7777
 1103TIP3    H124800   3.898   5.947  15.616 -1.1127  0.5919  1.0938
 1103TIP3    H224801   3.758   5.890  15.631 -0.0014 -2.5024  0.3252
 1104TIP3   OH224802   3.773   5.466   2.171 -0.1137  0.5115 -0.4025
 1104TIP3    H124803   3.700   5.526   2.157  0.1896  0.5245 -2.1937
 1104TIP3    H224804   3.767   5.402   2.100  1.2366  0.1368 -0.2255
 1105TIP3   OH224805   5.478   0.593  15.361  0.4981 -0.8477  0.3729
 1105TIP3    H124806   5.396   0.620  15.402  0.9568 -0.4263  1.0389
 1105TIP3    H224807   5.546   0.620  15.423  1.2194 -0.1209 -0.6846
 1106TIP3   OH224808   5.847   4.528   4.471  0.0553 -0.7068 -0.1458
 1106TIP3    H124809   5.832   4.469   4.397  0.1951 -0.7610 -0.1306
 1106TIP3    H224810   5.805   4.484   4.546 -1.6344  0.1616 -0.5235
 1107TIP3   OH224811   6.634   3.135   3.576 -0.2663 -0.2715 -0.2137
 1107TIP3    H124812   6.699   3.196   3.610 -1.0199  0.3086  0.2424
 1107TIP3    H224813   6.658   3.050   3.613  0.6612 -0.2139 -0.6650
 1108TIP3   OH224814   0.239   3.652  14.997  0.3676  0.4015  0.1574
 1108TIP3    H124815   0.277   3.614  15.076 -1.2616 -1.8322 -0.0535
 1108TIP3    H224816   0.162   3.700  15.027  0.8548  1.2310  0.1125
 1109TIP3   OH224817   4.916   6.823   2.070 -0.3570  0.1744  0.2223
 1109TIP3    H124818   4.901   6.837   2.164  0.6976  0.1294  0.4070
 1109TIP3    H224819   5.008   6.798   2.064 -0.3641  0.3765 -0.8545
 1110TIP3   OH224820   2.256   4.609   3.330 -0.5574  0.0868 -0.1264
 1110TIP3    H124821   2.267   4.687   3.384 -1.8463  0.3662 -0.2323
 1110TIP3    H224822   2.164   4.586   3.340 -0.4157 -0.8675 -0.8557
 1111TIP3   OH224823   6.422   0.076  13.851  0.4732 -0.2144 -0.2936
 1111TIP3    H124824   6.450   0.117  13.933  0.1888  1.9809 -1.2229
 1111TIP3    H224825   6.410   0.149  13.790 -1.0575 -1.6102 -1.7835
 1112TIP3   OH224826   5.570   5.839  15.510  0.7705  0.0085  0.2696
 1112TIP3    H124827   5.658   5.817  15.539  0.8563  1.1292  0.8972
 1112TIP3    H224828   5.561   5.795  15.425  1.1718 -1.8123  1.1134
 1113TIP3   OH224829   1.691   4.010   2.399 -0.0317 -0.0850  0.2889
 1113TIP3    H124830   1.599   3.999   2.374  0.2368 -0.4207 -0.5922
 1113TIP3    H224831   1.738   3.948   2.343  0.7192 -0.0159  0.8331
 1114TIP3   OH224832   0.858   0.063  11.015 -0.3627 -0.2702  0.0396
 1114TIP3    H124833   0.870   0.155  10.990 -0.1705  0.2609  1.9295
 1114TIP3    H224834   0.944   0.023  11.000 -0.4203 -0.1341 -0.7038
 1115TIP3   OH224835   6.179   0.856  11.019  0.1142  0.0212 -0.1969
 1115TIP3    H124836   6.099   0.855  10.966 -0.3613  1.1658  0.4573
 1115TIP3    H224837   6.237   0.793  10.976 -0.8712 -0.3062 -1.0996
 1116TIP3   OH224838   4.638   2.081  14.837 -0.4331  0.1389  0.6261
 1116TIP3    H124839   4.615   2.149  14.901 -0.2293 -0.3163  1.1971
 1116TIP3    H224840   4.663   2.005  14.891  0.1976 -0.1024  0.0076
 1117TIP3   OH224841   5.294   5.033  16.454  0.4177  0.0995  0.3369
 1117TIP3    H124842   5.375   5.058  16.499  0.6276 -0.1164  0.0808
 1117TIP3    H224843   5.261   5.115  16.418 -0.7729  0.6400  2.4810
 1118TIP3   OH224844   1.511   0.008   1.703  0.1398 -0.0955 -0.3302
 1118TIP3    H124845   1.424   0.016   1.664  0.8292 -1.7489 -2.4123
 1118TIP3    H224846   1.549   0.096   1.694 -1.6673  1.0005  1.7794
 1119TIP3   OH224847   5.842   6.188  16.582  0.3680 -0.3088 -0.2002
 1119TIP3    H124848   5.763   6.229  16.546 -0.3008  0.7176  2.2578
 1119TIP3    H224849   5.911   6.252  16.567  0.0067  0.3002  0.6342
 1120TIP3   OH224850   6.331   6.237  12.771 -0.1375  0.1977  0.6079
 1120TIP3    H124851   6.411   6.185  12.768 -0.9479 -1.1775  1.8722
 1120TIP3    H224852   6.260   6.173  12.771 -1.2935  1.3858 -0.8782
 1121TIP3   OH224853   6.228   1.520   0.479 -0.0914 -0.5560  0.4771
 1121TIP3    H124854   6.179   1.505   0.559 -2.8046 -0.5542 -1.0714
 1121TIP3    H224855   6.251   1.613   0.482 -2.7457  0.2005  0.0171
 1122TIP3   OH224856   5.906   5.491   2.300 -0.1095 -0.0690  0.2027
 1122TIP3    H124857   5.988   5.500   2.350  1.2200  1.1145 -2.0189
 1122TIP3    H224858   5.909   5.402   2.265  1.0840  0.4703 -1.1641
 1123TIP3   OH224859   2.445   1.530  16.981  0.3270  0.6449 -0.6900
 1123TIP3    H124860   2.404   1.513  16.896  0.1662  2.9039 -1.1250
 1123TIP3    H224861   2.447   1.445  17.024 -0.0489 -0.4621 -2.7468
 1124TIP3   OH224862   4.398   2.250   2.343 -0.4028 -0.2715 -0.3552
 1124TIP3    H124863   4.446   2.323   2.382 -1.1847 -0.4472  0.9817
 1124TIP3    H224864   4.461   2.209   2.283  0.3673  0.8704 -0.3559
 1125TIP3   OH224865   6.466   4.698   4.496  0.6011  0.0311  0.5803
 1125TIP3    H124866   6.544   4.643   4.492  1.4130  1.1722 -0.1440
 1125TIP3    H224867   6.455   4.717   4.590  0.8297 -0.6445  0.7462
 1126TIP3   OH224868   6.552   0.408   2.724 -0.4620 -0.1526  0.9342
 1126TIP3    H124869   6.543   0.396   2.630  0.2136  2.6978  0.3947
 1126TIP3    H224870   6.471   0.450   2.751 -0.0421  0.4316  1.3180
 1127TIP3   OH224871   4.307   1.348  12.046 -0.3423  0.6174 -0.0017
 1127TIP3    H124872   4.351   1.432  12.054  3.3986 -0.9636 -1.3996
 1127TIP3    H224873   4.294   1.319  12.136  1.3692  1.3430  0.5318
 1128TIP3   OH224874   5.090   6.255  16.813  0.4828 -0.4526 -0.0146
 1128TIP3    H124875   5.065   6.341  16.779 -1.9979 -0.1543  2.2396
 1128TIP3    H224876   5.172   6.270  16.860  0.2077  0.6365  0.1373
 1129TIP3   OH224877   1.397   5.424   4.787 -0.3592 -0.3161 -0.4992
 1129TIP3    H124878   1.375   5.404   4.878 -1.4009 -0.6267 -0.7967
 1129TIP3    H224879   1.471   5.484   4.792  0.4439 -1.3549  0.5214
 1130TIP3   OH224880   1.726   5.132  15.980  0.3232  0.6096  0.0245
 1130TIP3    H124881   1.813   5.122  16.018 -0.2339 -0.9019  0.9510
 1130TIP3    H224882   1.735   5.096  15.891  0.3463 -0.7863  0.5678
 1131TIP3   OH224883   5.090   6.538  16.492  0.6581  0.5250  0.7529
 1131TIP3    H124884   4.999   6.554  16.468  1.0409  0.6062 -0.7423
 1131TIP3    H224885   5.124   6.625  16.513  0.6402  0.6374  0.3398
 1132TIP3   OH224886   6.278   1.781  12.401 -0.6171 -0.5833 -0.0178
 1132TIP3    H124887   6.364   1.757  12.366 -0.5267  1.2260 -1.1205
 1132TIP3    H224888   6.217   1.760  12.331 -0.7256  0.7513 -0.3413
 1133TIP3   OH224889   4.865   5.379  12.157 -0.1416 -0.2118 -0.0804
 1133TIP3    H124890   4.786   5.400  12.107  0.3738  0.4580 -0.6355
 1133TIP3    H224891   4.893   5.463  12.193 -0.3210 -0.6352  1.0825
 1134TIP3   OH224892   0.462   0.576  12.701  0.1805 -0.1434  0.6531
 1134TIP3    H124893   0.489   0.608  12.615  1.6990 -0.4026  0.9930
 1134TIP3    H224894   0.405   0.502  12.683 -1.4405  1.2281 -0.1202
 1135TIP3   OH224895   2.412   4.330  16.944 -0.0091 -0.0174 -0.2358
 1135TIP3    H124896   2.441   4.356  17.032 -2.4834  0.0054  0.6379
 1135TIP3    H224897   2.481   4.271  16.913  0.4954 -0.7438  2.0842
 1136TIP3   OH224898   5.388   6.633  13.607  0.7614  0.6035 -0.1900
 1136TIP3    H124899   5.402   6.721  13.641  1.2782  0.1540  0.8121
 1136TIP3    H224900   5.476   6.595  13.601  0.4809 -0.1575  0.3084
 1137TIP3   OH224901   5.007   5.473   2.495  0.0080 -0.5305 -0.2221
 1137TIP3    H124902   4.928   5.526   2.488  0.2853 -0.0952 -0.0509
 1137TIP3    H224903   5.031   5.477   2.588  0.8133  0.1980 -0.4460
 1138TIP3   OH224904   4.150   1.574   2.260 -0.2403  0.2197 -0.5273
 1138TIP3    H124905   4.206   1.644   2.293 -1.2087  0.5513  0.5051
 1138TIP3    H224906   4.167   1.500   2.319  0.7783 -0.4376 -1.6118
 1139TIP3   OH224907   0.997   6.370   2.962 -0.3613 -0.3049  0.2368
 1139TIP3    H124908   0.985   6.318   3.042 -0.4539 -0.7083 -0.0331
 1139TIP3    H224909   0.971   6.311   2.892 -3.3792  1.0396  0.0595
 1140TIP3   OH224910   4.406   1.200  13.937 -0.1789  0.5155 -0.5177
 1140TIP3    H124911   4.378   1.233  13.852 -1.9582  1.1394  0.2711
 1140TIP3    H224912   4.400   1.275  13.996  2.4359  0.4803 -0.0898
 1141TIP3   OH224913   4.975   2.221  15.030  0.2195 -0.3425 -0.2452
 1141TIP3    H124914   5.027   2.143  15.048 -0.2761 -0.1798  2.3789
 1141TIP3    H224915   4.888   2.187  15.011 -0.0788 -0.4767  1.2263
 1142TIP3   OH224916   3.326   0.690  14.803  0.2546 -0.3399  0.2221
 1142TIP3    H124917   3.337   0.783  14.825  0.5154 -0.7995  2.2953
 1142TIP3    H224918   3.383   0.644  14.865 -2.7159 -2.0478  1.9502
 1143TIP3   OH224919   3.542   0.566   2.032  0.1772  0.8516 -0.4104
 1143TIP3    H124920   3.538   0.596   2.123 -0.9700  0.4009 -0.2966
 1143TIP3    H224921   3.576   0.477   2.038 -0.6307  0.5399 -0.3411
 1144TIP3   OH224922   3.896   5.244   1.931 -0.3209  0.0302 -0.5492
 1144TIP3    H124923   3.804   5.269   1.946 -0.2085  0.1979 -0.1118
 1144TIP3    H224924   3.893   5.150   1.912 -0.5002 -0.1490  0.3357
 1145TIP3   OH224925   6.558   5.947  14.161  0.0669 -0.6081 -0.5341
 1145TIP3    H124926   6.516   5.999  14.092 -0.4182 -0.5520 -0.1995
 1145TIP3    H224927   6.576   5.863  14.120  1.5654  0.0539 -1.3197
 1146TIP3   OH224928   6.643   5.627  13.300  0.2896 -0.2401 -0.2987
 1146TIP3    H124929   6.709   5.681  13.257 -0.6980  1.0713 -0.2560
 1146TIP3    H224930   6.579   5.608  13.231 -0.1880  0.0344  0.0552
 1147TIP3   OH224931   0.563   2.914  16.264 -0.1108 -0.1976  0.7918
 1147TIP3    H124932   0.477   2.884  16.233  0.3459 -0.7873  0.0869
 1147TIP3    H224933   0.600   2.963  16.191  0.5491 -0.7418  0.7533
 1148TIP3   OH224934   1.361   2.346  10.301 -0.0335  0.0221 -0.4544
 1148TIP3    H124935   1.410   2.269  10.330  0.5382  0.2504 -0.7881
 1148TIP3    H224936   1.271   2.316  10.292 -0.0564 -0.2829  0.6496
 1149TIP3   OH224937   0.916   5.997  15.884 -0.2134 -0.2269 -0.3233
 1149TIP3    H124938   0.915   6.023  15.977 -1.0860  1.2224 -0.7031
 1149TIP3    H224939   0.826   6.012  15.854 -0.7770 -3.5617 -0.7014
 1150TIP3   OH224940   4.915   6.225   5.713  0.2342 -0.6234  0.2807
 1150TIP3    H124941   4.929   6.281   5.789  0.3709 -1.7052  1.0797
 1150TIP3    H224942   5.002   6.216   5.674  0.1051  0.2103 -0.2137
 1151TIP3   OH224943   5.259   5.012   3.347 -0.6841  0.3959  0.3426
 1151TIP3    H124944   5.308   4.962   3.413  1.6107  1.0510 -0.7577
 1151TIP3    H224945   5.257   5.101   3.381 -1.7176  0.2631  0.6672
 1152TIP3   OH224946   5.134   2.987   0.195 -0.5494 -0.6307  0.0878
 1152TIP3    H124947   5.164   3.041   0.268  0.2191 -2.3304  1.0901
 1152TIP3    H224948   5.196   3.005   0.125 -0.8508  0.4551  0.0813
 1153TIP3   OH224949   0.486   0.638   5.317 -0.1235  0.1780 -0.0793
 1153TIP3    H124950   0.404   0.597   5.288  0.4856 -0.1950 -1.3866
 1153TIP3    H224951   0.506   0.596   5.400 -1.0516 -0.0172  0.0560
 1154TIP3   OH224952   2.954   2.089   1.233  0.6177  0.7692 -0.4463
 1154TIP3    H124953   2.996   2.173   1.213  0.6337  0.8235 -0.1911
 1154TIP3    H224954   2.883   2.111   1.293  0.3723  0.6472 -0.6912
 1155TIP3   OH224955   5.684   0.775  15.875 -0.0348 -0.1684 -0.4230
 1155TIP3    H124956   5.753   0.791  15.939  0.4435  0.6586 -1.1342
 1155TIP3    H224957   5.686   0.680  15.860 -0.7545 -0.5268  1.4454
 1156TIP3   OH224958   1.589   4.410  12.133 -0.2165  0.0802 -0.7219
 1156TIP3    H124959   1.681   4.384  12.133 -0.2926 -0.1987 -0.3892
 1156TIP3    H224960   1.553   4.371  12.053  0.0463  0.5390 -1.0701
 1157TIP3   OH224961   1.045   2.087  11.109  0.0150  1.0195  0.6797
 1157TIP3    H124962   1.057   2.093  11.204  1.1921 -0.2451  0.6395
 1157TIP3    H224963   0.976   2.023  11.097  1.7298 -0.9408  0.6782
 1158TIP3   OH224964   3.537   1.469  13.672 -0.4339  0.3320  0.6174
 1158TIP3    H124965   3.628   1.466  13.642  0.0240  0.1096  1.9283
 1158TIP3    H224966   3.504   1.553  13.639  0.6296  0.9634  1.0954
 1159TIP3   OH224967   0.785   3.188   3.452  0.1086  0.0613  0.0878
 1159TIP3    H124968   0.715   3.244   3.419  1.0225  0.3653 -1.4321
 1159TIP3    H224969   0.864   3.220   3.409  1.1181 -0.5887  1.3786
 1160TIP3   OH224970   0.368   5.018  11.589  0.2537  0.4359  0.5666
 1160TIP3    H124971   0.314   5.096  11.574  1.2297  0.8275 -1.3006
 1160TIP3    H224972   0.447   5.052  11.631  0.6385  0.4666 -0.1621
 1161TIP3   OH224973   6.665   1.917  11.660 -0.3147 -1.1303  0.3853
 1161TIP3    H124974   6.605   1.868  11.716  0.7281 -1.2922  1.4012
 1161TIP3    H224975   6.746   1.865  11.662 -0.3481 -1.3613 -1.6033
 1162TIP3   OH224976   1.523   3.400  11.907  0.4812  0.4770 -0.2442
 1162TIP3    H124977   1.520   3.409  12.002  2.5877  0.7750 -0.1682
 1162TIP3    H224978   1.531   3.490  11.875 -3.2305  0.7307 -0.9688
 1163TIP3   OH224979   6.557   5.047   4.404  0.2637 -0.2264  0.3043
 1163TIP3    H124980   6.535   5.047   4.497  0.6451  2.0040  0.4384
 1163TIP3    H224981   6.649   5.069   4.401  1.0801 -3.2487 -0.5527
 1164TIP3   OH224982   3.241   1.259  14.890  0.0830 -0.4833  0.2596
 1164TIP3    H124983   3.207   1.175  14.922 -1.5911 -0.3554 -1.0624
 1164TIP3    H224984   3.274   1.239  14.802 -0.7261  0.3306 -0.2354
 1165TIP3   OH224985   5.894   2.445   0.874  0.6379  0.0140  0.1036
 1165TIP3    H124986   5.932   2.357   0.880  1.2522  0.0811 -2.0183
 1165TIP3    H224987   5.801   2.429   0.856  0.8291 -0.2108 -0.6988
 1166TIP3   OH224988   2.796   2.357   4.796 -0.5107  0.0702 -1.0135
 1166TIP3    H124989   2.772   2.437   4.844 -1.2828 -0.4028 -0.5858
 1166TIP3    H224990   2.733   2.353   4.724 -1.3924 -0.8840 -0.2156
 1167TIP3   OH224991   4.284   4.167  11.856  0.1268  0.0885  0.3814
 1167TIP3    H124992   4.312   4.256  11.833  0.1282 -0.0481 -0.1650
 1167TIP3    H224993   4.316   4.113  11.784 -1.3584 -0.0974 -0.1655
 1168TIP3   OH224994   6.490   0.272   4.093 -0.3985  0.5903 -0.8622
 1168TIP3    H124995   6.467   0.234   4.178 -0.7931  0.4131 -1.0475
 1168TIP3    H224996   6.517   0.197   4.040 -0.6818  0.6354 -1.0665
 1169TIP3   OH224997   2.927   2.091   0.371  0.1836  0.0694 -0.3200
 1169TIP3    H124998   2.866   2.114   0.302 -0.9700 -0.1817  0.5948
 1169TIP3    H224999   2.903   2.147   0.445 -0.3095 -1.4707  0.7252
 1170TIP3   OH225000   6.531   5.367   5.840  0.4029  0.1926 -1.2871
 1170TIP3    H125001   6.610   5.412   5.871 -0.0345 -0.8422  1.7365
 1170TIP3    H225002   6.564   5.291   5.792  1.3101 -0.1866 -0.1300
 1171TIP3   OH225003   1.136   5.842  15.006 -0.0951 -0.4573 -0.2772
 1171TIP3    H125004   1.068   5.802  14.951 -1.1373  1.4294 -0.4699
 1171TIP3    H225005   1.110   5.821  15.095  0.0135 -1.1387 -0.3996
 1172TIP3   OH225006   5.939   0.828  13.675 -0.2381 -0.0870  0.3641
 1172TIP3    H125007   5.898   0.832  13.589 -0.3193 -0.2623  0.3950
 1172TIP3    H225008   5.866   0.825  13.737 -0.1928 -1.3154  0.3794
 1173TIP3   OH225009   6.658   6.472   0.306 -0.6099 -0.2589  0.2104
 1173TIP3    H125010   6.623   6.542   0.251 -0.3651 -0.3550 -0.0697
 1173TIP3    H225011   6.589   6.456   0.371 -0.7302  0.1326  0.1783
 1174TIP3   OH225012   3.791   6.291  13.430  1.0760 -1.3171  0.5798
 1174TIP3    H125013   3.791   6.344  13.350 -0.5184 -1.4282  0.4743
 1174TIP3    H225014   3.809   6.202  13.400 -1.3481 -1.7060  0.0172
 1175TIP3   OH225015   4.951   2.745   5.983 -0.3597  0.4629 -0.3573
 1175TIP3    H125016   4.876   2.775   6.034  0.3980  2.0639 -0.1222
 1175TIP3    H225017   4.990   2.674   6.035 -0.3564  1.2026  0.6666
 1176TIP3   OH225018   5.227   6.166  11.629 -0.0637  0.1667 -0.0446
 1176TIP3    H125019   5.313   6.131  11.651  0.3607  1.2606  0.1013
 1176TIP3    H225020   5.235   6.260  11.644 -1.2852  0.2861 -0.0398
 1177TIP3   OH225021   6.449   1.992  13.656  0.0284  0.1056  0.1659
 1177TIP3    H125022   6.471   2.043  13.733 -2.3421 -2.0517  2.4755
 1177TIP3    H225023   6.371   1.942  13.682 -1.0354 -0.5921 -3.7148
 1178TIP3   OH225024   3.221   4.346   2.251 -0.5240 -0.1071  0.5120
 1178TIP3    H125025   3.219   4.432   2.208 -0.5227  1.5805  3.5599
 1178TIP3    H225026   3.239   4.366   2.343 -0.4516 -3.4237  1.3466
 1179TIP3   OH225027   4.688   3.229  11.891 -0.0351  0.0035  0.2768
 1179TIP3    H125028   4.701   3.256  11.982  3.1642 -0.0030 -0.0567
 1179TIP3    H225029   4.756   3.277  11.842  0.4314 -2.3899 -1.6057
 1180TIP3   OH225030   6.041   5.158  16.599  0.4239  0.4517  0.2746
 1180TIP3    H125031   6.000   5.197  16.676  0.6709  0.6139  0.3253
 1180TIP3    H225032   6.106   5.223  16.570  0.2074  0.4743 -0.1773
 1181TIP3   OH225033   2.634   2.073  14.037 -0.0454  0.5895  0.0284
 1181TIP3    H125034   2.625   2.018  14.115 -0.8601 -0.9166 -1.0935
 1181TIP3    H225035   2.705   2.033  13.987  1.0372  2.0318  0.3369
 1182TIP3   OH225036   1.064   6.599  11.312 -0.8469 -0.0961 -0.6614
 1182TIP3    H125037   1.038   6.672  11.256  0.5614  1.2193  0.3105
 1182TIP3    H225038   1.159   6.591  11.298 -0.0791  1.4227  2.7099
 1183TIP3   OH225039   2.315   4.329   5.964  0.0636  0.0049  0.2564
 1183TIP3    H125040   2.227   4.367   5.973 -0.2067 -0.8346  1.5911
 1183TIP3    H225041   2.309   4.271   5.888 -0.1789  0.8439 -0.3798
 1184TIP3   OH225042   2.304   2.623   3.297  0.0524  0.8916  0.4047
 1184TIP3    H125043   2.372   2.650   3.236  0.1872 -1.1434 -0.4476
 1184TIP3    H225044   2.224   2.621   3.244  0.2400 -1.2643  0.1111
 1185TIP3   OH225045   1.059   1.939  14.001  0.3693 -0.0303  0.5198
 1185TIP3    H125046   1.012   1.908  13.924 -1.2958 -0.8891  1.8212
 1185TIP3    H225047   1.151   1.931  13.978 -0.0884 -0.2880 -1.3598
 1186TIP3   OH225048   5.846   5.793  13.130  0.2602  0.3383 -1.1612
 1186TIP3    H125049   5.891   5.865  13.085  1.1676  1.0302  0.7408
 1186TIP3    H225050   5.897   5.715  13.107 -0.0593  0.4531 -2.3328
 1187TIP3   OH225051   1.407   3.607   5.783  0.3200 -0.0268  0.8046
 1187TIP3    H125052   1.332   3.635   5.730 -0.2882 -1.4317  0.8677
 1187TIP3    H225053   1.417   3.675   5.849 -0.7244  0.3214  0.6216
 1188TIP3   OH225054   2.483   3.509  11.271  0.6355 -0.0899  0.2425
 1188TIP3    H125055   2.508   3.520  11.362  2.1473 -3.0650  0.3050
 1188TIP3    H225056   2.566   3.501  11.224 -0.0088  3.2208 -1.8233
 1189TIP3   OH225057   5.420   3.031   0.760  0.1979  0.2907  0.1524
 1189TIP3    H125058   5.358   3.088   0.805 -1.1865 -0.2275 -1.0265
 1189TIP3    H225059   5.483   3.092   0.720 -1.0000  1.0024 -0.7157
 1190TIP3   OH225060   0.967   5.282   1.671  0.4599  0.4993 -0.1375
 1190TIP3    H125061   0.982   5.193   1.704 -1.3460  1.1491  2.8320
 1190TIP3    H225062   1.054   5.322   1.671  0.7815 -0.0010  2.7397
 1191TIP3   OH225063   6.138   1.573   6.432 -0.0015  0.0117 -0.3999
 1191TIP3    H125064   6.209   1.525   6.389  1.5648  1.2882  0.6372
 1191TIP3    H225065   6.058   1.534   6.397  1.1916 -0.6878 -2.5184
 1192TIP3   OH225066   0.040   4.691   3.507  0.0132 -0.0332  0.4145
 1192TIP3    H125067   0.076   4.607   3.534 -0.5369 -0.2225  0.5733
 1192TIP3    H225068   0.007   4.730   3.588  2.2683  1.3495  0.7488
 1193TIP3   OH225069   4.359   4.504  10.773  0.0367 -0.0023  0.3092
 1193TIP3    H125070   4.416   4.524  10.846  0.3413 -2.9499  1.0026
 1193TIP3    H225071   4.418   4.471  10.705 -0.4317  0.9788 -0.5913
 1194TIP3   OH225072   2.354   6.708  14.908 -0.0447 -0.0104  0.1307
 1194TIP3    H125073   2.371   6.794  14.868  1.1957  0.1392  0.9084
 1194TIP3    H225074   2.347   6.727  15.001  2.8315 -1.0101  0.6641
 1195TIP3   OH225075   4.322   3.661  10.841 -0.3598  0.1045  0.2534
 1195TIP3    H125076   4.345   3.750  10.816 -0.4010  0.6506  2.0508
 1195TIP3    H225077   4.323   3.661  10.937 -2.6244 -1.1976  0.3668
 1196TIP3   OH225078   3.491   5.966   0.464  0.1132  0.2129  0.1142
 1196TIP3    H125079   3.558   5.968   0.533 -2.1669 -0.3966  2.5347
 1196TIP3    H225080   3.483   5.874   0.441 -0.1831  0.2172  0.1906
 1197TIP3   OH225081   6.608   0.620  10.902  0.4479 -0.5258 -0.0374
 1197TIP3    H125082   6.578   0.612  10.992  0.5280  2.7552  0.4117
 1197TIP3    H225083   6.703   0.620  10.908  0.4617 -0.8111 -0.2101
 1198TIP3   OH225084   3.849   3.235   2.847 -0.4455 -0.2694  0.3585
 1198TIP3    H125085   3.936   3.230   2.809 -1.1187  0.0251 -1.3162
 1198TIP3    H225086   3.809   3.311   2.806 -1.1591  0.1914  1.8525
 1199TIP3   OH225087   2.235   6.197   5.419 -0.2207 -0.7169  0.3851
 1199TIP3    H125088   2.206   6.279   5.459 -0.6627 -0.2191 -0.8800
 1199TIP3    H225089   2.330   6.205   5.415 -0.3215  0.2731 -0.7656
 1200TIP3   OH225090   6.227   4.230  14.704 -0.2205  0.5702 -0.5063
 1200TIP3    H125091   6.242   4.268  14.791 -0.2253  0.1113 -0.3035
 1200TIP3    H225092   6.221   4.306  14.646  0.8333  0.8422 -0.2774
 1201TIP3   OH225093   2.276   0.710  11.918 -0.1793  0.0434 -0.3577
 1201TIP3    H125094   2.205   0.738  11.860  0.3619  0.2012 -0.9475
 1201TIP3    H225095   2.299   0.622  11.888  0.4255  0.3134 -0.6957
 1202TIP3   OH225096   5.547   3.267   3.466  0.9554 -0.2209  0.2979
 1202TIP3    H125097   5.575   3.339   3.523 -0.1047  0.1213  0.4009
 1202TIP3    H225098   5.456   3.287   3.444 -0.1725 -2.6690  2.1985
 1203TIP3   OH225099   6.582   4.615  15.824  0.4750 -0.0063  0.1907
 1203TIP3    H125100   6.652   4.629  15.888  1.3109  1.3328 -0.9385
 1203TIP3    H225101   6.609   4.667  15.748 -1.7911  0.6102 -0.2657
 1204TIP3   OH225102   3.938   1.821   2.489  0.5747 -0.4311 -0.4259
 1204TIP3    H125103   3.911   1.821   2.398 -1.7973  2.5479  0.0940
 1204TIP3    H225104   3.957   1.913   2.508 -1.6808 -0.4570  2.7125
 1205TIP3   OH225105   6.456   2.696   5.343 -0.1040  0.4729 -1.0119
 1205TIP3    H125106   6.475   2.787   5.364  2.6833 -0.2450  0.0750
 1205TIP3    H225107   6.391   2.669   5.408 -0.2371  1.4416 -0.7351
 1206TIP3   OH225108   2.476   4.053   2.580 -0.3585  0.0089  0.5746
 1206TIP3    H125109   2.561   4.075   2.620  0.3771 -1.9080  0.1456
 1206TIP3    H225110   2.432   4.000   2.646 -0.9750  0.4600  0.5317
 1207TIP3   OH225111   3.824   3.567   1.612  0.9046 -0.2982  0.2706
 1207TIP3    H125112   3.826   3.476   1.642  0.1919 -0.2451  0.4913
 1207TIP3    H225113   3.766   3.611   1.674  1.0790  0.2648  0.0383
 1208TIP3   OH225114   4.654   1.905  15.656  0.1687 -0.7485  0.0006
 1208TIP3    H125115   4.678   1.927  15.566  1.8661 -3.2088 -0.2604
 1208TIP3    H225116   4.558   1.903  15.655  0.1478 -1.0885 -1.8832
 1209TIP3   OH225117   2.714   3.402  14.609  0.1821  0.7345 -0.6144
 1209TIP3    H125118   2.743   3.382  14.520 -0.3339 -0.0944 -0.6002
 1209TIP3    H225119   2.648   3.336  14.629  0.4006  0.8136  0.4458
 1210TIP3   OH225120   4.106   3.020  12.472  0.2008  0.1085 -0.3068
 1210TIP3    H125121   4.077   2.929  12.466 -0.3947  0.1990  0.9666
 1210TIP3    H225122   4.041   3.063  12.527  0.5453  1.2892 -0.7894
 1211TIP3   OH225123   0.231   2.627  10.895 -0.6658 -0.1339 -0.4450
 1211TIP3    H125124   0.223   2.565  10.821 -3.0240 -0.1576 -0.2371
 1211TIP3    H225125   0.251   2.711  10.853 -1.7542 -0.1922 -1.1387
 1212TIP3   OH225126   0.340   0.584  10.881 -0.6228 -0.0432 -0.1090
 1212TIP3    H125127   0.280   0.656  10.900 -0.8269 -0.1782 -0.2414
 1212TIP3    H225128   0.291   0.505  10.902  0.1758 -0.1179  1.7208
 1213TIP3   OH225129   1.148   2.335  12.809 -0.2601 -0.0277 -0.2018
 1213TIP3    H125130   1.098   2.310  12.887 -0.7240 -1.0037 -0.7856
 1213TIP3    H225131   1.231   2.367  12.842 -0.1930 -1.0580  0.6777
 1214TIP3   OH225132   3.470   0.349  11.730  0.2385 -0.3440 -0.2834
 1214TIP3    H125133   3.548   0.375  11.682 -0.2430  0.2383 -0.7760
 1214TIP3    H225134   3.464   0.413  11.802 -0.2947  0.2010 -0.8001
 1215TIP3   OH225135   4.889   3.046  14.065 -0.3194 -0.5556 -0.1223
 1215TIP3    H125136   4.917   2.963  14.104  0.5718 -0.6280 -0.8905
 1215TIP3    H225137   4.811   3.071  14.115  0.3227 -1.0448  1.1826
 1216TIP3   OH225138   3.743   5.084   1.679  0.6229 -0.4250  0.2088
 1216TIP3    H125139   3.715   5.173   1.661  0.0433 -0.6651 -0.1059
 1216TIP3    H225140   3.662   5.033   1.682  0.9150 -0.8794  0.7446
 1217TIP3   OH225141   0.285   3.956   2.436  0.0298 -0.3810 -0.1948
 1217TIP3    H125142   0.342   3.995   2.502 -0.1375  1.7663 -1.2102
 1217TIP3    H225143   0.223   3.904   2.487  0.9010 -0.1307  1.1985
 1218TIP3   OH225144   0.250   3.016  17.176  0.5623  0.3138 -0.6310
 1218TIP3    H125145   0.240   3.083  17.108 -1.4645  0.4647 -0.2416
 1218TIP3    H225146   0.344   3.015  17.194  0.8206  2.1172 -1.5639
 1219TIP3   OH225147   2.755   3.007   3.869  0.2460 -0.5219  0.0245
 1219TIP3    H125148   2.722   2.931   3.916 -0.3792 -0.7261 -0.7314
 1219TIP3    H225149   2.678   3.044   3.826  0.8035 -0.3398 -0.8367
 1220TIP3   OH225150   2.132   1.941   3.617 -0.0203  0.2890 -0.0508
 1220TIP3    H125151   2.167   1.874   3.676  1.6756  0.5641 -0.6937
 1220TIP3    H225152   2.076   1.893   3.556 -0.1090 -0.2982  0.4822
 1221TIP3   OH225153   2.808   2.512  13.333  0.4899 -0.2925  0.8435
 1221TIP3    H125154   2.874   2.508  13.264 -1.1253  2.1913 -1.0420
 1221TIP3    H225155   2.842   2.578  13.394  0.0603  0.5957  0.1523
 1222TIP3   OH225156   1.159   0.422  16.199 -0.1522  0.3109 -0.3745
 1222TIP3    H125157   1.076   0.388  16.166 -0.2099  0.6312 -0.5581
 1222TIP3    H225158   1.223   0.402  16.131 -0.3055  1.1333 -0.7655
 1223TIP3   OH225159   2.882   4.748  12.501  0.1674 -0.1492 -0.3271
 1223TIP3    H125160   2.814   4.792  12.450  1.1683 -1.8643 -3.4340
 1223TIP3    H225161   2.836   4.714  12.578 -2.5518 -1.1896 -2.2319
 1224TIP3   OH225162   5.649   0.605  13.114  0.3003 -0.2136  0.1770
 1224TIP3    H125163   5.599   0.612  13.033 -0.5544  0.1322  0.7229
 1224TIP3    H225164   5.741   0.613  13.086  0.1323 -1.6585 -0.9351
 1225TIP3   OH225165   2.524   0.663   0.354  0.0220 -0.1475  0.1478
 1225TIP3    H125166   2.514   0.568   0.355  1.3388 -0.3035  0.4978
 1225TIP3    H225167   2.610   0.679   0.392  0.9622  1.0234 -2.2412
 1226TIP3   OH225168   4.239   6.318  11.774 -0.3912  0.1815 -0.3123
 1226TIP3    H125169   4.232   6.408  11.745  1.5001  0.4072 -0.2313
 1226TIP3    H225170   4.194   6.266  11.707  1.6569  0.8934 -2.3714
 1227TIP3   OH225171   5.527   4.503  15.889  0.7710  0.1586 -0.1039
 1227TIP3    H125172   5.622   4.515  15.883  0.7331  0.1834 -0.7902
 1227TIP3    H225173   5.500   4.486  15.798  0.1698 -0.2048  0.1376
 1228TIP3   OH225174   4.050   1.867  14.400 -0.2080  0.0116  0.0219
 1228TIP3    H125175   4.075   1.802  14.467 -1.0272 -2.2173 -1.7222
 1228TIP3    H225176   3.956   1.879  14.412 -0.2771 -0.0536 -0.4449
 1229TIP3   OH225177   3.237   4.253   5.985  0.4364 -0.8511 -0.0894
 1229TIP3    H125178   3.227   4.221   6.074 -1.0015 -1.5205 -0.4725
 1229TIP3    H225179   3.177   4.328   5.979  1.3687 -0.0860 -0.1746
 1230TIP3   OH225180   6.533   1.774  15.845  0.4838  0.5146  0.5890
 1230TIP3    H125181   6.594   1.733  15.784  0.0388  1.9026 -0.8362
 1230TIP3    H225182   6.577   1.767  15.930  1.7141 -0.2914 -0.0773
 1231TIP3   OH225183   0.335   0.847  15.801  0.1223  0.4822  0.0059
 1231TIP3    H125184   0.422   0.853  15.760 -0.0341  1.2771 -0.2258
 1231TIP3    H225185   0.273   0.854  15.729 -0.1439  0.2735  0.2102
 1232TIP3   OH225186   3.836   5.727   0.282  0.2053 -0.2006  0.2878
 1232TIP3    H125187   3.893   5.650   0.276  0.1051 -0.4363  1.9523
 1232TIP3    H225188   3.824   5.755   0.191 -0.1221 -2.4128 -0.4152
 1233TIP3   OH225189   2.993   1.705   1.039 -0.4698  0.0538  0.1116
 1233TIP3    H125190   3.025   1.673   1.123 -1.8451  0.2061  0.7161
 1233TIP3    H225191   2.914   1.653   1.022 -0.5172  0.4039 -0.8307
 1234TIP3   OH225192   4.097   6.743   1.057 -0.2331  0.2624  0.1589
 1234TIP3    H125193   4.071   6.686   1.130 -1.8211  2.7756  1.7021
 1234TIP3    H225194   4.024   6.739   0.996  0.1666 -0.2190 -0.2947
 1235TIP3   OH225195   2.607   5.417   3.408 -0.6527  0.2021  0.0115
 1235TIP3    H125196   2.632   5.416   3.500 -1.7068 -2.0505  0.3117
 1235TIP3    H225197   2.614   5.510   3.383 -1.2464  1.0098  2.5729
 1236TIP3   OH225198   2.703   3.986   6.694 -0.0894 -0.1933  0.0374
 1236TIP3    H125199   2.726   4.079   6.703  0.9587 -0.4183 -0.1060
 1236TIP3    H225200   2.781   3.946   6.656 -0.6610 -1.0764 -0.2429
 1237TIP3   OH225201   1.562   1.832  14.683 -0.0927  0.2956 -0.1574
 1237TIP3    H125202   1.587   1.806  14.771  0.4852 -2.0224 -0.9335
 1237TIP3    H225203   1.645   1.848  14.638 -0.3660  1.0873 -0.3952
 1238TIP3   OH225204   3.698   0.801   6.433 -0.9196 -0.3482  0.1798
 1238TIP3    H125205   3.684   0.781   6.525  0.5660 -0.9252  0.3044
 1238TIP3    H225206   3.792   0.790   6.419 -0.9482  0.7144 -1.1769
 1239TIP3   OH225207   5.739   0.696   3.326 -0.3330 -0.2133 -0.8899
 1239TIP3    H125208   5.688   0.626   3.284  0.3307 -1.3342  0.1026
 1239TIP3    H225209   5.827   0.660   3.334  0.2061  1.0364 -1.0140
 1240TIP3   OH225210   2.965   2.923   0.849  0.4752  0.3582 -0.7023
 1240TIP3    H125211   2.970   2.987   0.777 -1.5422 -1.0431 -2.1949
 1240TIP3    H225212   3.023   2.852   0.823  0.4778  0.2739 -0.4703
 1241TIP3   OH225213   6.119   2.995  14.408  0.5590  0.2966 -0.0533
 1241TIP3    H125214   6.107   2.938  14.332  3.1679  0.7121 -0.8575
 1241TIP3    H225215   6.210   3.024  14.402 -0.5007  4.2718  0.5077
 1242TIP3   OH225216   4.055   6.742   6.561  0.1846 -0.6397  0.1679
 1242TIP3    H125217   4.098   6.660   6.586  1.8152  0.1016 -0.0652
 1242TIP3    H225218   4.099   6.769   6.480  1.4850  1.7198  1.5485
 1243TIP3   OH225219   4.211   2.986   0.886  0.4230  0.3401 -0.3767
 1243TIP3    H125220   4.130   2.936   0.875 -0.4313  1.4153  0.7462
 1243TIP3    H225221   4.271   2.925   0.929  0.6304 -0.8245 -2.2239
 1244TIP3   OH225222   1.966   4.251  15.412 -0.4535 -0.3698 -0.2097
 1244TIP3    H125223   1.973   4.334  15.459 -0.5257  1.9715 -3.8589
 1244TIP3    H225224   1.877   4.221  15.431 -1.4647  1.9355 -0.8861
 1245TIP3   OH225225   6.731   6.448   0.942 -1.0074  0.2212  0.3095
 1245TIP3    H125226   6.671   6.374   0.953 -0.3787 -0.2887  0.3507
 1245TIP3    H225227   6.741   6.456   0.847  0.5934 -1.1357  0.3220
 1246TIP3   OH225228   0.822   4.591  15.954 -0.9298  0.6517 -0.4933
 1246TIP3    H125229   0.739   4.544  15.962 -0.2703 -0.5069 -0.0133
 1246TIP3    H225230   0.877   4.553  16.023  0.4301  0.4361 -1.6374
 1247TIP3   OH225231   1.399   1.088  16.328 -0.4062 -0.1223  0.7407
 1247TIP3    H125232   1.387   1.083  16.233  0.6799 -0.0431  0.5805
 1247TIP3    H225233   1.420   0.999  16.354 -0.4566 -0.0969  0.8691
 1248TIP3   OH225234   6.123   3.864  10.850  0.2264  0.2451  0.0027
 1248TIP3    H125235   6.075   3.862  10.767  2.0102 -1.4911 -1.0820
 1248TIP3    H225236   6.056   3.848  10.916 -0.9119 -0.7101 -1.3170
 1249TIP3   OH225237   1.122   1.065   2.792 -0.4527 -0.1231  0.7996
 1249TIP3    H125238   1.190   1.068   2.724 -1.2459 -0.0519 -0.0087
 1249TIP3    H225239   1.156   1.120   2.862 -0.1071  0.7339 -0.0152
 1250TIP3   OH225240   6.390   5.449  11.499 -0.5116  0.2251  0.1834
 1250TIP3    H125241   6.453   5.429  11.567  0.4909 -0.0065 -0.7934
 1250TIP3    H225242   6.419   5.533  11.463 -1.1454  0.4413  0.1472
 1251TIP3   OH225243   5.579   4.130   2.165  0.4141  0.0979 -0.1364
 1251TIP3    H125244   5.664   4.098   2.197  0.2465 -0.0080  0.2191
 1251TIP3    H225245   5.583   4.225   2.176  1.3622  0.3667 -2.2903
 1252TIP3   OH225246   4.667   3.718   1.935  0.3078 -0.5290  0.1636
 1252TIP3    H125247   4.579   3.744   1.962  0.1579 -1.6699  0.8355
 1252TIP3    H225248   4.710   3.801   1.911 -0.2398  0.3153  1.8974
 1253TIP3   OH225249   2.361   1.289   5.330  0.2106  0.7400  0.2723
 1253TIP3    H125250   2.314   1.248   5.402  1.7310 -2.1674 -0.2030
 1253TIP3    H225251   2.430   1.340   5.372 -0.6607  1.4425  0.8797
 1254TIP3   OH225252   1.970   6.108   4.582  0.5081  0.4355  0.4773
 1254TIP3    H125253   2.049   6.070   4.620  0.3950  1.8325  2.2078
 1254TIP3    H225254   1.953   6.053   4.505  4.4714  1.4471 -1.4039
 1255TIP3   OH225255   0.019   2.706  11.531  0.0560  0.5246  0.0513
 1255TIP3    H125256  -0.043   2.680  11.598  0.6992  0.6375  0.7042
 1255TIP3    H225257   0.063   2.625  11.506  1.7715  0.8478  1.7926
 1256TIP3   OH225258   5.881   4.216  12.079 -0.5920 -0.4370  0.3712
 1256TIP3    H125259   5.808   4.154  12.088  1.7969 -3.5514  0.1324
 1256TIP3    H225260   5.942   4.191  12.148  0.2639  2.1524  0.6367
 1257TIP3   OH225261   3.374   2.679   2.019  0.5044  0.4234  0.1150
 1257TIP3    H125262   3.459   2.639   2.003 -0.4960 -1.1069 -1.7919
 1257TIP3    H225263   3.336   2.628   2.091  0.1459 -0.6950 -0.8328
 1258TIP3   OH225264   4.275   2.641  13.734  0.1220  0.2759  0.5671
 1258TIP3    H125265   4.180   2.640  13.720  0.2083 -0.7658  0.0517
 1258TIP3    H225266   4.303   2.726  13.700 -0.5378  0.3408  0.1758
 1259TIP3   OH225267   4.719   5.335   0.361  0.0145  0.1439  0.0085
 1259TIP3    H125268   4.786   5.285   0.315 -1.6471 -1.4495 -0.7931
 1259TIP3    H225269   4.708   5.289   0.444  0.7995  1.1789  0.7097
 1260TIP3   OH225270   4.783   5.401  12.847 -0.2758 -0.9102  0.0407
 1260TIP3    H125271   4.851   5.335  12.848 -0.1429 -0.7751  1.2348
 1260TIP3    H225272   4.723   5.373  12.777  1.2071 -0.7838 -1.3521
 1261TIP3   OH225273   0.034   1.287   4.642  0.2311  0.4038 -0.8202
 1261TIP3    H125274  -0.039   1.237   4.605  1.9350 -1.7632 -1.4537
 1261TIP3    H225275   0.067   1.340   4.569  0.3549  0.0843 -0.9968
 1262TIP3   OH225276   1.364   5.249  12.467 -0.7529 -0.0330  0.5049
 1262TIP3    H125277   1.364   5.330  12.518 -0.8148 -0.1668  0.7163
 1262TIP3    H225278   1.457   5.234  12.447 -0.8166  0.5911 -0.3390
 1263TIP3   OH225279   3.045   4.015  14.174  0.0124  0.2550  0.0325
 1263TIP3    H125280   3.080   4.061  14.097  0.3837  3.4084  1.9022
 1263TIP3    H225281   3.121   3.973  14.213  0.3222  0.8531  0.0816
 1264TIP3   OH225282   0.598   5.434   0.875 -0.4122 -0.1397 -0.0624
 1264TIP3    H125283   0.681   5.390   0.862  0.0328  0.8056 -0.5091
 1264TIP3    H225284   0.533   5.375   0.834  0.0320 -0.8423  0.2299
 1265TIP3   OH225285   2.462   0.577   1.553  0.3490 -0.2539  0.2022
 1265TIP3    H125286   2.550   0.580   1.590  1.2357 -0.6238 -1.7379
 1265TIP3    H225287   2.468   0.513   1.482 -1.3993 -0.0088 -0.2293
 1266TIP3   OH225288   4.668   2.072  12.174  0.3587 -0.0370  0.3511
 1266TIP3    H125289   4.725   2.085  12.098 -1.2050 -2.0751 -1.2847
 1266TIP3    H225290   4.722   2.025  12.237  0.7809 -1.1920 -0.8275
 1267TIP3   OH225291   5.245   5.086  16.830 -0.3589 -0.3145  0.4144
 1267TIP3    H125292   5.170   5.131  16.791  1.0665  3.2202  1.3965
 1267TIP3    H225293   5.293   5.051  16.755 -2.1078 -1.3445 -0.3116
 1268TIP3   OH225294   2.056   1.650  11.640 -0.9454  0.0271 -0.0878
 1268TIP3    H125295   2.078   1.659  11.733 -0.2148 -1.0232 -0.1464
 1268TIP3    H225296   2.026   1.737  11.615 -0.7314  0.4465  1.0264
 1269TIP3   OH225297   6.364   6.776  14.184 -0.6309  0.1989 -0.3747
 1269TIP3    H125298   6.363   6.686  14.216 -0.3440  0.0537 -0.7664
 1269TIP3    H225299   6.313   6.825  14.248  1.9103  0.3817  1.6648
 1270TIP3   OH225300   4.335   6.006   1.092  0.4050  0.0536 -0.1630
 1270TIP3    H125301   4.290   5.988   1.010  1.5500 -0.2283 -0.7464
 1270TIP3    H225302   4.347   6.101   1.093  0.4032  0.0544 -0.3279
 1271TIP3   OH225303   2.306   2.067  14.900 -0.1229  0.2598 -0.4362
 1271TIP3    H125304   2.381   2.099  14.850 -1.0306 -0.2081 -2.2126
 1271TIP3    H225305   2.318   1.972  14.904 -0.1093  0.2850  0.1508
 1272TIP3   OH225306   3.543   1.706   4.848 -0.3541  0.1037 -0.2385
 1272TIP3    H125307   3.510   1.777   4.793 -1.2814  0.8787  1.2785
 1272TIP3    H225308   3.638   1.714   4.842 -0.4434  1.1248 -0.5211
 1273TIP3   OH225309   4.537   1.928   4.538 -0.0135 -0.2661 -0.1011
 1273TIP3    H125310   4.624   1.894   4.516  0.2061 -0.0631  0.4572
 1273TIP3    H225311   4.476   1.860   4.507  0.4799 -2.0784  2.6262
 1274TIP3   OH225312   6.013   0.359  14.309  0.2821  0.6751 -0.0186
 1274TIP3    H125313   5.980   0.276  14.276  0.7343  0.2589  0.5661
 1274TIP3    H225314   6.021   0.346  14.403 -1.2220  1.9106  0.3307
 1275TIP3   OH225315   5.783   0.934  17.007 -0.3908 -0.3844 -0.3150
 1275TIP3    H125316   5.783   0.922  17.102 -2.5374 -0.7031 -0.3022
 1275TIP3    H225317   5.726   1.010  16.992  0.4926  0.1117 -1.3218
 1276TIP3   OH225318   0.603   0.679  13.311 -0.8246 -0.1661 -0.1169
 1276TIP3    H125319   0.543   0.612  13.345 -0.1212 -0.8786 -0.2436
 1276TIP3    H225320   0.671   0.686  13.379 -1.3021  0.9919  0.2585
 1277TIP3   OH225321   0.591   6.626   1.623  0.1697 -1.0176 -0.1054
 1277TIP3    H125322   0.606   6.590   1.710 -1.4798  0.4397  0.8499
 1277TIP3    H225323   0.502   6.598   1.600 -1.2462  2.3583  0.7486
 1278TIP3   OH225324   0.371   4.751   4.737 -0.1297 -0.6428 -0.1817
 1278TIP3    H125325   0.321   4.791   4.808  2.0758  0.6892  0.7121
 1278TIP3    H225326   0.323   4.775   4.658 -0.3514  1.5469  0.5570
 1279TIP3   OH225327   2.184   3.055  12.635  0.1578  0.2581  0.3490
 1279TIP3    H125328   2.207   3.013  12.552  1.2370  3.0710 -0.9040
 1279TIP3    H225329   2.089   3.063  12.632  0.1334 -0.2142 -0.3646
 1280TIP3   OH225330   1.846   6.418   2.608 -0.0440 -0.6510 -0.5697
 1280TIP3    H125331   1.906   6.396   2.679 -1.1827 -1.3551  0.2140
 1280TIP3    H225332   1.865   6.354   2.540  0.1175 -0.8609 -0.3328
 1281TIP3   OH225333   4.972   3.362   3.872 -0.6031 -0.0952 -0.0976
 1281TIP3    H125334   5.045   3.315   3.832  0.4906  1.9037 -0.6178
 1281TIP3    H225335   4.902   3.359   3.806 -0.2873 -0.3398 -0.4225
 1282TIP3   OH225336   5.796   2.400  12.626  0.1919  0.2352  0.7692
 1282TIP3    H125337   5.891   2.385  12.618  0.4807  0.3011  3.3596
 1282TIP3    H225338   5.785   2.491  12.601  0.8190  0.2553  0.5245
 1283TIP3   OH225339   0.446   2.674  12.714 -0.0420 -0.1267  0.4081
 1283TIP3    H125340   0.436   2.645  12.624  0.0108 -1.1091  0.7134
 1283TIP3    H225341   0.469   2.767  12.707  2.3814 -0.7290 -0.6910
 1284TIP3   OH225342   3.156   3.034   2.281  0.3884 -0.1334 -0.2850
 1284TIP3    H125343   3.070   2.994   2.296  1.0711 -1.8087 -0.6129
 1284TIP3    H225344   3.143   3.127   2.301 -1.0733 -0.6296  1.3191
 1285TIP3   OH225345   3.464   2.639   4.730 -0.0075 -0.0752  0.6931
 1285TIP3    H125346   3.548   2.678   4.754  0.8844  0.2001 -2.4702
 1285TIP3    H225347   3.481   2.545   4.727  1.1153  0.0936 -2.5224
 1286TIP3   OH225348   1.370   3.748  10.632  0.2121 -0.4247 -0.3154
 1286TIP3    H125349   1.286   3.794  10.634  0.2394 -0.2346 -2.0187
 1286TIP3    H225350   1.388   3.728  10.723 -0.6362  1.4264  0.3177
 1287TIP3   OH225351   6.386   6.568  16.724  0.0815  0.2083 -0.0073
 1287TIP3    H125352   6.428   6.512  16.659  0.2891  0.9381 -0.5102
 1287TIP3    H225353   6.421   6.538  16.808 -0.4032 -0.9279 -0.1890
 1288TIP3   OH225354   2.805   5.034  11.543  0.1875 -0.5907  0.2818
 1288TIP3    H125355   2.741   4.971  11.510 -1.3900  1.5940 -1.0872
 1288TIP3    H225356   2.868   5.043  11.472 -1.0601  1.2507 -0.6542
 1289TIP3   OH225357   4.335   1.317  11.472  0.1569  0.6445  0.1907
 1289TIP3    H125358   4.396   1.261  11.521 -1.8377 -1.2620  0.6678
 1289TIP3    H225359   4.248   1.291  11.503 -1.0817  1.2274 -2.4728
 1290TIP3   OH225360   3.938   6.558  14.486 -0.1255 -0.0229  0.2769
 1290TIP3    H125361   3.873   6.592  14.424 -0.0583 -0.5198 -0.0748
 1290TIP3    H225362   3.952   6.629  14.548  0.3845  0.7777 -0.7310
 1291TIP3   OH225363   3.938   3.118  14.841  0.2762 -0.4495  0.9991
 1291TIP3    H125364   4.026   3.122  14.876  0.1606  2.8976  1.1997
 1291TIP3    H225365   3.891   3.188  14.886 -1.5012  0.1359 -1.5653
 1292TIP3   OH225366   2.103   0.558  15.888 -0.2756  0.5357 -0.6011
 1292TIP3    H125367   2.114   0.499  15.814 -1.7107 -0.8395  0.2279
 1292TIP3    H225368   2.010   0.555  15.908  0.0460  0.9844  1.1683
 1293TIP3   OH225369   5.538   6.266   4.287 -0.2906 -0.4758  0.3728
 1293TIP3    H125370   5.488   6.277   4.207 -0.1392  0.5662  0.4126
 1293TIP3    H225371   5.573   6.177   4.281  0.2051 -0.2188 -0.9930
 1294TIP3   OH225372   1.269   3.759   1.657 -0.0111 -0.1214  0.1293
 1294TIP3    H125373   1.342   3.803   1.701 -0.4497  0.7610 -0.0028
 1294TIP3    H225374   1.277   3.786   1.566  1.3331 -2.5332 -0.5568
 1295TIP3   OH225375   1.201   1.518   0.714 -0.4512 -0.0614 -0.0179
 1295TIP3    H125376   1.120   1.467   0.721  0.1644 -0.9577  0.8093
 1295TIP3    H225377   1.196   1.558   0.627 -1.6446 -0.3354 -0.0975
 1296TIP3   OH225378   3.884   0.040   2.623  0.4488 -0.1149 -0.1736
 1296TIP3    H125379   3.820   0.053   2.553 -0.7847 -0.0882  0.9235
 1296TIP3    H225380   3.882  -0.054   2.641 -0.7354  0.1252  1.1472
 1297TIP3   OH225381   6.600   4.546  12.269  0.3122  0.4553 -0.3434
 1297TIP3    H125382   6.574   4.460  12.304  0.2049 -0.1264 -1.7797
 1297TIP3    H225383   6.523   4.601  12.280 -0.0350  0.0079 -0.5184
 1298TIP3   OH225384   0.797   6.514   4.452  0.2894 -0.1974  0.1427
 1298TIP3    H125385   0.889   6.486   4.457  0.4388  0.2545 -0.0817
 1298TIP3    H225386   0.748   6.438   4.484  0.9141  0.8107  4.1306
 1299TIP3   OH225387   5.215   2.854  16.939 -1.4145  0.1260 -0.2957
 1299TIP3    H125388   5.226   2.850  16.844  0.3369  2.7244 -0.3233
 1299TIP3    H225389   5.170   2.937  16.955 -0.9729  0.1204  1.1597
 1300TIP3   OH225390   4.611   5.773   0.495  0.3442  0.0472 -0.1977
 1300TIP3    H125391   4.578   5.713   0.428 -3.3150  1.1165  0.3837
 1300TIP3    H225392   4.578   5.736   0.578 -0.2994  1.7611  0.3523
 1301TIP3   OH225393   3.993   2.190  15.600 -0.7075 -0.6533 -0.2049
 1301TIP3    H125394   4.059   2.121  15.595 -1.0256 -0.9752  0.0510
 1301TIP3    H225395   3.952   2.178  15.686  0.9336  1.3952  0.9817
 1302TIP3   OH225396   1.263   1.548   4.344 -0.2927  0.2137 -0.3320
 1302TIP3    H125397   1.349   1.527   4.380  0.2958  1.3447 -1.0218
 1302TIP3    H225398   1.220   1.599   4.412 -0.1391  0.2495 -0.2605
 1303TIP3   OH225399   0.725   0.669  11.902 -0.3142 -0.1341 -0.2570
 1303TIP3    H125400   0.651   0.632  11.952 -0.0280 -2.3719 -1.3615
 1303TIP3    H225401   0.686   0.696  11.819 -0.6823  3.0899  0.7984
 1304TIP3   OH225402   2.933   3.891  16.612  0.7029  0.0990  0.3773
 1304TIP3    H125403   3.008   3.885  16.553 -0.7681  0.1642 -1.6266
 1304TIP3    H225404   2.945   3.819  16.674  0.8596 -1.9621 -1.8703
 1305TIP3   OH225405   4.020   2.357  14.818  0.0114  0.3433  0.1002
 1305TIP3    H125406   4.008   2.343  14.912 -1.3401  1.2615  0.1005
 1305TIP3    H225407   3.933   2.384  14.787  0.5776  0.6166 -1.3044
 1306TIP3   OH225408   5.329   2.437   4.614  0.4075 -0.1259 -0.1705
 1306TIP3    H125409   5.241   2.467   4.593  0.2418 -2.0211 -2.6944
 1306TIP3    H225410   5.320   2.391   4.698 -0.4930  1.6120  0.7201
 1307TIP3   OH225411   1.649   2.076   0.301  0.4081 -0.2206  0.8754
 1307TIP3    H125412   1.727   2.112   0.259  0.3453 -1.0604 -0.0033
 1307TIP3    H225413   1.635   1.993   0.256 -2.5942  1.1194 -0.9546
 1308TIP3   OH225414   0.737   3.386  11.930 -0.3759  0.6761 -0.3760
 1308TIP3    H125415   0.686   3.466  11.941 -2.1902 -0.3219 -1.1055
 1308TIP3    H225416   0.716   3.356  11.841 -0.1502 -0.8913  0.0780
 1309TIP3   OH225417   0.257   3.245   6.144  0.3026  0.0067  0.1929
 1309TIP3    H125418   0.167   3.271   6.122 -0.0518  0.3203  1.8745
 1309TIP3    H225419   0.262   3.153   6.118 -0.3564  0.1042 -0.3089
 1310TIP3   OH225420   3.690   3.337  15.966  0.6122 -0.7979  0.8164
 1310TIP3    H125421   3.623   3.401  15.942  1.5669  0.1557  0.6423
 1310TIP3    H225422   3.675   3.264  15.907  0.8025  0.1142 -0.3965
 1311TIP3   OH225423   6.798   3.417  11.348  0.1981  0.1634  0.5573
 1311TIP3    H125424   6.772   3.327  11.365 -0.8496  0.3086 -0.1528
 1311TIP3    H225425   6.865   3.411  11.281  0.1960 -0.0916  0.5780
 1312TIP3   OH225426   1.226   1.741  10.953  0.0201  0.2456  0.3267
 1312TIP3    H125427   1.273   1.670  10.910 -1.1033 -1.8419  2.3292
 1312TIP3    H225428   1.134   1.726  10.929 -0.2750  0.7401  1.1282
 1313TIP3   OH225429   5.838   5.548   4.298  0.3554  0.3409  0.5084
 1313TIP3    H125430   5.904   5.489   4.334  0.5772  0.4485  0.2775
 1313TIP3    H225431   5.769   5.550   4.365  0.4840  0.0580  0.6520
 1314TIP3   OH225432   4.326   6.667  15.264 -0.0149 -0.4593  0.3498
 1314TIP3    H125433   4.322   6.581  15.222  2.4241 -1.1107  1.2770
 1314TIP3    H225434   4.280   6.655  15.347  0.0317 -0.7612  0.3328
 1315TIP3   OH225435   5.576   2.286  13.832 -0.1432  0.1879  0.4360
 1315TIP3    H125436   5.552   2.227  13.904  0.6811 -0.9189 -0.1628
 1315TIP3    H225437   5.629   2.232  13.774 -0.0592  1.3127 -0.5648
 1316TIP3   OH225438   2.839   3.247   2.751  0.2401 -0.1986 -0.0252
 1316TIP3    H125439   2.873   3.190   2.820  0.3991  0.2595  0.2806
 1316TIP3    H225440   2.827   3.332   2.794 -0.3501 -0.0990 -0.3826
 1317TIP3   OH225441   3.703   6.436  12.889 -0.0572 -0.2149 -0.0575
 1317TIP3    H125442   3.782   6.471  12.849 -0.6655 -0.0432 -1.1649
 1317TIP3    H225443   3.718   6.342  12.895 -0.5662 -0.4929 -2.2613
 1318TIP3   OH225444   4.962   0.558   0.735 -0.0857 -0.2226  0.4002
 1318TIP3    H125445   4.876   0.594   0.755 -0.0942 -0.6822  1.2421
 1318TIP3    H225446   4.973   0.572   0.641 -0.8093  0.4025  0.4009
 1319TIP3   OH225447   0.748   2.470  14.505 -0.1650 -0.7500 -0.3856
 1319TIP3    H125448   0.708   2.527  14.440 -0.2611  0.1449  0.4319
 1319TIP3    H225449   0.842   2.478  14.489 -0.0593  0.9966  0.7565
 1320TIP3   OH225450   0.278   1.409  15.510 -0.2350 -0.1309 -0.2313
 1320TIP3    H125451   0.197   1.395  15.461 -1.1135  0.1368  1.0897
 1320TIP3    H225452   0.326   1.327  15.502 -1.7055 -1.1259  0.8792
 1321TIP3   OH225453   0.764   0.464  17.177 -0.7594 -0.3017  0.5307
 1321TIP3    H125454   0.858   0.470  17.160 -0.7475 -1.6755 -0.0076
 1321TIP3    H225455   0.730   0.411  17.105 -1.7496 -0.8342  1.3577
 1322TIP3   OH225456   2.072   5.531   0.449  0.3479 -0.0221 -0.6170
 1322TIP3    H125457   2.164   5.529   0.474 -0.0817  0.6221  1.2072
 1322TIP3    H225458   2.056   5.620   0.419  0.1308  0.1350 -0.0547
 1323TIP3   OH225459   1.694   1.944  15.551  0.0239  0.0699  0.1839
 1323TIP3    H125460   1.718   2.007  15.618  1.3357  0.7541 -0.8681
 1323TIP3    H225461   1.619   1.896  15.587 -0.9403  2.1326  1.0650
 1324TIP3   OH225462   5.160   5.807   3.164 -0.1191  0.7327  0.0780
 1324TIP3    H125463   5.084   5.840   3.118 -1.4972  1.3767  2.6098
 1324TIP3    H225464   5.216   5.884   3.177  0.4012  0.4995 -0.6969
 1325TIP3   OH225465   2.553   3.074  15.297  0.1500  0.1939 -0.2580
 1325TIP3    H125466   2.552   3.114  15.210  1.4716 -0.3438 -0.5528
 1325TIP3    H225467   2.561   3.148  15.357 -0.1169  0.5303 -0.6297
 1326TIP3   OH225468   4.228   5.608   5.685  0.3378 -0.1418 -0.0352
 1326TIP3    H125469   4.168   5.584   5.615  2.6003 -0.4764 -2.0011
 1326TIP3    H225470   4.305   5.644   5.640  1.8484 -0.1965  2.2876
 1327TIP3   OH225471   5.436   0.615  12.360 -0.3836  0.2152  0.4470
 1327TIP3    H125472   5.447   0.540  12.301  1.1762  1.3549 -0.8034
 1327TIP3    H225473   5.389   0.679  12.307  0.7413  1.1361  0.5434
 1328TIP3   OH225474   5.179   4.608  15.389 -0.0642 -0.4869 -0.5400
 1328TIP3    H125475   5.190   4.561  15.306  0.8469  0.3030 -0.8906
 1328TIP3    H225476   5.253   4.579  15.442 -1.0524 -1.5575  0.3063
 1329TIP3   OH225477   6.279   5.421   2.346  0.0556 -0.4255 -0.3335
 1329TIP3    H125478   6.338   5.472   2.402 -1.1526  1.2389 -0.4870
 1329TIP3    H225479   6.297   5.453   2.257 -0.0784 -0.9575 -0.5591
 1330TIP3   OH225480   5.633   5.932  13.513 -0.0790  0.3563 -0.0286
 1330TIP3    H125481   5.619   5.987  13.436  1.8522  0.1312 -0.6133
 1330TIP3    H225482   5.546   5.920  13.551 -1.0697  0.6301 -2.0647
 1331TIP3   OH225483   1.252   3.584   3.280  0.0090  0.1568  0.3015
 1331TIP3    H125484   1.284   3.665   3.320 -1.1471  0.2637  1.0431
 1331TIP3    H225485   1.185   3.613   3.218  1.1993 -0.0766 -1.1495
 1332TIP3   OH225486   2.154   3.097  14.069  0.6424  0.0857 -0.5789
 1332TIP3    H125487   2.169   3.191  14.078  0.5313  0.0438  0.0540
 1332TIP3    H225488   2.172   3.079  13.976 -0.1578  0.8792 -0.9054
 1333TIP3   OH225489   5.516   0.851  15.028 -0.1546 -0.1890 -0.3098
 1333TIP3    H125490   5.528   0.773  14.973 -0.6429  0.5404 -1.4881
 1333TIP3    H225491   5.435   0.834  15.075 -0.4956 -0.2248 -0.8900
 1334TIP3   OH225492   5.282   5.157  17.152  0.0235 -0.2576 -0.4000
 1334TIP3    H125493   5.360   5.213  17.150 -0.9233  1.2600  1.5490
 1334TIP3    H225494   5.261   5.142  17.060  2.9845 -1.3117 -0.9940
 1335TIP3   OH225495   2.016   2.144   3.463 -0.1619 -0.5149 -0.3715
 1335TIP3    H125496   1.993   2.096   3.384  3.6962  0.9639 -2.7132
 1335TIP3    H225497   2.065   2.081   3.516  1.3468 -0.3776 -1.5138
 1336TIP3   OH225498   5.082   6.606   0.277  1.6272 -0.5732 -0.4556
 1336TIP3    H125499   5.171   6.636   0.258  0.9058  2.0565 -0.0215
 1336TIP3    H225500   5.055   6.559   0.198  2.8303 -0.0175 -1.2212
 1337TIP3   OH225501   4.212   3.163  14.960 -0.1431  0.1306 -0.2974
 1337TIP3    H125502   4.282   3.157  14.895 -1.9201 -0.0586 -2.2939
 1337TIP3    H225503   4.210   3.076  15.000 -0.8047 -0.6838 -1.9955
 1338TIP3   OH225504   6.003   5.854  15.566 -0.1134  0.6095 -0.1722
 1338TIP3    H125505   6.009   5.932  15.512  1.7721  0.0055 -0.9318
 1338TIP3    H225506   6.073   5.864  15.631 -0.7644  0.1972  0.6138
 1339TIP3   OH225507   2.391   3.220  14.304 -0.4483  0.0092 -0.4325
 1339TIP3    H125508   2.349   3.177  14.379  0.4044  0.0921  0.1073
 1339TIP3    H225509   2.320   3.264  14.258 -1.1529 -0.9581 -0.2982
 1340TIP3   OH225510   3.538   0.652   5.203 -0.0518 -0.1394 -0.1283
 1340TIP3    H125511   3.469   0.629   5.141 -1.0665  0.7866  0.6081
 1340TIP3    H225512   3.619   0.641   5.154 -0.7441 -0.7550 -1.1838
 1341TIP3   OH225513   3.565   5.317   1.665 -0.6574  0.1326  0.0269
 1341TIP3    H125514   3.583   5.391   1.723 -2.2256 -0.7128  1.6535
 1341TIP3    H225515   3.514   5.355   1.593  0.3729  0.9849 -0.2922
 1342TIP3   OH225516   1.204   1.594  16.877  0.5358 -0.0337  0.0798
 1342TIP3    H125517   1.259   1.659  16.833 -0.2568  1.3253  1.0183
 1342TIP3    H225518   1.257   1.514  16.878  1.4980  0.5530 -1.2010
 1343TIP3   OH225519   3.764   0.097  14.294  0.3269  0.2846  0.0848
 1343TIP3    H125520   3.745   0.188  14.316  0.4827  0.0286  1.3344
 1343TIP3    H225521   3.840   0.101  14.237 -0.3807  1.0053 -0.8344
 1344TIP3   OH225522   2.005   4.732  11.771  0.7206  0.4682 -0.4714
 1344TIP3    H125523   2.046   4.658  11.725  1.1667  0.8392 -0.6710
 1344TIP3    H225524   2.042   4.810  11.730  0.0230  0.8135 -0.4655
 1345TIP3   OH225525   0.080   0.070  11.609  0.1942 -0.1269  0.0562
 1345TIP3    H125526   0.121  -0.005  11.652  2.1678  0.8591 -0.0326
 1345TIP3    H225527   0.131   0.082  11.528 -0.2039  1.2048 -0.0180
 1346TIP3   OH225528   0.983   0.084   4.704 -0.0682 -0.2161  0.6417
 1346TIP3    H125529   0.893   0.103   4.732 -1.1210 -3.3085 -0.2038
 1346TIP3    H225530   0.980   0.087   4.608  0.2419 -1.9891  0.5422
 1347TIP3   OH225531   0.348   0.231   1.592 -0.3541  0.2314  0.0958
 1347TIP3    H125532   0.295   0.273   1.660 -0.1802 -1.0297  1.0507
 1347TIP3    H225533   0.337   0.137   1.608 -0.8467 -0.1310 -2.0584
 1348TIP3   OH225534   6.165   4.283  12.780 -0.6175 -0.1452 -0.2398
 1348TIP3    H125535   6.159   4.187  12.779  0.1827 -0.2021 -0.9092
 1348TIP3    H225536   6.104   4.310  12.849 -0.8523 -1.1330 -0.0380
 1349TIP3   OH225537   3.317   2.546  11.786 -0.2998 -0.0556  0.1029
 1349TIP3    H125538   3.363   2.604  11.725  0.7944 -2.6659 -1.7055
 1349TIP3    H225539   3.384   2.517  11.847 -0.6655 -0.0949  0.4913
 1350TIP3   OH225540   5.435   6.322  12.155 -0.3859  0.2947 -0.6837
 1350TIP3    H125541   5.365   6.307  12.092 -2.3629 -1.7731  1.7989
 1350TIP3    H225542   5.481   6.238  12.159 -0.6436  0.2075  0.9639
 1351TIP3   OH225543   3.934   3.100   4.178 -0.2956  0.4177 -0.0594
 1351TIP3    H125544   3.890   3.020   4.149  0.5365  0.1228 -0.5593
 1351TIP3    H225545   3.994   3.071   4.247 -0.0285  0.6156 -0.2056
 1352TIP3   OH225546   1.095   4.749   2.755 -0.3844 -0.1322  0.0282
 1352TIP3    H125547   1.029   4.796   2.703  1.0756  3.2743  0.9914
 1352TIP3    H225548   1.118   4.810   2.825  3.1119 -1.5336  0.2960
 1353TIP3   OH225549   4.337   1.770   0.540  0.3351  0.7140 -0.0467
 1353TIP3    H125550   4.347   1.766   0.635  2.0114  1.3947 -0.1598
 1353TIP3    H225551   4.417   1.730   0.506  0.4265  1.7775 -1.1468
 1354TIP3   OH225552   2.362   2.682   1.618  0.1244  0.0766 -0.1639
 1354TIP3    H125553   2.422   2.636   1.559 -0.8837 -0.0290 -1.1286
 1354TIP3    H225554   2.418   2.710   1.691  1.2378 -0.4910 -0.7651
 1355TIP3   OH225555   6.338   1.106  12.007  0.5157  0.3000 -0.0307
 1355TIP3    H125556   6.369   1.170  11.943 -0.2041  0.4081 -0.2727
 1355TIP3    H225557   6.344   1.022  11.961 -2.0457  0.5936 -1.0490
 1356TIP3   OH225558   6.554   4.950  16.165 -0.0130 -0.1627  0.1024
 1356TIP3    H125559   6.570   4.965  16.072 -1.5276  2.4560  0.1438
 1356TIP3    H225560   6.640   4.938  16.203  0.6350 -1.4261 -1.6110
 1357TIP3   OH225561   0.171   6.701  16.655  0.3503 -0.0742  0.0382
 1357TIP3    H125562   0.226   6.634  16.615 -1.2605 -0.3392 -1.9031
 1357TIP3    H225563   0.177   6.776  16.596 -2.0831 -0.4643 -0.8384
 1358TIP3   OH225564   2.698   0.865  15.906 -0.2501  0.0866  0.0404
 1358TIP3    H125565   2.683   0.939  15.966 -1.6820  0.8411 -1.1702
 1358TIP3    H225566   2.743   0.904  15.831  0.6962 -0.6706  0.2001
 1359TIP3   OH225567   4.430   2.531  14.505 -0.0847  0.3630 -0.3818
 1359TIP3    H125568   4.460   2.510  14.416  1.2136 -0.2676  0.1724
 1359TIP3    H225569   4.471   2.464  14.560 -1.1100  0.5657  0.6622
 1360TIP3   OH225570   0.313   3.482  16.543 -0.0993 -0.4625 -0.4597
 1360TIP3    H125571   0.337   3.548  16.609 -1.0292  0.5323 -1.0762
 1360TIP3    H225572   0.256   3.421  16.589  0.2827 -0.4912 -0.0251
 1361TIP3   OH225573   0.742   4.913   2.854 -0.2674 -0.4452  0.2500
 1361TIP3    H125574   0.673   4.971   2.822  0.8791 -0.2544 -2.1157
 1361TIP3    H225575   0.822   4.950   2.817  0.5888 -3.1090 -0.7250
 1362TIP3   OH225576   2.877   6.521  13.611  0.4737 -0.1954 -0.3315
 1362TIP3    H125577   2.894   6.500  13.519  1.9506 -0.7430  0.0463
 1362TIP3    H225578   2.942   6.589  13.632  0.9051 -0.8786  0.6048
 1363TIP3   OH225579   5.884   5.512  12.531  0.1638  0.3429  0.5440
 1363TIP3    H125580   5.815   5.579  12.534 -1.1219 -0.7971 -1.2622
 1363TIP3    H225581   5.872   5.461  12.611 -1.8860 -0.5165 -0.2451
 1364TIP3   OH225582   1.181   4.184   4.151 -0.0977 -0.1937 -0.6330
 1364TIP3    H125583   1.179   4.185   4.247 -0.4272 -0.9842 -0.6171
 1364TIP3    H225584   1.143   4.268   4.125 -0.2531 -0.0844 -0.0688
 1365TIP3   OH225585   5.637   5.740   3.389 -0.7005  0.2143  0.0702
 1365TIP3    H125586   5.559   5.796   3.393 -2.4983 -2.0722 -0.2303
 1365TIP3    H225587   5.678   5.762   3.305  0.4174  3.0902  1.2475
 1366TIP3   OH225588   0.064   6.637  16.284 -0.6618  0.5052  0.2022
 1366TIP3    H125589   0.007   6.619  16.359 -0.8442  0.9509  0.1734
 1366TIP3    H225590   0.093   6.551  16.255  1.5847  0.4203  2.4385
 1367TIP3   OH225591   1.992   3.414  17.207 -0.1459  0.0405 -0.1991
 1367TIP3    H125592   2.004   3.331  17.160 -0.1754 -0.4003  0.5523
 1367TIP3    H225593   1.901   3.438  17.190 -0.1647 -0.1285 -0.3453
 1368TIP3   OH225594   5.010   1.127  15.338  0.4135 -0.1576 -0.5875
 1368TIP3    H125595   5.066   1.174  15.399  2.5915 -1.2966 -1.6138
 1368TIP3    H225596   5.052   1.136  15.253 -0.3209 -2.0060 -1.2045
 1369TIP3   OH225597   4.201   4.612   4.273  0.3396  0.1771 -0.0837
 1369TIP3    H125598   4.206   4.603   4.178 -1.0230  0.2731 -0.1948
 1369TIP3    H225599   4.144   4.540   4.301  2.3870 -1.1436  0.9385
 1370TIP3   OH225600   1.597   0.474   5.947 -0.2157 -0.2131  0.0144
 1370TIP3    H125601   1.634   0.544   5.891  1.4824 -2.2919 -1.6549
 1370TIP3    H225602   1.503   0.489   5.945  0.0744  1.8958 -0.4436
 1371TIP3   OH225603   5.853   1.802   4.618  0.2088 -0.3559 -0.2905
 1371TIP3    H125604   5.923   1.788   4.554  0.9858  1.8490 -0.0376
 1371TIP3    H225605   5.808   1.718   4.623  2.2538 -1.5978 -1.1600
 1372TIP3   OH225606   5.337   4.210  15.689  0.2976  0.6344  0.3148
 1372TIP3    H125607   5.334   4.298  15.652  0.8687  0.3684 -0.3965
 1372TIP3    H225608   5.297   4.218  15.776  2.0794  1.9984  1.0720
 1373TIP3   OH225609   5.082   3.198  14.629 -0.2086 -0.2282 -0.3053
 1373TIP3    H125610   5.128   3.187  14.712 -0.1522 -1.0267 -0.4323
 1373TIP3    H225611   5.092   3.114  14.585 -1.4489 -0.2899 -0.5073
 1374TIP3   OH225612   4.429   3.653  15.665  0.3618 -0.0551 -0.1547
 1374TIP3    H125613   4.403   3.562  15.677  2.1251 -0.5816 -0.0463
 1374TIP3    H225614   4.418   3.693  15.751 -3.6121  0.8117 -0.8678
 1375TIP3   OH225615   4.145   5.565  13.936  0.0661  0.5719  0.3695
 1375TIP3    H125616   4.128   5.583  14.028  0.4230 -0.6251  0.6968
 1375TIP3    H225617   4.241   5.559  13.930 -0.0002 -0.5255  0.1795
 1376TIP3   OH225618   4.180   6.662   3.532  0.1963 -0.6913 -0.5197
 1376TIP3    H125619   4.149   6.619   3.452 -0.2589 -1.9949  0.3336
 1376TIP3    H225620   4.222   6.742   3.501 -0.9238 -0.6271 -1.9939
 1377TIP3   OH225621   3.898   0.752   6.640  0.3310 -0.2189 -0.0322
 1377TIP3    H125622   3.955   0.677   6.621 -0.6980 -1.0752  0.1490
 1377TIP3    H225623   3.949   0.806   6.700  1.3034 -0.4999 -0.5786
 1378TIP3   OH225624   4.966   0.992   2.207 -0.0239  0.6612  0.0693
 1378TIP3    H125625   4.954   1.087   2.207 -1.2264  0.5572  1.5365
 1378TIP3    H225626   4.978   0.970   2.300 -0.1135 -0.6551 -0.2113
 1379TIP3   OH225627   0.361   6.152   0.188 -0.2092  0.1596  0.6354
 1379TIP3    H125628   0.355   6.092   0.262  0.3863  0.0227  0.5714
 1379TIP3    H225629   0.408   6.228   0.222 -1.9943  1.1286  1.0550
 1380TIP3   OH225630   0.486   2.886  11.100  0.2827  0.3060  0.2484
 1380TIP3    H125631   0.487   2.973  11.060 -2.1567  1.5257  2.5115
 1380TIP3    H225632   0.472   2.902  11.193  2.0069 -2.4921  1.1205
 1381TIP3   OH225633   4.490   5.018  15.331  0.5291  0.2930 -0.2205
 1381TIP3    H125634   4.527   5.105  15.345 -0.8740  0.9433 -0.4565
 1381TIP3    H225635   4.503   4.973  15.415 -0.9335  1.5704  0.7370
 1382TIP3   OH225636   6.285   0.824  15.302  0.2832  0.1084 -0.0785
 1382TIP3    H125637   6.366   0.774  15.291  0.3449 -0.2886  1.8277
 1382TIP3    H225638   6.306   0.889  15.370 -0.6819  0.7324 -0.3582
 1383TIP3   OH225639   6.799   6.431  11.682  0.5127 -0.3241 -0.4686
 1383TIP3    H125640   6.866   6.464  11.741  0.4276  0.7994 -0.9813
 1383TIP3    H225641   6.831   6.345  11.654  0.5525 -0.8977  1.1889
 1384TIP3   OH225642   4.443   3.374  14.316 -0.6935  0.1951  0.3198
 1384TIP3    H125643   4.416   3.464  14.336 -0.4321  0.8989 -2.1564
 1384TIP3    H225644   4.537   3.373  14.331 -0.5532  0.6069 -0.5065
 1385TIP3   OH225645   0.242   3.847  16.874 -0.0361 -0.7262 -0.1624
 1385TIP3    H125646   0.325   3.894  16.877 -1.8980  3.0606 -1.3089
 1385TIP3    H225647   0.224   3.835  16.781 -1.2312 -0.4889  0.0120
 1386TIP3   OH225648   4.684   5.159   3.725  0.0752 -0.1654 -0.3149
 1386TIP3    H125649   4.704   5.079   3.675 -1.4672  0.6889 -2.4690
 1386TIP3    H225650   4.589   5.157   3.736  0.0518  1.2205 -0.1140
 1387TIP3   OH225651   1.351   2.757   3.633  0.4142  0.3621 -0.1485
 1387TIP3    H125652   1.403   2.794   3.704  0.9088 -0.3604 -0.1202
 1387TIP3    H225653   1.411   2.750   3.559  0.4989 -0.8825  0.0154
 1388TIP3   OH225654   1.012   2.916  14.045  0.3065 -0.1760  0.1770
 1388TIP3    H125655   1.067   2.984  14.085  1.4665 -0.4549 -0.8746
 1388TIP3    H225656   1.059   2.834  14.063 -1.1220 -0.7554  1.5127
 1389TIP3   OH225657   6.186   0.880   3.902  0.4334 -0.5406  0.4091
 1389TIP3    H125658   6.267   0.922   3.874  0.7889 -1.3741  0.1411
 1389TIP3    H225659   6.188   0.794   3.859 -1.0071 -0.2447 -0.2730
 1390TIP3   OH225660   3.149   2.339   2.836  0.3863 -0.1868 -0.2266
 1390TIP3    H125661   3.066   2.293   2.841  0.0583  0.5548  2.0573
 1390TIP3    H225662   3.214   2.277   2.870  0.7756 -0.6780 -1.7792
 1391TIP3   OH225663   2.711   0.143   4.801  0.3931  0.2335  0.0418
 1391TIP3    H125664   2.718   0.161   4.708 -0.4049  0.5357  0.0368
 1391TIP3    H225665   2.657   0.215   4.836  0.9539  0.3099  0.7890
 1392TIP3   OH225666   0.685   2.287  11.855  0.9581  0.4326  0.4060
 1392TIP3    H125667   0.729   2.273  11.940 -0.7722  1.7806  1.5842
 1392TIP3    H225668   0.592   2.272  11.873  0.6423 -0.2306 -1.5199
 1393TIP3   OH225669   6.362   1.201  16.884 -0.6722 -0.2136 -0.7350
 1393TIP3    H125670   6.433   1.207  16.947 -1.1066 -0.1367 -0.2514
 1393TIP3    H225671   6.309   1.279  16.900 -1.5834 -0.9188 -0.2194
 1394TIP3   OH225672   3.285   1.950   6.325 -0.4647 -0.1962  0.1020
 1394TIP3    H125673   3.289   2.043   6.302 -0.7089 -0.2388 -0.1171
 1394TIP3    H225674   3.336   1.943   6.406  2.7598 -0.4913 -1.7668
 1395TIP3   OH225675   5.046   5.185  10.565  0.1476 -0.1917 -0.1020
 1395TIP3    H125676   5.026   5.104  10.611 -3.0926  0.3737 -0.2443
 1395TIP3    H225677   5.082   5.157  10.481 -1.5262 -1.5702 -0.4107
 1396TIP3   OH225678   5.735   1.236  12.260  0.1339  0.2135 -0.4261
 1396TIP3    H125679   5.746   1.291  12.338  0.0499 -1.2098  0.6389
 1396TIP3    H225680   5.642   1.215  12.259 -0.1136  1.2939 -1.6962
 1397TIP3   OH225681   6.355   3.286   0.305 -0.2476 -0.3541 -0.3130
 1397TIP3    H125682   6.298   3.349   0.349  2.1674  1.5162  0.3056
 1397TIP3    H225683   6.409   3.250   0.376  1.6434  0.4782 -1.2712
 1398TIP3   OH225684   2.241   4.123   0.602  0.5724  0.4669  0.3769
 1398TIP3    H125685   2.187   4.059   0.648  3.8055 -1.8166  1.3319
 1398TIP3    H225686   2.279   4.177   0.672  0.5689  1.1714 -0.1563
 1399TIP3   OH225687   2.036   6.318   0.625 -0.1781  0.6196 -0.0426
 1399TIP3    H125688   2.070   6.332   0.536 -1.1110 -0.8142 -0.6783
 1399TIP3    H225689   2.098   6.362   0.682  1.7154 -0.3184 -1.2633
 1400TIP3   OH225690   3.423   0.813   3.305  0.0230  0.7492  0.2819
 1400TIP3    H125691   3.393   0.723   3.320 -2.9253  1.6528  0.3660
 1400TIP3    H225692   3.456   0.811   3.215  0.7676 -0.5651  0.5466
 1401TIP3   OH225693   1.757   6.777  10.856  0.1055  0.0984 -0.5554
 1401TIP3    H125694   1.810   6.791  10.777 -0.0457  0.0754 -0.6626
 1401TIP3    H225695   1.668   6.797  10.828  0.3270  2.3654  0.2245
 1402TIP3   OH225696   6.307   2.850   3.373  0.3614 -0.0333  0.2191
 1402TIP3    H125697   6.265   2.929   3.338  0.5617 -0.6010 -1.4136
 1402TIP3    H225698   6.339   2.876   3.459 -1.9561  0.8556  0.8762
 1403TIP3   OH225699   5.860   1.557  13.018  0.5181 -0.1712  0.5937
 1403TIP3    H125700   5.904   1.642  13.015  0.5476 -0.1550  1.3209
 1403TIP3    H225701   5.901   1.507  12.947 -0.0639  0.6803 -0.3731
 1404TIP3   OH225702   1.437   0.773  10.625  0.1039  0.2336  0.3060
 1404TIP3    H125703   1.456   0.800  10.535  1.1116 -0.8296  0.1769
 1404TIP3    H225704   1.342   0.761  10.627 -0.0124  0.9533 -0.4095
 1405TIP3   OH225705   6.378   2.058  11.677  0.2216  0.1360  0.2037
 1405TIP3    H125706   6.284   2.058  11.693  0.3193 -0.7613  0.9064
 1405TIP3    H225707   6.391   1.997  11.605  0.2654  0.2386  0.1250
 1406TIP3   OH225708   0.786   6.787  10.239 -0.3284 -0.1198  0.1148
 1406TIP3    H125709   0.700   6.794  10.199 -0.4301 -1.7924 -0.0341
 1406TIP3    H225710   0.847   6.797  10.165 -0.3721  0.9179  0.1991
 1407TIP3   OH225711   6.083   5.250   2.288 -0.2812  0.7748  0.1935
 1407TIP3    H125712   6.102   5.193   2.214 -0.0317  2.0322 -0.7456
 1407TIP3    H225713   6.158   5.309   2.293 -2.2765  3.6513 -1.4573
 1408TIP3   OH225714   6.217   4.853  13.916  0.1465 -0.1651 -1.0229
 1408TIP3    H125715   6.151   4.883  13.978  1.4445 -2.0592  1.5070
 1408TIP3    H225716   6.184   4.769  13.884  0.2145  0.0608 -1.7095
 1409TIP3   OH225717   5.912   1.330   2.628  0.7251  0.0246 -0.1311
 1409TIP3    H125718   5.950   1.357   2.544  0.1906  0.6508 -0.1784
 1409TIP3    H225719   5.926   1.236   2.631  1.9506  0.1860 -0.3169
 1410TIP3   OH225720   2.384   6.335  11.375 -0.2874 -0.0074 -0.4601
 1410TIP3    H125721   2.312   6.383  11.335 -1.4090 -0.8035  0.5355
 1410TIP3    H225722   2.342   6.273  11.434  1.2357  0.9144  1.7407
 1411TIP3   OH225723   3.379   1.575   1.914  0.4029 -0.0395  0.3848
 1411TIP3    H125724   3.335   1.655   1.887 -1.2490 -1.5007 -1.5570
 1411TIP3    H225725   3.404   1.532   1.832  1.0063 -1.6382  1.3463
 1412TIP3   OH225726   1.237   6.225  14.096 -0.3118 -0.2177 -0.1293
 1412TIP3    H125727   1.279   6.288  14.155 -0.9618 -0.1978  0.3204
 1412TIP3    H225728   1.266   6.139  14.127 -0.4147 -0.1947  0.0286
 1413TIP3   OH225729   6.126   6.359   4.890  0.4713 -0.2858 -1.1658
 1413TIP3    H125730   6.043   6.387   4.929  0.8595  0.0908 -0.5894
 1413TIP3    H225731   6.130   6.265   4.906  0.0248 -0.3528 -1.4447
 1414TIP3   OH225732   2.705   0.209  11.008  0.6141 -0.5299 -0.1406
 1414TIP3    H125733   2.765   0.170  10.945  2.2756  1.4142  0.1312
 1414TIP3    H225734   2.650   0.268  10.956  0.6891 -0.3606 -0.0298
 1415TIP3   OH225735   1.382   6.727   5.105  0.0307  0.4202  0.0620
 1415TIP3    H125736   1.399   6.810   5.150 -1.4955  0.0377  1.4555
 1415TIP3    H225737   1.469   6.695   5.080  0.6797  2.2186 -0.1309
 1416TIP3   OH225738   3.651   1.492   2.992 -0.5871  0.6822 -0.1396
 1416TIP3    H125739   3.655   1.571   3.045 -0.9739  1.1729 -0.8220
 1416TIP3    H225740   3.581   1.509   2.929  0.9290  0.8304 -1.8902
 1417TIP3   OH225741   1.850   2.374  12.668 -0.3194 -0.4356 -0.1496
 1417TIP3    H125742   1.904   2.413  12.599  1.8350 -2.0260  0.5129
 1417TIP3    H225743   1.760   2.399  12.646 -0.0546 -2.6767 -4.8289
 1418TIP3   OH225744   4.191   1.487   4.988 -0.2470  0.0104  0.4428
 1418TIP3    H125745   4.142   1.405   4.990 -1.9412  0.9884  1.0883
 1418TIP3    H225746   4.268   1.468   4.933 -1.9728 -1.2390 -1.7075
 1419TIP3   OH225747   2.690   3.703   1.808  0.1188 -0.0737  0.0419
 1419TIP3    H125748   2.725   3.672   1.725  1.8692  1.3355  0.1763
 1419TIP3    H225749   2.715   3.636   1.872 -0.1630 -0.5713 -0.3684
 1420TIP3   OH225750   2.046   3.438   4.818  0.4873  0.2040 -0.3506
 1420TIP3    H125751   2.107   3.475   4.754 -0.5799  0.1578 -1.4413
 1420TIP3    H225752   2.085   3.458   4.903  2.4865 -0.6450 -1.0107
 1421TIP3   OH225753   1.761   6.420   4.844  0.8629  0.0421 -0.1820
 1421TIP3    H125754   1.705   6.482   4.799 -0.0368 -0.7663 -0.2109
 1421TIP3    H225755   1.748   6.337   4.796 -0.1590 -0.8561  1.5369
 1422TIP3   OH225756   3.156   2.020  13.727 -0.5817  0.0617 -0.1626
 1422TIP3    H125757   3.231   2.058  13.772 -0.7554 -0.5815  0.7011
 1422TIP3    H225758   3.138   2.080  13.655  0.5219  0.4203 -0.1577
 1423TIP3   OH225759   0.810   0.740   5.442 -0.3555 -0.2186 -0.2688
 1423TIP3    H125760   0.776   0.829   5.440 -0.4163 -0.2461 -0.4495
 1423TIP3    H225761   0.748   0.689   5.389 -1.6932 -0.8424  1.7710
 1424TIP3   OH225762   1.481   0.596   3.364  0.4732  0.0921  0.1452
 1424TIP3    H125763   1.435   0.668   3.321 -0.6581  0.9228  2.5607
 1424TIP3    H225764   1.412   0.537   3.393  1.3217 -1.3531 -0.6811
 1425TIP3   OH225765   6.695   6.836   2.394 -0.1224 -0.9937 -0.0516
 1425TIP3    H125766   6.674   6.923   2.426 -1.2257 -0.3584 -2.3377
 1425TIP3    H225767   6.780   6.816   2.433  0.1075  1.0511  0.5877
 1426TIP3   OH225768   0.872   5.257   2.330 -0.0056 -0.1857 -0.1266
 1426TIP3    H125769   0.949   5.258   2.387 -0.0516 -0.5123 -0.0571
 1426TIP3    H225770   0.851   5.349   2.316  1.6343 -0.0324 -1.8428
 1427TIP3   OH225771   1.612   4.824  14.523 -0.1121 -0.0278 -0.4239
 1427TIP3    H125772   1.683   4.889  14.526 -0.9426  0.8830  1.5942
 1427TIP3    H225773   1.656   4.742  14.503  1.9599  0.0681  2.9030
 1428TIP3   OH225774   2.954   6.821   3.432 -0.0671 -0.9405  0.7843
 1428TIP3    H125775   2.909   6.873   3.365 -0.9857  1.4800  3.0756
 1428TIP3    H225776   3.043   6.811   3.398  0.8017  3.9735  0.8813
 1429TIP3   OH225777   4.045   0.126  15.421  0.0820 -0.4483  0.4271
 1429TIP3    H125778   4.091   0.146  15.339  0.2532  0.0129  0.6302
 1429TIP3    H225779   4.011   0.038  15.409  2.3349 -1.4372  0.8428
 1430TIP3   OH225780   4.776   3.383  13.141 -0.3474 -0.2322  0.3738
 1430TIP3    H125781   4.818   3.462  13.176  0.3759 -0.0488 -0.8253
 1430TIP3    H225782   4.778   3.321  13.213  0.8542  0.2083  0.7467
 1431TIP3   OH225783   6.396   5.623   6.358 -0.3136  0.1258 -0.1959
 1431TIP3    H125784   6.342   5.686   6.311  2.1867  0.4471 -2.9624
 1431TIP3    H225785   6.395   5.544   6.304  3.1862  0.7149 -1.4081
 1432TIP3   OH225786   2.755   0.594   3.821 -0.2751  0.0968 -0.0295
 1432TIP3    H125787   2.740   0.500   3.833 -1.3019  0.1400 -0.7907
 1432TIP3    H225788   2.770   0.628   3.909 -0.3585 -0.7014  0.3009
 1433TIP3   OH225789   2.907   2.688  17.163 -0.4793 -0.0444 -0.2062
 1433TIP3    H125790   2.815   2.710  17.170 -0.5186 -0.1030 -0.5102
 1433TIP3    H225791   2.921   2.618  17.227 -0.4698  0.4930  0.3900
 1434TIP3   OH225792   2.456   0.829   3.397 -0.3106 -0.2066 -0.3837
 1434TIP3    H125793   2.413   0.820   3.482 -0.3739 -0.6941 -0.4636
 1434TIP3    H225794   2.395   0.880   3.344 -1.5381 -2.2091 -0.9899
 1435TIP3   OH225795   3.964   6.012  14.454  0.3495  0.1678 -0.7786
 1435TIP3    H125796   3.889   6.063  14.422 -0.7065  0.3258  1.7298
 1435TIP3    H225797   4.038   6.073  14.451 -0.1278  0.7355 -1.1388
 1436TIP3   OH225798   1.933   1.705  16.704  0.1601 -0.1018 -0.6103
 1436TIP3    H125799   1.973   1.740  16.625 -1.2979  0.8897 -0.9477
 1436TIP3    H225800   1.954   1.612  16.702  0.4705 -0.0267 -1.9695
 1437TIP3   OH225801   1.264   3.587  15.785 -0.0535  0.4824  0.2082
 1437TIP3    H125802   1.227   3.668  15.821 -1.3262  0.6617 -1.3516
 1437TIP3    H225803   1.300   3.613  15.701 -0.2133 -0.5138 -0.1784
 1438TIP3   OH225804   5.463   2.507   4.373 -0.2082  0.0090  0.3681
 1438TIP3    H125805   5.395   2.556   4.327 -1.9178 -0.2480  2.4330
 1438TIP3    H225806   5.435   2.508   4.465  0.5602 -3.3192  0.7806
 1439TIP3   OH225807   3.083   0.825  14.438 -0.4561  0.2422  0.8706
 1439TIP3    H125808   3.063   0.911  14.400 -2.0541 -0.0987  0.8829
 1439TIP3    H225809   3.024   0.817  14.513  1.0249 -0.0916  2.0493
 1440TIP3   OH225810   2.403   0.690  16.008  0.1287  0.1941 -0.3238
 1440TIP3    H125811   2.386   0.784  16.017 -1.9933 -0.0325 -1.3536
 1440TIP3    H225812   2.447   0.682  15.923  0.2924  0.2408 -0.2448
 1441TIP3   OH225813   6.219   0.929  11.282 -0.0401 -0.1767  0.1716
 1441TIP3    H125814   6.187   0.853  11.331 -0.4198  0.5368  1.0585
 1441TIP3    H225815   6.226   0.898  11.192 -1.1962 -0.9677  0.3299
 1442TIP3   OH225816   0.367   5.443  13.670  0.4204  0.1232 -0.3645
 1442TIP3    H125817   0.450   5.428  13.715  0.4299 -1.3668 -0.8041
 1442TIP3    H225818   0.320   5.506  13.724  1.3814  0.1319  0.4821
 1443TIP3   OH225819   6.644   2.742  16.338  0.2056  0.1574 -0.5451
 1443TIP3    H125820   6.643   2.817  16.397  1.7024  1.0686 -1.6031
 1443TIP3    H225821   6.606   2.671  16.389  0.1084  1.2541  0.9961
 1444TIP3   OH225822   6.378   5.490  13.942 -0.4768 -0.1400  0.1336
 1444TIP3    H125823   6.445   5.423  13.933 -2.1697 -2.0481  1.0463
 1444TIP3    H225824   6.359   5.516  13.852 -0.5508 -1.7113 -0.3361
 1445TIP3   OH225825   1.027   4.259  16.972  0.2218 -0.1251 -0.1530
 1445TIP3    H125826   1.116   4.273  16.940  0.5694 -0.4981  0.6271
 1445TIP3    H225827   0.972   4.313  16.915  1.1706  1.9220  0.7645
 1446TIP3   OH225828   2.465   5.926   0.189  0.2427  0.0581 -0.4012
 1446TIP3    H125829   2.493   5.978   0.114  0.9397 -1.7416 -1.4362
 1446TIP3    H225830   2.418   5.852   0.151  0.8501 -1.0372  0.8934
 1447TIP3   OH225831   2.727   1.056  16.103 -0.5794  0.4996 -0.0303
 1447TIP3    H125832   2.667   1.032  16.173 -1.1819 -0.6202 -0.8809
 1447TIP3    H225833   2.707   1.147  16.083 -1.0623  0.5313  0.5968
 1448TIP3   OH225834   0.291   1.369   1.134 -0.3012 -0.4778  0.2546
 1448TIP3    H125835   0.241   1.360   1.215 -0.5806 -1.8311 -0.0509
 1448TIP3    H225836   0.252   1.306   1.074  1.9619 -1.8738  0.1152
 1449TIP3   OH225837   5.279   1.533   1.026 -0.3944 -0.1618  0.1810
 1449TIP3    H125838   5.195   1.519   1.070 -0.5683 -0.8423 -0.3487
 1449TIP3    H225839   5.255   1.554   0.936 -0.0042  0.0630  0.1284
 1450TIP3   OH225840   3.274   3.787   4.547  0.0027 -0.2612  0.1399
 1450TIP3    H125841   3.346   3.830   4.593  0.2003 -0.1478 -0.2647
 1450TIP3    H225842   3.283   3.694   4.568  1.1094 -0.4415 -1.0170
 1451TIP3   OH225843   3.652   6.484   1.082  0.4327  0.4235  0.3265
 1451TIP3    H125844   3.638   6.508   0.990 -0.1039  0.3055  0.3713
 1451TIP3    H225845   3.588   6.414   1.098  1.8530 -0.9736  0.2298
 1452TIP3   OH225846   2.564   0.035   4.106 -0.2161  0.3366  0.3009
 1452TIP3    H125847   2.630   0.103   4.100  1.4156 -1.2913 -1.6476
 1452TIP3    H225848   2.543   0.013   4.015 -2.7401  0.0729  0.8528
 1453TIP3   OH225849   0.215   3.823  11.294  0.0900 -0.1802 -0.4776
 1453TIP3    H125850   0.203   3.910  11.330 -0.3919 -0.9606  1.3401
 1453TIP3    H225851   0.169   3.765  11.354  0.4778 -1.7136 -1.5868
 1454TIP3   OH225852   5.400   2.476  14.083 -0.3613  0.1154  0.2367
 1454TIP3    H125853   5.327   2.472  14.145  0.7450 -2.1449  1.5514
 1454TIP3    H225854   5.405   2.387  14.047  0.8011  0.6427 -0.9657
 1455TIP3   OH225855   0.329   1.850   2.222  0.1483  0.4225  0.0682
 1455TIP3    H125856   0.350   1.759   2.202 -1.8146 -0.0618  0.0229
 1455TIP3    H225857   0.334   1.855   2.318 -4.0034 -1.0234  0.5818
 1456TIP3   OH225858   4.163   5.845   5.000 -0.0309 -0.1717 -0.0622
 1456TIP3    H125859   4.224   5.793   4.947  0.4635  0.7844 -0.4682
 1456TIP3    H225860   4.103   5.884   4.936 -0.7088 -0.6354  0.2847
 1457TIP3   OH225861   4.080   0.792  11.179  0.1126 -0.4052 -0.0627
 1457TIP3    H125862   4.094   0.756  11.091  0.6329  1.0584 -0.6001
 1457TIP3    H225863   3.994   0.833  11.174  0.8428  1.1416 -0.4252
 1458TIP3   OH225864   0.445   2.915  11.374  0.1883  0.2761 -0.7948
 1458TIP3    H125865   0.522   2.869  11.409 -0.1035  0.9199  0.7794
 1458TIP3    H225866   0.374   2.891  11.434 -0.1966  1.9326 -0.5389
 1459TIP3   OH225867   3.635   4.385  12.867  0.1559  0.5797 -0.1873
 1459TIP3    H125868   3.653   4.322  12.937 -0.7046 -0.0742 -0.5426
 1459TIP3    H225869   3.573   4.340  12.809 -0.9622  1.9746 -0.1263
 1460TIP3   OH225870   2.204   0.236  14.977 -0.6407 -0.4218  0.2162
 1460TIP3    H125871   2.139   0.167  14.993 -0.4347 -0.6847 -0.0679
 1460TIP3    H225872   2.154   0.309  14.942 -0.4411 -1.6497 -2.9157
 1461TIP3   OH225873   2.788   5.860   0.482 -0.6416  0.1219 -0.9989
 1461TIP3    H125874   2.733   5.846   0.559 -0.1604 -1.1649 -0.8849
 1461TIP3    H225875   2.781   5.779   0.432  0.8763  0.0632 -1.1607
 1462TIP3   OH225876   3.968   0.369  13.009  0.0157 -0.0270  0.0927
 1462TIP3    H125877   4.053   0.375  13.053 -0.1164 -0.5692  0.4313
 1462TIP3    H225878   3.911   0.427  13.059 -0.2490 -0.9806  0.9335
 1463TIP3   OH225879   3.713   2.881   5.854 -0.3307 -0.8528 -0.6242
 1463TIP3    H125880   3.737   2.872   5.946 -0.0854 -1.2709 -0.7238
 1463TIP3    H225881   3.670   2.966   5.848  0.2037 -0.5477 -0.2391
 1464TIP3   OH225882   2.870   3.505   4.040  0.0586  0.2002  0.7379
 1464TIP3    H125883   2.799   3.562   4.010 -1.1811  0.3904  3.6651
 1464TIP3    H225884   2.947   3.561   4.041  0.3183  0.0527 -2.3061
 1465TIP3   OH225885   5.727   3.620  11.777 -0.1521 -0.0644 -0.6751
 1465TIP3    H125886   5.706   3.606  11.684  0.7223 -0.1072 -0.8773
 1465TIP3    H225887   5.662   3.568  11.824 -0.3675 -0.3588 -1.2772
 1466TIP3   OH225888   1.723   1.731  12.534  0.3547  0.2501  0.6642
 1466TIP3    H125889   1.710   1.647  12.577 -0.2651  0.2310  0.4515
 1466TIP3    H225890   1.815   1.731  12.508  0.9233  0.5053  2.5040
 1467TIP3   OH225891   2.476   3.079  15.003  0.1773  0.1165  0.3904
 1467TIP3    H125892   2.520   3.164  14.993  2.0973 -1.0452 -2.2003
 1467TIP3    H225893   2.398   3.087  14.947  1.1637 -0.2628 -1.0939
 1468TIP3   OH225894   3.926   2.785  11.665 -0.2247  0.3850 -0.2723
 1468TIP3    H125895   3.944   2.875  11.638 -0.9736  1.6603  2.9211
 1468TIP3    H225896   4.010   2.753  11.698 -0.1628  0.2373 -0.5710
 1469TIP3   OH225897   4.109   3.296  15.794 -0.6917  0.0781 -0.4154
 1469TIP3    H125898   4.048   3.275  15.723 -0.8678 -0.5625 -0.0791
 1469TIP3    H225899   4.123   3.213  15.840  0.7221  0.1197 -0.7021
 1470TIP3   OH225900   2.867   2.090  14.339 -0.1248  0.9435 -0.3817
 1470TIP3    H125901   2.946   2.078  14.392  0.7180  1.4790 -1.4744
 1470TIP3    H225902   2.867   2.183  14.318  0.2438  0.5554 -2.3085
 1471TIP3   OH225903   5.004   1.547   5.842  0.1495  0.7015 -0.2467
 1471TIP3    H125904   5.020   1.466   5.889  0.0333  0.7104 -0.1908
 1471TIP3    H225905   4.986   1.612   5.911 -1.2851  0.4372 -0.3357
 1472TIP3   OH225906   3.943   5.762  15.138 -0.7735 -0.1923 -0.0698
 1472TIP3    H125907   3.878   5.805  15.083 -0.5040 -0.7906 -0.8734
 1472TIP3    H225908   3.952   5.674  15.102  2.3784  0.6389 -1.7049
 1473TIP3   OH225909   4.698   0.318  11.045 -0.0989  0.0102 -0.6676
 1473TIP3    H125910   4.742   0.343  10.963  0.8622  0.6635  0.0296
 1473TIP3    H225911   4.754   0.250  11.083  1.7169  2.4342  1.3694
 1474TIP3   OH225912   0.016   3.967  12.366  0.1480 -0.3348  0.5352
 1474TIP3    H125913  -0.051   4.029  12.392  1.0437  2.2007 -2.5577
 1474TIP3    H225914  -0.017   3.928  12.285  0.3542 -2.7855  1.5307
 1475TIP3   OH225915   5.699   0.292  16.576  0.6329  0.3578  0.5752
 1475TIP3    H125916   5.643   0.362  16.543 -0.5744 -0.4828  0.7475
 1475TIP3    H225917   5.682   0.218  16.517  1.0570 -0.1135  1.0371
 1476TIP3   OH225918   0.309   0.854   5.293  0.5047  0.4863  0.1616
 1476TIP3    H125919   0.311   0.896   5.208  0.0591 -0.2701 -0.2338
 1476TIP3    H225920   0.393   0.807   5.299  0.5646  0.5939  0.1710
 1477TIP3   OH225921   4.756   2.849  16.454 -0.3856 -0.3371 -0.1453
 1477TIP3    H125922   4.798   2.842  16.368  0.7728 -0.9568  0.4450
 1477TIP3    H225923   4.703   2.770  16.461 -0.6317 -0.1932 -0.3604
 1478TIP3   OH225924   6.682   4.712  11.461 -0.3274 -0.4454  0.2766
 1478TIP3    H125925   6.617   4.665  11.512 -1.0071 -1.3256 -1.3220
 1478TIP3    H225926   6.632   4.754  11.391  0.5415  0.9240  0.4387
 1479TIP3   OH225927   2.699   4.887  16.070  0.4496  0.1228 -0.1686
 1479TIP3    H125928   2.716   4.956  16.006 -0.3285  0.0628 -0.4445
 1479TIP3    H225929   2.749   4.913  16.147 -0.1676  1.2207 -0.1252
 1480TIP3   OH225930   1.258   6.469  15.488 -0.2945 -0.6800 -0.3554
 1480TIP3    H125931   1.220   6.386  15.519  1.5585 -2.0168 -1.4568
 1480TIP3    H225932   1.297   6.508  15.566  0.9192 -2.0817 -0.1963
 1481TIP3   OH225933   3.479   5.921   5.200 -0.5461  0.0790 -0.6838
 1481TIP3    H125934   3.431   5.838   5.196  1.0413 -0.9004 -0.3223
 1481TIP3    H225935   3.488   5.939   5.293 -0.2114  0.2586 -0.7491
 1482TIP3   OH225936   5.713   0.725  12.231  0.5501 -0.2564  0.4555
 1482TIP3    H125937   5.756   0.753  12.151  0.3440  0.8668  0.7292
 1482TIP3    H225938   5.664   0.801  12.261  0.5664 -0.6750  1.6165
 1483TIP3   OH225939   4.659   4.229   2.572 -0.5259 -0.2896  0.0954
 1483TIP3    H125940   4.695   4.223   2.660 -1.5573  0.3051  0.5912
 1483TIP3    H225941   4.564   4.225   2.585 -0.7200  0.4289 -0.9143
 1484TIP3   OH225942   6.751   0.820  16.841 -0.0391 -0.3678 -0.3741
 1484TIP3    H125943   6.670   0.769  16.845  0.2975 -0.7994  1.2034
 1484TIP3    H225944   6.820   0.758  16.863  0.4371  0.6039  0.9492
 1485TIP3   OH225945   2.457   2.309   5.701 -0.3270 -0.2119  0.1169
 1485TIP3    H125946   2.508   2.238   5.740 -0.1588 -0.0093  0.2669
 1485TIP3    H225947   2.391   2.330   5.767  1.2397  1.5428  1.2089
 1486TIP3   OH225948   4.734   5.255  16.330 -0.2650 -0.4108 -0.0157
 1486TIP3    H125949   4.666   5.323  16.335 -0.0781 -0.2657  0.6542
 1486TIP3    H225950   4.767   5.248  16.420  1.3654  0.3118 -0.5148
 1487TIP3   OH225951   2.739   0.073   1.918  0.2444 -0.6286  0.3462
 1487TIP3    H125952   2.706   0.032   1.838  0.6534 -0.3678  0.0412
 1487TIP3    H225953   2.823   0.029   1.934  0.8090  0.2470 -0.1228
 1488TIP3   OH225954   6.424   6.511   3.287  0.2138  0.0414 -0.1579
 1488TIP3    H125955   6.509   6.524   3.330  0.6872 -0.2903 -0.9613
 1488TIP3    H225956   6.393   6.427   3.321  0.8368 -0.4810 -0.8372
 1489TIP3   OH225957   1.365   5.906  13.818 -0.9151 -0.4012 -0.0718
 1489TIP3    H125958   1.395   5.991  13.787 -0.6543  0.1015  1.4554
 1489TIP3    H225959   1.445   5.862  13.848 -1.1831 -0.7461  0.1463
 1490TIP3   OH225960   4.761   1.079  11.660  0.2482 -0.4023 -0.6262
 1490TIP3    H125961   4.841   1.107  11.616 -0.7886  0.0069 -2.3487
 1490TIP3    H225962   4.697   1.148  11.640 -0.3500 -0.2852  1.4201
 1491TIP3   OH225963   4.311   4.323   4.282 -0.1780 -0.4373  0.2659
 1491TIP3    H125964   4.359   4.243   4.261 -3.0622 -2.3755  0.4115
 1491TIP3    H225965   4.287   4.359   4.197 -0.8749 -1.0824  0.1785
 1492TIP3   OH225966   2.267   5.747   3.539 -0.4769 -0.0278 -0.1888
 1492TIP3    H125967   2.225   5.756   3.453  0.8198  0.5680 -0.7909
 1492TIP3    H225968   2.231   5.666   3.574 -0.7956 -0.4623 -1.4456
 1493TIP3   OH225969   4.459   3.327   3.726 -0.0557 -0.3672 -0.2620
 1493TIP3    H125970   4.430   3.359   3.811  0.1275  0.9089 -0.6535
 1493TIP3    H225971   4.388   3.271   3.695  0.7678 -2.6129  1.6299
 1494TIP3   OH225972   4.786   6.452  12.564  1.0122  0.2137 -0.3188
 1494TIP3    H125973   4.735   6.427  12.487  0.5610 -1.6575  0.5366
 1494TIP3    H225974   4.733   6.518  12.608 -0.4906 -1.3115  0.2698
 1495TIP3   OH225975   0.868   3.738  16.598 -0.2504  0.3153 -0.4040
 1495TIP3    H125976   0.898   3.755  16.508 -2.0427  1.7171 -0.7895
 1495TIP3    H225977   0.842   3.824  16.631  0.9106 -0.0639  1.7222
 1496TIP3   OH225978   2.299   6.374  11.883  0.1649  0.0925  0.4876
 1496TIP3    H125979   2.240   6.394  11.956  0.4498 -1.1023  1.0757
 1496TIP3    H225980   2.371   6.437  11.893 -0.4154  0.7675  0.4804
 1497TIP3   OH225981   5.602   4.284   0.623  0.0804  0.2339  0.1412
 1497TIP3    H125982   5.641   4.371   0.624 -0.4042  0.4560 -0.1897
 1497TIP3    H225983   5.614   4.253   0.534  0.7689 -0.2817  0.4022
 1498TIP3   OH225984   1.754   1.056  15.642 -0.0247  0.1423 -0.4176
 1498TIP3    H125985   1.848   1.052  15.621  0.2499 -0.3221  0.7988
 1498TIP3    H225986   1.745   1.136  15.695 -0.0139 -0.5912  0.7381
 1499TIP3   OH225987   6.324   2.512  12.642 -0.5825 -0.2650 -0.1150
 1499TIP3    H125988   6.352   2.523  12.551 -0.3419  2.0552  0.1729
 1499TIP3    H225989   6.391   2.457  12.681  0.6450  0.7027 -0.7795
 1500TIP3   OH225990   1.995   6.427   6.257  0.2897 -0.2478  0.0228
 1500TIP3    H125991   1.976   6.428   6.163 -1.1310 -1.2048  0.2771
 1500TIP3    H225992   2.006   6.519   6.280  0.3354  0.0156 -1.0201
 1501TIP3   OH225993   0.966   3.614   0.453  0.3090 -0.4201 -0.4076
 1501TIP3    H125994   1.062   3.608   0.455  0.4779  0.7929 -2.4426
 1501TIP3    H225995   0.941   3.581   0.367 -1.0257  0.1706 -0.2770
 1502TIP3   OH225996   0.137   6.221   4.707 -0.0480 -0.7150 -0.3655
 1502TIP3    H125997   0.197   6.262   4.769  2.3947 -0.3593 -2.8069
 1502TIP3    H225998   0.053   6.218   4.754  1.0080  1.8815  1.9841
 1503TIP3   OH225999   0.601   0.233   3.422  0.2796 -0.0167 -0.1425
 1503TIP3    H126000   0.593   0.227   3.517 -1.6141 -0.3366 -0.2982
 1503TIP3    H226001   0.657   0.309   3.408 -0.9867  1.2168  1.1950
 1504TIP3   OH226002   0.772   5.205  16.755  0.1032 -0.3093  0.3182
 1504TIP3    H126003   0.797   5.114  16.775 -1.5904 -1.0540 -0.8011
 1504TIP3    H226004   0.813   5.223  16.670 -2.7218 -1.4826 -1.4479
 1505TIP3   OH226005   1.772   0.285  15.583  0.1565 -0.4548 -0.7537
 1505TIP3    H126006   1.781   0.380  15.571  1.6660 -0.5837 -0.8805
 1505TIP3    H226007   1.682   0.272  15.611  0.3858  1.1961  0.9378
 1506TIP3   OH226008   3.948   0.835   1.674  0.1641 -0.1028 -0.6551
 1506TIP3    H126009   4.018   0.789   1.720  2.0020  3.4702  0.4627
 1506TIP3    H226010   3.882   0.852   1.741  0.1664  0.1444 -0.7159
 1507TIP3   OH226011   6.815   4.376  14.957 -0.0158  0.5510  0.9422
 1507TIP3    H126012   6.791   4.463  14.991  1.2574  0.4135  2.2559
 1507TIP3    H226013   6.864   4.335  15.028  1.4160 -0.3571 -0.5014
 1508TIP3   OH226014   2.121   2.052  16.038 -0.3238  0.4575 -0.0082
 1508TIP3    H126015   2.103   2.060  15.945  1.3614  0.0593 -0.4015
 1508TIP3    H226016   2.077   2.127  16.078 -0.3994  1.0829 -1.2335
 1509TIP3   OH226017   0.050   5.199   0.161  0.2260 -0.2439 -0.0020
 1509TIP3    H126018   0.113   5.139   0.121  0.0894  0.0532 -0.6763
 1509TIP3    H226019  -0.006   5.226   0.089  0.1502  0.5233  0.3375
 1510TIP3   OH226020   2.690   3.211   4.113 -0.0528  0.7125 -0.1304
 1510TIP3    H126021   2.746   3.288   4.128 -1.1157  1.5997 -0.5775
 1510TIP3    H226022   2.715   3.181   4.025  1.8202 -0.7567  0.8215
 1511TIP3   OH226023   5.552   1.353   5.631  0.4434 -0.1651  0.1953
 1511TIP3    H126024   5.637   1.353   5.674  1.3657  0.1607 -1.5380
 1511TIP3    H226025   5.549   1.270   5.583 -0.1430 -0.0973  0.1041
 1512TIP3   OH226026   1.563   6.155   4.522  0.1405 -0.4657 -0.5565
 1512TIP3    H126027   1.498   6.088   4.543  0.4444 -0.5089  0.2945
 1512TIP3    H226028   1.626   6.151   4.594  0.8021 -0.0648 -1.0981
 1513TIP3   OH226029   4.144   6.250   3.109 -0.4454 -0.2522  0.3017
 1513TIP3    H126030   4.112   6.164   3.082  0.5161 -0.4223 -0.3493
 1513TIP3    H226031   4.161   6.241   3.203  0.6844 -1.1163  0.0258
 1514TIP3   OH226032   2.631   3.305  17.067  0.7209 -0.6931  0.1208
 1514TIP3    H126033   2.705   3.362  17.045  1.0722 -1.2328 -0.1079
 1514TIP3    H226034   2.670   3.219  17.079  0.3062 -0.7398  1.2445
 1515TIP3   OH226035   3.229   3.277  15.715 -0.2538 -0.0002 -0.1141
 1515TIP3    H126036   3.212   3.325  15.796  0.6881  1.1957 -0.6010
 1515TIP3    H226037   3.320   3.248  15.724 -0.2928 -0.2605 -0.5487
 1516TIP3   OH226038   5.312   4.158   4.075 -0.7557  0.0027 -0.4029
 1516TIP3    H126039   5.243   4.092   4.083 -1.3804  0.6094 -0.6649
 1516TIP3    H226040   5.265   4.241   4.066  0.0149  0.4931 -0.0565
 1517TIP3   OH226041   4.686   2.711  14.271  0.0829 -0.5962  0.0830
 1517TIP3    H126042   4.736   2.716  14.189  0.9018 -0.7478  0.5707
 1517TIP3    H226043   4.623   2.641  14.256  0.4678 -0.8663 -0.2934
 1518TIP3   OH226044   5.753   0.425   1.051  0.0135  0.2862  0.3515
 1518TIP3    H126045   5.715   0.363   1.114 -0.0004 -0.3770 -0.2995
 1518TIP3    H226046   5.836   0.385   1.026  0.2939  0.8401  0.3919
 1519TIP3   OH226047   0.301   1.313  14.295 -0.2102 -0.2240 -0.3949
 1519TIP3    H126048   0.215   1.281  14.270  0.5080 -1.7779 -0.9828
 1519TIP3    H226049   0.346   1.237  14.332 -0.4550  1.4056  3.8555
 1520TIP3   OH226050   5.055   5.616   2.210 -0.8076 -0.2248 -0.1408
 1520TIP3    H126051   5.078   5.535   2.163  0.7899  0.8097 -1.2350
 1520TIP3    H226052   5.058   5.591   2.302  0.9293 -1.1368 -0.3949
 1521TIP3   OH226053   0.657   1.091   4.546  0.1011 -0.4577 -0.0205
 1521TIP3    H126054   0.683   1.036   4.620  0.4789 -0.2359  0.0183
 1521TIP3    H226055   0.621   1.170   4.587  1.1539  0.0569 -0.0593
 1522TIP3   OH226056   4.234   5.595   1.963  0.3460 -0.3134  0.0462
 1522TIP3    H126057   4.318   5.587   2.007  1.1091 -2.0914 -1.5647
 1522TIP3    H226058   4.193   5.509   1.973 -0.1543 -0.2618 -1.2588
 1523TIP3   OH226059   0.832   5.496  15.225 -0.8932 -0.1485 -0.0453
 1523TIP3    H126060   0.749   5.450  15.239 -0.0951 -1.1349  1.7133
 1523TIP3    H226061   0.878   5.445  15.160 -0.4226 -1.3699  1.1934
 1524TIP3   OH226062   0.354   1.846   2.813 -0.4610 -0.2903  0.5323
 1524TIP3    H126063   0.450   1.842   2.808 -0.4649  0.0999  0.0083
 1524TIP3    H226064   0.336   1.888   2.897 -0.1427  0.5392  0.1986
 1525TIP3   OH226065   6.582   4.419  14.285 -0.0927  0.2145 -0.3157
 1525TIP3    H126066   6.640   4.450  14.354  0.0823  0.0909 -0.4041
 1525TIP3    H226067   6.622   4.336  14.256 -1.0234 -0.5489  0.5104
 1526TIP3   OH226068   3.772   5.235  14.676  0.7379 -0.2244 -0.6651
 1526TIP3    H126069   3.714   5.262  14.604  0.1120 -0.9147 -0.4393
 1526TIP3    H226070   3.829   5.168  14.637 -0.6106 -1.7214 -0.1895
 1527TIP3   OH226071   1.112   3.701  10.931  0.0062  0.1680 -0.5797
 1527TIP3    H126072   1.018   3.709  10.919  0.0493  3.7980  0.3045
 1527TIP3    H226073   1.150   3.755  10.861  1.2930  0.3286  0.2051
 1528TIP3   OH226074   3.700   2.471  12.969  0.0041  0.1968  0.5311
 1528TIP3    H126075   3.751   2.538  12.924  0.9549 -1.4861 -1.0426
 1528TIP3    H226076   3.711   2.490  13.062  0.0400  2.3321  0.1267
 1529TIP3   OH226077   0.766   6.770   1.410  0.0561 -0.1028 -0.4489
 1529TIP3    H126078   0.748   6.773   1.504 -1.3755  0.8125 -0.7240
 1529TIP3    H226079   0.757   6.677   1.387  0.7064 -0.3753  0.3581
 1530TIP3   OH226080   1.997   6.777  13.058  0.1768  0.2513 -0.0296
 1530TIP3    H126081   2.030   6.867  13.052  0.7788 -0.0011 -0.5960
 1530TIP3    H226082   1.915   6.785  13.107  1.2092  0.8631  1.7097
 1531TIP3   OH226083   4.917   1.270  13.981  0.3141  0.2843  0.3487
 1531TIP3    H126084   4.914   1.297  13.889 -1.4205 -0.0793  0.2704
 1531TIP3    H226085   5.006   1.237  13.993  0.3917 -0.2220 -1.3535
 1532TIP3   OH226086   0.315   1.445  12.457 -0.4041 -0.1471 -0.8285
 1532TIP3    H126087   0.357   1.522  12.420  0.1554  0.9573  1.8921
 1532TIP3    H226088   0.221   1.459  12.442 -0.2486  0.6770 -1.0779
 1533TIP3   OH226089   0.910   5.351   5.185 -0.1848 -0.5865  0.4306
 1533TIP3    H126090   0.829   5.307   5.159  0.0322  0.5306 -2.4918
 1533TIP3    H226091   0.970   5.337   5.112  1.3625  0.7984  1.3682
 1534TIP3   OH226092   0.777   1.635   5.447  0.3081 -0.0625  0.5803
 1534TIP3    H126093   0.849   1.656   5.506  1.0187 -0.4745 -0.1181
 1534TIP3    H226094   0.757   1.717   5.403 -0.9590  0.5191  2.1297
 1535TIP3   OH226095   0.281   2.230  15.159  0.0291 -0.3070  0.0239
 1535TIP3    H126096   0.233   2.147  15.162 -1.1040  0.3601  2.3140
 1535TIP3    H226097   0.220   2.293  15.123 -0.0756  0.0659  0.8189
 1536TIP3   OH226098   3.792   1.362  11.370 -0.1111  1.0958 -0.4398
 1536TIP3    H126099   3.775   1.362  11.465  0.0332  1.7170 -0.4085
 1536TIP3    H226100   3.851   1.288  11.356  1.2167  1.9820  0.2127
 1537TIP3   OH226101   3.483   2.741  12.042  0.2524 -0.3037 -0.2147
 1537TIP3    H126102   3.542   2.797  11.991 -0.5501  1.3789  0.6193
 1537TIP3    H226103   3.395   2.771  12.017 -0.2067 -1.4438  0.0037
 1538TIP3   OH226104   0.532   4.348   3.522 -0.4088  0.6235 -0.5462
 1538TIP3    H126105   0.516   4.407   3.595 -2.0270  0.3531 -0.6435
 1538TIP3    H226106   0.613   4.380   3.482 -0.2386  1.6013  0.5301
 1539TIP3   OH226107   1.641   5.447  13.999  0.5456 -0.1998 -0.1254
 1539TIP3    H126108   1.550   5.427  14.018  0.2032  0.3952 -1.0417
 1539TIP3    H226109   1.650   5.430  13.905  1.0427  0.8913 -0.3016
 1540TIP3   OH226110   4.099   5.602  14.205  0.6219  0.2913 -0.1448
 1540TIP3    H126111   4.086   5.672  14.269 -2.0601 -0.2345  0.0018
 1540TIP3    H226112   4.139   5.531  14.255 -0.2868  0.3444  0.6951
 1541TIP3   OH226113   5.524   2.648  16.293 -0.5349 -0.6044 -0.0778
 1541TIP3    H126114   5.461   2.586  16.254  0.8175 -2.0403 -0.0697
 1541TIP3    H226115   5.510   2.639  16.387  0.0206 -1.3403 -0.0510
 1542TIP3   OH226116   3.598   1.319  14.544  0.0034  0.5761  0.5348
 1542TIP3    H126117   3.585   1.379  14.471 -1.6984 -0.0458  0.2924
 1542TIP3    H226118   3.603   1.375  14.621  2.2143  1.2697 -0.0494
 1543TIP3   OH226119   5.604   5.192  12.860  0.8030  0.0283  0.1539
 1543TIP3    H126120   5.601   5.098  12.848  0.4863 -0.2435  2.0138
 1543TIP3    H226121   5.565   5.207  12.946 -0.0900  1.9535 -0.5095
 1544TIP3   OH226122   3.926   0.866  16.085  0.1616 -0.4521  0.0950
 1544TIP3    H126123   3.888   0.892  16.169 -0.6907  1.2060 -0.7301
 1544TIP3    H226124   3.969   0.782  16.102 -1.2543 -0.8862  1.8182
 1545TIP3   OH226125   5.656   1.577   4.641  0.0028 -0.7384 -0.2398
 1545TIP3    H126126   5.642   1.505   4.580  1.0713  0.1130 -1.5208
 1545TIP3    H226127   5.568   1.613   4.655 -0.1026 -0.0772 -2.3785
 1546TIP3   OH226128   6.715   5.997   3.975 -0.3803  0.1448 -0.0857
 1546TIP3    H126129   6.696   5.970   4.065 -0.4200 -0.2479 -0.2070
 1546TIP3    H226130   6.808   6.018   3.976 -0.5174  0.7477  0.1918
 1547TIP3   OH226131   4.954   6.014  16.320  0.5145  1.1881 -0.3035
 1547TIP3    H126132   5.026   6.051  16.372 -0.5314  1.8644  0.7292
 1547TIP3    H226133   4.888   5.990  16.385  0.3898 -0.8077 -1.1114
 1548TIP3   OH226134   5.865   1.744  11.774  0.3957 -0.5389 -0.2929
 1548TIP3    H126135   5.905   1.786  11.698 -1.7729  0.2892 -1.0377
 1548TIP3    H226136   5.829   1.662  11.740  0.7230 -0.8904  0.1926
 1549TIP3   OH226137   2.903   6.224  11.762  0.1702 -0.7640 -0.4510
 1549TIP3    H126138   2.978   6.164  11.759 -1.2386 -2.7792  1.1487
 1549TIP3    H226139   2.890   6.241  11.855 -1.9053 -1.2917 -0.5913
 1550TIP3   OH226140   1.916   6.425  16.255  0.2214  0.0984 -0.0458
 1550TIP3    H126141   2.007   6.414  16.228  0.1665  0.3610 -0.3475
 1550TIP3    H226142   1.911   6.514  16.288  0.5403 -0.5541  1.8893
 1551TIP3   OH226143   5.791   3.924   5.149  0.3953  0.2600 -0.1125
 1551TIP3    H126144   5.798   3.985   5.223  0.4795  0.3441 -0.1886
 1551TIP3    H226145   5.881   3.916   5.116  0.6187 -0.9562  0.7229
 1552TIP3   OH226146   3.477   4.942   0.201 -0.3520 -0.3458 -0.3880
 1552TIP3    H126147   3.550   4.972   0.255 -0.2660 -0.7819 -0.2539
 1552TIP3    H226148   3.399   4.975   0.246 -0.3499 -1.7234  0.6975
 1553TIP3   OH226149   4.425   1.632  13.632 -0.0530  0.2191 -0.3105
 1553TIP3    H126150   4.504   1.687  13.629  0.4079 -0.4161  0.0539
 1553TIP3    H226151   4.365   1.680  13.690  1.3178 -0.8729  2.1860
 1554TIP3   OH226152   6.152   5.554  14.959 -0.4996  0.2947  0.1628
 1554TIP3    H126153   6.161   5.502  15.039  2.5009  0.4915  0.0591
 1554TIP3    H226154   6.231   5.608  14.956 -0.2267 -0.0568 -3.1628
 1555TIP3   OH226155   4.148   4.074  11.164 -0.3795  0.1561 -0.2636
 1555TIP3    H126156   4.200   4.070  11.083 -0.4853  2.0718 -0.4846
 1555TIP3    H226157   4.190   4.011  11.223 -0.1144 -1.0634 -1.6907
 1556TIP3   OH226158   5.604   6.402   2.760  0.2844 -0.0947  0.0545
 1556TIP3    H126159   5.679   6.347   2.737  2.0179  1.0971  2.4765
 1556TIP3    H226160   5.563   6.356   2.833 -0.5347 -0.0161 -0.3440
 1557TIP3   OH226161   6.764   4.110   6.019  0.3112  0.9379  0.1339
 1557TIP3    H126162   6.786   4.037   5.960 -1.8355 -0.3461  0.7863
 1557TIP3    H226163   6.815   4.184   5.987  3.1110 -0.9710 -0.1820
 1558TIP3   OH226164   3.763   6.677  14.267  0.8252  0.4811  0.1077
 1558TIP3    H126165   3.761   6.765  14.303 -1.4305 -0.2581  2.0525
 1558TIP3    H226166   3.691   6.674  14.205  0.4738 -0.1623  0.5347
 1559TIP3   OH226167   2.649   3.999   2.799  0.2934  0.2848  0.7420
 1559TIP3    H126168   2.643   3.907   2.824 -1.4837  0.2944  0.5153
 1559TIP3    H226169   2.732   4.029   2.837  0.6890 -1.2798  1.2023
 1560TIP3   OH226170   3.844   0.904  14.759 -0.0352 -0.0039 -0.3086
 1560TIP3    H126171   3.835   0.830  14.699  1.1735  1.6013 -2.6184
 1560TIP3    H226172   3.932   0.937  14.744 -0.1748  1.3179  1.4163
 1561TIP3   OH226173   4.774   0.221   5.467  0.1818  0.5861  0.0649
 1561TIP3    H126174   4.857   0.262   5.492 -0.1982  1.7552 -0.5208
 1561TIP3    H226175   4.765   0.147   5.527  2.9181 -1.2116 -1.4942
 1562TIP3   OH226176   5.578   6.108  12.406  0.5569 -0.4694 -0.3061
 1562TIP3    H126177   5.556   6.093  12.314  0.1625 -0.3692 -0.2262
 1562TIP3    H226178   5.499   6.084  12.454  0.4004  0.4869 -0.0687
 1563TIP3   OH226179   0.423   3.468   3.798 -0.1252  0.0865  0.3392
 1563TIP3    H126180   0.491   3.461   3.865  0.0473 -0.0578  0.1512
 1563TIP3    H226181   0.392   3.378   3.786  0.4038 -0.0103 -0.3457
 1564TIP3   OH226182   3.456   4.015  15.857 -0.3273  0.1936  0.3226
 1564TIP3    H126183   3.525   3.950  15.867  1.6228  2.2397  0.9372
 1564TIP3    H226184   3.481   4.066  15.780 -0.4328  1.7492  1.2742
 1565TIP3   OH226185   2.381   4.397  15.138  0.2033 -0.1320  0.0963
 1565TIP3    H126186   2.407   4.429  15.224  1.1449 -2.5369  0.7906
 1565TIP3    H226187   2.293   4.361  15.151  0.1211  0.0020 -0.0878
 1566TIP3   OH226188   3.317   0.565  16.439  0.0654 -0.2951  0.2961
 1566TIP3    H126189   3.298   0.490  16.494 -1.7024  0.8110  1.2828
 1566TIP3    H226190   3.350   0.632  16.499 -1.1712  0.6764 -0.0552
 1567TIP3   OH226191   2.840   0.381   3.386  0.3649 -0.9014 -0.5249
 1567TIP3    H126192   2.798   0.462   3.414 -0.3734 -1.2417 -0.5980
 1567TIP3    H226193   2.927   0.407   3.357  0.8673 -0.4148  1.2959
 1568TIP3   OH226194   4.608   2.371   3.349 -0.4467 -0.5721 -0.5961
 1568TIP3    H126195   4.522   2.414   3.349  0.2062  0.7997 -1.5425
 1568TIP3    H226196   4.626   2.355   3.442 -0.5940  1.5638 -0.1375
 1569TIP3   OH226197   1.433   2.094  15.127 -0.5658 -0.2036  0.7097
 1569TIP3    H126198   1.509   2.108  15.183  0.0314  0.9033 -0.3265
 1569TIP3    H226199   1.362   2.142  15.169 -0.5198 -0.6250  1.2837
 1570TIP3   OH226200   0.764   5.449  11.775 -0.2484  0.2038 -0.8812
 1570TIP3    H126201   0.830   5.387  11.745 -0.3495 -0.1858 -0.3129
 1570TIP3    H226202   0.734   5.413  11.859  0.4553  1.5535 -0.0036
 1571TIP3   OH226203   2.152   2.676   1.036 -0.0300 -0.3686 -0.0193
 1571TIP3    H126204   2.140   2.634   1.121 -0.2177 -1.0057 -0.3551
 1571TIP3    H226205   2.085   2.636   0.980  1.1774 -1.1975 -0.9243
 1572TIP3   OH226206   0.040   3.287  15.109  0.0031  0.3597  0.2939
 1572TIP3    H126207   0.029   3.227  15.034  1.5304  2.0575 -1.4099
 1572TIP3    H226208  -0.049   3.300  15.142 -0.5319 -1.7359 -0.1450
 1573TIP3   OH226209   5.728   6.409  16.095 -0.4670  0.1207 -0.2972
 1573TIP3    H126210   5.805   6.371  16.051 -0.3866 -1.4309  1.1050
 1573TIP3    H226211   5.655   6.388  16.036 -0.2268 -1.0746 -0.2030
 1574TIP3   OH226212   2.567   4.476   3.916  0.0284  0.7332 -0.1348
 1574TIP3    H126213   2.573   4.571   3.926 -1.0359  0.9516 -1.3762
 1574TIP3    H226214   2.481   4.461   3.877 -0.4201 -0.8712  1.3370
 1575TIP3   OH226215   5.955   3.112   1.657 -0.2591  0.2093 -0.7485
 1575TIP3    H126216   5.942   3.049   1.728  2.3906  0.5130  0.1197
 1575TIP3    H226217   5.955   3.059   1.577  2.0378 -0.9968 -0.0328
 1576TIP3   OH226218   1.567   5.088   3.307 -0.1354 -0.1308 -0.7136
 1576TIP3    H126219   1.514   5.142   3.248 -1.8042 -1.3634 -0.4016
 1576TIP3    H226220   1.631   5.046   3.249 -1.6951 -1.2646 -1.7043
 1577TIP3   OH226221   0.602   4.261  16.460 -0.5572  0.1163 -0.1966
 1577TIP3    H126222   0.690   4.279  16.493 -0.3836  0.8464 -1.0235
 1577TIP3    H226223   0.591   4.167  16.472 -0.1187  0.2065  0.9924
 1578TIP3   OH226224   0.104   4.425   4.270  0.3189 -0.0449  0.4822
 1578TIP3    H126225   0.075   4.426   4.362 -0.2772  1.8116  0.3203
 1578TIP3    H226226   0.159   4.347   4.263 -0.3582 -0.7235  2.1836
 1579TIP3   OH226227   4.405   0.543   2.461 -0.3628 -0.1463  0.1857
 1579TIP3    H126228   4.421   0.605   2.533 -0.0860 -0.0871  0.0745
 1579TIP3    H226229   4.331   0.491   2.491 -0.8181  0.4567  0.1424
 1580TIP3   OH226230   6.347   4.564  12.013 -0.2257 -0.4000 -0.0676
 1580TIP3    H126231   6.320   4.594  12.100 -0.6526 -1.4190  0.1625
 1580TIP3    H226232   6.277   4.593  11.955 -0.0033  0.1679 -0.0627
 1581TIP3   OH226233   2.622   5.470   4.314 -0.1435 -0.5025  0.2751
 1581TIP3    H126234   2.625   5.381   4.350  0.1130 -0.7316 -0.3107
 1581TIP3    H226235   2.544   5.509   4.353 -0.1752 -0.9345  0.6515
 1582TIP3   OH226236   4.489   0.014  14.000  0.3996 -0.1074 -0.3243
 1582TIP3    H126237   4.419  -0.036  13.960  1.3777  1.1031 -3.9640
 1582TIP3    H226238   4.444   0.085  14.046 -0.8042 -0.5677 -0.7438
 1583TIP3   OH226239   6.412   6.666   3.565 -0.2315  0.4958  0.2805
 1583TIP3    H126240   6.478   6.603   3.536 -0.6121 -0.5006  1.4903
 1583TIP3    H226241   6.375   6.626   3.644  0.6250  2.9527  2.0414
 1584TIP3   OH226242   0.399   2.600  16.774 -0.7706 -0.4082  0.6264
 1584TIP3    H126243   0.388   2.517  16.727 -1.2686 -1.7437  2.9175
 1584TIP3    H226244   0.493   2.605  16.790 -0.6887 -0.3097  0.1438
 1585TIP3   OH226245   3.283   5.469  13.069  0.3701  0.8306  0.1336
 1585TIP3    H126246   3.288   5.561  13.096 -2.3018  2.0004 -2.7098
 1585TIP3    H226247   3.229   5.428  13.136 -1.7121  2.3686 -0.4908
 1586TIP3   OH226248   5.312   1.468  15.344 -0.1493 -0.6062 -0.1242
 1586TIP3    H126249   5.293   1.379  15.372 -0.8826 -0.2975  0.4014
 1586TIP3    H226250   5.391   1.493  15.393 -0.4152 -0.6831  0.3460
 1587TIP3   OH226251   5.701   2.637  11.780  0.0015  0.0385  0.1387
 1587TIP3    H126252   5.717   2.642  11.686 -0.3380 -1.4061 -0.0161
 1587TIP3    H226253   5.773   2.688  11.818  1.2405 -0.9036 -0.8330
 1588TIP3   OH226254   0.670   4.395  12.426  0.5165  0.3454 -0.4347
 1588TIP3    H126255   0.599   4.367  12.484  0.8684 -1.5308 -0.8190
 1588TIP3    H226256   0.676   4.489  12.438 -2.4958  0.6787 -0.9249
 1589TIP3   OH226257   5.587   1.964  10.845 -0.0783 -0.1372  0.4456
 1589TIP3    H126258   5.640   1.927  10.774 -1.1271 -1.4102  0.2963
 1589TIP3    H226259   5.580   1.895  10.910  0.3312  0.8027  1.5174
 1590TIP3   OH226260   2.558   2.134   3.157 -0.4535 -0.0413  0.1733
 1590TIP3    H126261   2.606   2.054   3.137  0.7477  1.1460 -2.2613
 1590TIP3    H226262   2.620   2.188   3.206 -0.4468  0.2228 -0.1167
 1591TIP3   OH226263   5.618   6.583   3.659  0.0757 -0.3937 -0.1379
 1591TIP3    H126264   5.652   6.581   3.748  0.3083 -0.7453 -0.2291
 1591TIP3    H226265   5.591   6.493   3.641 -1.2906 -0.0454  0.0629
 1592TIP3   OH226266   3.338   6.348  14.880 -0.0607  0.4039 -0.6600
 1592TIP3    H126267   3.411   6.409  14.870  0.0518  0.2977 -0.5093
 1592TIP3    H226268   3.347   6.287  14.807  0.2859  0.1059 -0.3752
 1593TIP3   OH226269   4.599   3.971  15.731 -0.3476 -0.1793  0.3281
 1593TIP3    H126270   4.665   3.916  15.773 -0.9213 -0.8182  0.3995
 1593TIP3    H226271   4.516   3.945  15.771 -0.9102 -0.7827 -1.1684
 1594TIP3   OH226272   6.444   5.561  15.228  1.3964  0.1379 -0.3946
 1594TIP3    H126273   6.424   5.559  15.321 -2.7903  1.6349 -1.0891
 1594TIP3    H226274   6.458   5.469  15.205  1.4358 -0.3686  1.4878
 1595TIP3   OH226275   0.800   3.961  16.749 -0.0768 -0.4068  0.1735
 1595TIP3    H126276   0.883   4.006  16.765 -0.3923  0.5896 -0.8911
 1595TIP3    H226277   0.785   3.910  16.829 -0.0258  1.9014  1.7365
 1596TIP3   OH226278   2.837   6.602  14.880 -0.3027  0.5038  0.1075
 1596TIP3    H126279   2.912   6.575  14.932 -1.0932 -1.5063  0.2870
 1596TIP3    H226280   2.761   6.585  14.936 -0.9293  2.8217  0.0696
 1597TIP3   OH226281   5.967   1.471   4.465 -0.1256 -0.2444  0.2862
 1597TIP3    H126282   5.949   1.555   4.425 -1.6545 -0.7429 -0.1376
 1597TIP3    H226283   5.903   1.411   4.426  0.9159 -1.6101  0.5707
 1598TIP3   OH226284   2.842   4.768  16.840  0.0097 -0.2032  0.0722
 1598TIP3    H126285   2.804   4.687  16.873  0.9022 -1.3511 -1.5493
 1598TIP3    H226286   2.935   4.761  16.863  0.5447 -0.7746 -2.0272
 1599TIP3   OH226287   6.077   4.660   5.225  0.3459  0.0668 -0.5327
 1599TIP3    H126288   6.135   4.635   5.153 -0.7559 -0.5732 -1.2298
 1599TIP3    H226289   6.081   4.586   5.285  0.6849  0.2727 -0.2991
 1600TIP3   OH226290   3.343   4.984  16.705 -0.3937 -0.1454 -0.7996
 1600TIP3    H126291   3.315   5.056  16.649  1.4571  1.1016 -0.2406
 1600TIP3    H226292   3.263   4.951  16.745 -1.1863  2.4596 -0.1015
 1601TIP3   OH226293   1.999   2.175   1.674  0.2262  0.2224  0.1726
 1601TIP3    H126294   1.963   2.102   1.724 -0.8516 -0.4770 -1.5258
 1601TIP3    H226295   2.084   2.143   1.644 -0.0497 -0.1777 -0.1983
 1602TIP3   OH226296   4.151   0.187  13.928  0.2440  0.1463 -0.0036
 1602TIP3    H126297   4.144   0.093  13.945  1.1648  0.5411  3.1810
 1602TIP3    H226298   4.062   0.219  13.938  0.0393 -0.2926 -0.3859
 1603TIP3   OH226299   1.330   1.806   0.681 -0.6408  0.3384  0.0759
 1603TIP3    H126300   1.288   1.864   0.618  3.7174  2.7528 -1.0459
 1603TIP3    H226301   1.352   1.728   0.631  0.7806  1.2987 -0.8721
 1604TIP3   OH226302   2.066   6.628   2.601  0.2662  0.1149 -0.1584
 1604TIP3    H126303   1.976   6.596   2.598  0.3081 -0.0098 -0.1265
 1604TIP3    H226304   2.071   6.692   2.531 -0.3342  1.4431  0.9707
 1605TIP3   OH226305   4.941   6.357   5.379  0.1142 -0.2384 -0.1734
 1605TIP3    H126306   4.913   6.277   5.424  0.0044 -0.4019 -0.5283
 1605TIP3    H226307   4.862   6.390   5.337  0.2412 -0.1543 -0.3476
 1606TIP3   OH226308   1.908   1.849  11.918  0.0407  0.0519 -0.2573
 1606TIP3    H126309   1.982   1.795  11.894 -0.7263 -0.8544 -0.6448
 1606TIP3    H226310   1.940   1.903  11.991  0.4224 -1.9373  1.1268
 1607TIP3   OH226311   6.044   4.840   5.636  0.0065 -0.4275  0.5460
 1607TIP3    H126312   6.036   4.874   5.547  2.1766  0.1561  0.5181
 1607TIP3    H226313   6.075   4.915   5.687 -2.2994 -0.4255  2.0874
 1608TIP3   OH226314   2.638   0.687  12.075  0.3912  0.4255 -0.5646
 1608TIP3    H126315   2.697   0.658  12.145  0.0749  1.2212  0.0475
 1608TIP3    H226316   2.659   0.630  12.001  0.8465 -0.3242  0.1247
 1609TIP3   OH226317   3.403   6.251  13.157  0.0861  0.3490  0.4865
 1609TIP3    H126318   3.395   6.248  13.061  2.1514  0.3017  0.2685
 1609TIP3    H226319   3.420   6.343  13.176 -1.0201  0.4838  0.9133
 1610TIP3   OH226320   2.611   0.592   3.032 -0.4208  0.0042  0.0763
 1610TIP3    H126321   2.661   0.611   3.111 -0.3762 -0.4474  0.1619
 1610TIP3    H226322   2.547   0.526   3.059  1.0141 -1.8401 -0.7218
 1611TIP3   OH226323   1.337   6.712  13.100 -0.2012 -0.2860  0.3319
 1611TIP3    H126324   1.307   6.694  13.189 -0.7310  0.4408  0.3085
 1611TIP3    H226325   1.261   6.693  13.044 -0.9067  2.1926  0.3338
 1612TIP3   OH226326   1.387   2.839  14.660  0.1924 -0.3397  0.2690
 1612TIP3    H126327   1.297   2.808  14.665 -0.9456  2.7608  1.7845
 1612TIP3    H226328   1.401   2.859  14.568 -2.1213  2.6413  0.4234
 1613TIP3   OH226329   6.597   5.595   3.288 -0.5731 -0.2949  0.1437
 1613TIP3    H126330   6.574   5.626   3.200  0.6648 -0.5592 -0.2856
 1613TIP3    H226331   6.626   5.505   3.275 -1.1911 -0.6216  0.9546
 1614TIP3   OH226332   2.404   2.072   3.991 -0.4363 -0.6330  0.8473
 1614TIP3    H126333   2.459   2.004   3.951 -0.1240 -1.0557  1.9630
 1614TIP3    H226334   2.323   2.068   3.940  1.4140  1.9686 -2.7669
 1615TIP3   OH226335   3.339   2.839  14.194  0.1886  0.0549 -0.3683
 1615TIP3    H126336   3.307   2.899  14.126  0.7379 -0.2387 -0.8935
 1615TIP3    H226337   3.259   2.805  14.235 -0.1855 -0.3870 -1.4199
 1616TIP3   OH226338   5.798   3.997   1.509  0.0732 -0.4043 -0.3344
 1616TIP3    H126339   5.757   3.915   1.482 -4.0044  0.5619  2.0562
 1616TIP3    H226340   5.756   4.064   1.456 -2.7540  0.7513  2.9979
 1617TIP3   OH226341   0.610   2.887  12.270 -0.2099  0.0542  0.3061
 1617TIP3    H126342   0.682   2.936  12.310  0.7705  2.5841 -3.9108
 1617TIP3    H226343   0.653   2.817  12.221 -0.6987  0.5994 -0.9474
 1618TIP3   OH226344   4.761   1.863  16.171  0.1854 -0.0543  0.4844
 1618TIP3    H126345   4.699   1.854  16.243 -0.7366 -1.4340 -0.4371
 1618TIP3    H226346   4.713   1.910  16.102  0.1292 -1.1319 -0.2363
 1619TIP3   OH226347   6.357   5.373   3.148 -0.1106  0.1434 -0.0346
 1619TIP3    H126348   6.452   5.382   3.139 -0.3750  1.8584 -1.7433
 1619TIP3    H226349   6.330   5.333   3.065 -0.8690 -0.6911  0.5996
 1620TIP3   OH226350   6.096   5.544   5.678 -0.5849 -0.1556  0.6569
 1620TIP3    H126351   6.075   5.459   5.717 -0.6726 -0.6030 -0.3306
 1620TIP3    H226352   6.180   5.529   5.634 -0.6515  0.2411  0.3934
 1621TIP3   OH226353   6.306   6.132   5.411 -0.3495 -0.9332  0.5762
 1621TIP3    H126354   6.337   6.152   5.500  0.4591 -1.3495  0.3969
 1621TIP3    H226355   6.385   6.110   5.363 -0.9968 -3.0620  0.3717
 1622TIP3   OH226356   5.014   0.439   2.480 -0.0667 -0.2737 -0.1432
 1622TIP3    H126357   5.013   0.532   2.459 -1.4041 -0.8793 -3.5000
 1622TIP3    H226358   4.948   0.429   2.549  1.1740  1.3841  1.3596
 1623TIP3   OH226359   4.236   5.948  15.475 -0.2981  0.1642  0.5786
 1623TIP3    H126360   4.295   5.906  15.537 -1.5018 -0.2821  1.4663
 1623TIP3    H226361   4.184   5.876  15.438  0.3089  0.4401 -0.8691
 1624TIP3   OH226362   4.008   3.635  14.829 -0.1451  0.7287 -0.0477
 1624TIP3    H126363   4.035   3.688  14.905  1.7359  0.3962 -0.4557
 1624TIP3    H226364   4.082   3.577  14.812 -0.8428  0.2699 -1.6866
 1625TIP3   OH226365   3.193   6.205   5.609  0.1473  0.3386  0.0960
 1625TIP3    H126366   3.185   6.300   5.595 -2.4007  0.1671 -0.1276
 1625TIP3    H226367   3.117   6.182   5.662  0.3294 -1.6881 -0.4330
 1626TIP3   OH226368   1.900   2.597   2.938  0.3516  0.4413 -0.4734
 1626TIP3    H126369   1.913   2.645   2.856 -1.4319  1.6604 -0.0927
 1626TIP3    H226370   1.870   2.510   2.910 -0.9641  1.0786 -1.1367
 1627TIP3   OH226371   4.083   1.934  16.008 -0.1412  0.6750 -0.0194
 1627TIP3    H126372   4.093   1.886  15.926  0.8126  1.3575 -0.3219
 1627TIP3    H226373   3.990   1.953  16.013 -0.1761  0.8478 -1.0785
 1628TIP3   OH226374   5.218   1.420  14.430 -0.4849 -0.5729  0.0500
 1628TIP3    H126375   5.248   1.504  14.397  0.9044 -0.6249  1.0832
 1628TIP3    H226376   5.247   1.356  14.365  0.8545 -0.5128  0.5585
 1629TIP3   OH226377   0.544   1.533  13.096  0.2898 -0.3523 -0.1795
 1629TIP3    H126378   0.581   1.594  13.160 -0.5904  1.3391 -1.1977
 1629TIP3    H226379   0.482   1.480  13.147  1.7873 -1.1103  0.9164
 1630TIP3   OH226380   5.577   6.062   6.090  0.6684  0.4210  0.0851
 1630TIP3    H126381   5.570   6.155   6.112  1.0738  0.3503  0.5163
 1630TIP3    H226382   5.488   6.030   6.094  0.6641  0.5409  1.0361
 1631TIP3   OH226383   3.024   6.044   3.658  0.3420  0.0282 -0.1802
 1631TIP3    H126384   3.061   6.078   3.739  0.2114  1.9237 -0.8712
 1631TIP3    H226385   3.100   6.029   3.602  0.3403  0.0237 -0.1813
 1632TIP3   OH226386   6.053   3.719   5.868  0.3669 -0.1605 -0.1556
 1632TIP3    H126387   5.972   3.734   5.916  1.5135  2.3320  1.1827
 1632TIP3    H226388   6.050   3.779   5.794  0.8816 -0.2544 -0.2586
 1633TIP3   OH226389   0.006   0.951  14.558 -0.1845  0.4424 -0.5749
 1633TIP3    H126390   0.030   0.936  14.649  0.6496 -0.6448 -0.9588
 1633TIP3    H226391   0.022   0.867  14.514 -1.6262  0.6152 -1.5061
 1634TIP3   OH226392   3.644   6.193  14.521 -0.1877  0.3366  0.2784
 1634TIP3    H126393   3.683   6.278  14.543 -0.0642  0.3721 -0.0673
 1634TIP3    H226394   3.644   6.191  14.425  0.8399 -0.5154  0.2808
 1635TIP3   OH226395   2.215   5.583   2.377  0.1057 -0.0570  0.2959
 1635TIP3    H126396   2.136   5.637   2.383 -0.0173 -0.1847 -0.1062
 1635TIP3    H226397   2.240   5.588   2.284  1.2595  0.9543  0.6254
 1636TIP3   OH226398   3.639   2.140  14.354  0.2612 -0.5549 -0.0893
 1636TIP3    H126399   3.558   2.092  14.367 -0.1198  0.6980  2.8402
 1636TIP3    H226400   3.614   2.215  14.300 -0.1378 -1.1105 -0.6853
 1637TIP3   OH226401   4.535   5.263  13.553  0.2882 -0.1429  0.5594
 1637TIP3    H126402   4.493   5.192  13.601 -0.5016 -0.4731 -0.5536
 1637TIP3    H226403   4.589   5.219  13.487  0.6983  0.2885  0.6027
 1638TIP3   OH226404   3.045   2.772   4.625 -0.1160 -0.5975 -0.5549
 1638TIP3    H126405   3.043   2.682   4.656 -0.5825 -0.7806 -1.0828
 1638TIP3    H226406   2.961   2.809   4.653 -0.4635 -0.7104 -1.3955
 1639TIP3   OH226407   3.917   1.733   2.759  0.0448 -0.3167 -0.4019
 1639TIP3    H126408   3.875   1.794   2.820 -1.4923 -0.9200 -0.8103
 1639TIP3    H226409   3.937   1.787   2.682  1.5309  0.3299  0.3964
 1640TIP3   OH226410   4.910   2.779  11.805  0.2552 -0.5123  0.3399
 1640TIP3    H126411   4.937   2.698  11.761 -0.0027 -0.4628  0.0903
 1640TIP3    H226412   4.988   2.835  11.803 -0.2885  0.2498 -1.7938
 1641TIP3   OH226413   1.856   4.061  13.821 -0.2089  0.5261  0.2526
 1641TIP3    H126414   1.778   4.037  13.771  1.1730 -1.1168 -1.2498
 1641TIP3    H226415   1.860   3.998  13.892  1.0229 -1.0126 -1.1138
 1642TIP3   OH226416   0.117   2.734  16.972  0.2797  0.4418 -0.1084
 1642TIP3    H126417   0.078   2.769  17.052  0.8512 -1.0602  0.8627
 1642TIP3    H226418   0.201   2.778  16.964 -0.2799  1.4685 -0.5620
 1643TIP3   OH226419   6.053   2.786   5.389 -0.2704  0.3890  0.0233
 1643TIP3    H126420   6.111   2.861   5.376 -1.5341  1.6498  1.2561
 1643TIP3    H226421   6.084   2.720   5.326  1.1788  1.7464 -0.7622
 1644TIP3   OH226422   4.748   6.753   5.451  0.3991  0.1144 -0.5462
 1644TIP3    H126423   4.755   6.817   5.380  0.7466 -0.4186 -1.0106
 1644TIP3    H226424   4.838   6.720   5.461  0.7310  1.4742  1.3857
 1645TIP3   OH226425   0.198   4.748   2.784 -0.5248  0.6581 -0.4203
 1645TIP3    H126426   0.154   4.697   2.716  1.9977 -1.5379 -0.6005
 1645TIP3    H226427   0.231   4.826   2.739 -0.4748  0.1409 -1.3014
 1646TIP3   OH226428   1.316   3.159   1.338 -0.0756  0.1929  0.1377
 1646TIP3    H126429   1.300   3.142   1.431  0.9579 -1.0962  0.1081
 1646TIP3    H226430   1.383   3.228   1.337  0.5863 -0.4262  0.3925
 1647TIP3   OH226431   2.196   0.596  12.983 -0.0081 -0.7170 -0.3552
 1647TIP3    H126432   2.181   0.565  12.893 -1.3923 -1.6292  0.1650
 1647TIP3    H226433   2.291   0.586  12.996  0.0355 -1.7261 -1.3030
 1648TIP3   OH226434   6.447   0.011  15.663  0.0606 -0.2714 -0.4688
 1648TIP3    H126435   6.356   0.037  15.679 -0.1240 -1.4308  0.6039
 1648TIP3    H226436   6.499   0.076  15.710 -0.1787  0.5512 -1.3058
 1649TIP3   OH226437   3.034   0.600  11.974 -0.4330 -0.3015  0.1277
 1649TIP3    H126438   3.115   0.615  11.924 -1.4729  0.2357 -1.4698
 1649TIP3    H226439   3.051   0.641  12.059  0.5222  0.9331 -0.6235
 1650TIP3   OH226440   5.060   2.762  16.525  0.0665  0.1521 -0.4609
 1650TIP3    H126441   5.090   2.742  16.436 -1.1626 -0.5190 -0.7311
 1650TIP3    H226442   5.001   2.691  16.548  0.6727  0.1066  1.0667
 1651TIP3   OH226443   6.125   2.861  11.343  0.6341 -0.4611  0.1852
 1651TIP3    H126444   6.181   2.939  11.341  1.4360 -1.0401 -0.3177
 1651TIP3    H226445   6.169   2.801  11.404  0.6945 -1.0111 -0.3940
 1652TIP3   OH226446   5.013   0.961   2.483  0.0416 -0.1913 -0.3752
 1652TIP3    H126447   4.954   1.015   2.535 -0.1634 -1.3514  0.6230
 1652TIP3    H226448   5.100   0.995   2.502  0.0491 -1.1091  1.4007
 1653TIP3   OH226449   6.773   4.542   6.083  0.4271 -0.2993 -0.0787
 1653TIP3    H126450   6.763   4.483   6.158 -0.1146  0.2490  0.2892
 1653TIP3    H226451   6.709   4.510   6.019 -0.5242  0.4310  0.4818
 1654TIP3   OH226452   0.287   5.828   5.649 -0.0136 -0.1601 -0.0391
 1654TIP3    H126453   0.270   5.891   5.720 -1.1289  0.8061 -1.1369
 1654TIP3    H226454   0.220   5.761   5.660  0.8966 -0.9593  0.8545
 1655TIP3   OH226455   6.712   3.361  16.256 -0.3243  0.3194 -0.0740
 1655TIP3    H126456   6.655   3.404  16.319  0.0241  1.5516 -0.5666
 1655TIP3    H226457   6.671   3.276  16.240 -1.7878  1.0076 -0.1017
 1656TIP3   OH226458   3.921   1.622  14.472 -0.5613  0.3130  0.1361
 1656TIP3    H126459   3.931   1.578  14.557  0.4036  1.0570  0.4288
 1656TIP3    H226460   3.980   1.575  14.413 -1.1565 -0.1404 -0.1051
 1657TIP3   OH226461   3.577   6.141  12.000 -0.4497  0.0220 -0.6754
 1657TIP3    H126462   3.569   6.132  11.905 -0.0069  0.2714 -0.7396
 1657TIP3    H226463   3.617   6.227  12.013 -1.8410  0.6168 -0.1984
 1658TIP3   OH226464   3.870   3.712   2.612 -0.8765 -0.3790 -0.4259
 1658TIP3    H126465   3.850   3.759   2.692 -1.8511 -0.4091 -0.6413
 1658TIP3    H226466   3.802   3.740   2.550 -0.1997 -0.4276 -1.2096
 1659TIP3   OH226467   2.762   3.180   3.271  0.7323 -0.1838 -0.0878
 1659TIP3    H126468   2.801   3.162   3.186 -1.8861  1.6139 -1.8177
 1659TIP3    H226469   2.815   3.251   3.308  0.6438  0.5083 -1.2479
 1660TIP3   OH226470   4.998   2.388   0.469 -0.0114 -0.2966  0.0838
 1660TIP3    H126471   4.918   2.356   0.428 -0.8126  1.7548 -0.0427
 1660TIP3    H226472   4.993   2.358   0.560 -0.6169 -0.6707 -0.0711
 1661TIP3   OH226473   4.038   5.762  10.448  0.0890  0.6877 -0.3909
 1661TIP3    H126474   4.113   5.815  10.475 -0.0069  0.6311 -0.0050
 1661TIP3    H226475   4.064   5.672  10.467  0.2942  0.5825 -1.1480
 1662TIP3   OH226476   5.614   1.186   1.950  0.1733 -0.8634  0.3050
 1662TIP3    H126477   5.676   1.166   1.880  0.8335  2.3538 -0.1724
 1662TIP3    H226478   5.652   1.144   2.027  2.0961 -0.3637 -0.2989
 1663TIP3   OH226479   1.893   4.162  13.236  0.0540  0.5662  0.3412
 1663TIP3    H126480   1.855   4.077  13.210 -1.8950  1.1916  0.9525
 1663TIP3    H226481   1.958   4.140  13.302  0.3094 -0.5260 -0.2426
 1664TIP3   OH226482   1.042   2.150  17.145  0.3937  0.1163 -0.6951
 1664TIP3    H126483   0.966   2.122  17.196  0.6431  0.4787 -0.1147
 1664TIP3    H226484   1.046   2.245  17.158  0.3662  0.2373 -1.5268
 1665TIP3   OH226485   5.936   3.692   0.144 -0.3214  0.0301 -0.0837
 1665TIP3    H126486   5.900   3.605   0.124 -1.7052  0.6610 -0.4832
 1665TIP3    H226487   6.002   3.707   0.076  1.8779 -1.7503  1.4985
 1666TIP3   OH226488   6.591   0.144  16.906 -0.1299 -0.3533 -0.0578
 1666TIP3    H126489   6.605   0.151  16.812  3.4980 -0.0060  0.3512
 1666TIP3    H226490   6.512   0.196  16.923 -0.7520 -0.2556 -2.8425
 1667TIP3   OH226491   4.790   3.567   1.018 -1.0105 -0.2118  0.1182
 1667TIP3    H126492   4.827   3.499   0.963  0.9201  0.1550  0.8692
 1667TIP3    H226493   4.849   3.642   1.007 -1.4147  0.3525  1.5355
 1668TIP3   OH226494   0.571   3.133  16.447 -0.6948 -0.0020 -0.2421
 1668TIP3    H126495   0.538   3.060  16.396 -0.7784  0.4515 -0.8445
 1668TIP3    H226496   0.531   3.210  16.408 -0.7980  0.3528  0.5414
 1669TIP3   OH226497   4.180   1.022  11.987  0.1728 -0.3540 -0.1412
 1669TIP3    H126498   4.167   1.028  12.082 -0.5202  0.3815 -0.2749
 1669TIP3    H226499   4.140   0.938  11.962  0.8303 -0.8021  0.2845
 1670TIP3   OH226500   2.701   6.617  13.823  0.0510 -0.1125  0.4404
 1670TIP3    H126501   2.743   6.595  13.739  0.0134  2.1445 -0.2239
 1670TIP3    H226502   2.742   6.557  13.885  1.1717 -0.8556 -0.9349
 1671TIP3   OH226503   2.548   2.308   1.718 -0.3317 -0.4197 -0.1792
 1671TIP3    H126504   2.628   2.360   1.714 -0.6237  0.1321  0.8244
 1671TIP3    H226505   2.481   2.368   1.752 -1.0082 -1.0548 -0.3537
 1672TIP3   OH226506   3.220   0.792   2.676 -1.0793 -0.4192 -0.2831
 1672TIP3    H126507   3.222   0.883   2.646 -0.1583  0.1727  1.3815
 1672TIP3    H226508   3.268   0.744   2.609 -0.7404  0.5010 -0.7291
 1673TIP3   OH226509   3.626   4.695   4.183 -0.2185  0.7587  0.3105
 1673TIP3    H126510   3.660   4.627   4.125 -1.4957  0.0697  0.3391
 1673TIP3    H226511   3.639   4.777   4.135  0.2388  0.3665 -0.2366
 1674TIP3   OH226512   6.364   3.095   0.963 -0.6384  0.9784  0.7022
 1674TIP3    H126513   6.376   3.064   1.053 -1.8474 -1.3453  0.1434
 1674TIP3    H226514   6.451   3.123   0.936  0.4199 -1.1874  1.6134
 1675TIP3   OH226515   2.008   4.616   4.565 -0.0699 -0.0025 -0.4004
 1675TIP3    H126516   2.096   4.602   4.600 -0.7332 -1.9170  0.7001
 1675TIP3    H226517   1.951   4.614   4.642 -1.2007 -0.1294 -1.2103
 1676TIP3   OH226518   3.290   0.367  16.616  0.1587 -0.5515  0.4081
 1676TIP3    H126519   3.308   0.277  16.588 -0.5514 -0.6346  0.1885
 1676TIP3    H226520   3.349   0.382  16.690 -0.4637 -1.5836  1.1492
 1677TIP3   OH226521   3.892   4.692  16.613  0.4043  0.0579 -0.5769
 1677TIP3    H126522   3.948   4.755  16.658 -0.6858 -0.1588  1.1422
 1677TIP3    H226523   3.898   4.612  16.665 -0.9427 -0.1741 -0.7389
 1678TIP3   OH226524   1.349   2.159  16.054 -0.5263 -0.4008 -0.4188
 1678TIP3    H126525   1.437   2.169  16.091 -0.4159  0.3854 -0.8783
 1678TIP3    H226526   1.307   2.094  16.111 -0.0888  0.1748  0.5990
 1679TIP3   OH226527   1.302   4.553   1.561  0.1073  0.0280  0.5135
 1679TIP3    H126528   1.331   4.595   1.642  0.5460  1.2397 -0.2306
 1679TIP3    H226529   1.310   4.622   1.495 -1.1665 -0.6452 -0.3777
 1680TIP3   OH226530   1.586   5.803   0.948  0.9188  0.6928  0.3370
 1680TIP3    H126531   1.561   5.832   1.035 -0.0458  0.7543  0.0529
 1680TIP3    H226532   1.606   5.883   0.900 -2.1051  1.0360 -0.5591
 1681TIP3   OH226533   5.886   1.064  13.146  0.4002 -0.6376  0.7970
 1681TIP3    H126534   5.868   1.132  13.080  0.2130 -1.1037  0.3579
 1681TIP3    H226535   5.910   0.987  13.094  1.7144 -0.6035  1.3139
 1682TIP3   OH226536   1.216   6.304   0.478 -0.0337 -0.1465 -0.0570
 1682TIP3    H126537   1.293   6.250   0.459  0.9760  0.9870  0.7548
 1682TIP3    H226538   1.226   6.330   0.569 -0.9453  0.7238 -0.1923
 1683TIP3   OH226539   4.226   5.797   4.393 -0.0259 -0.1926 -0.6417
 1683TIP3    H126540   4.164   5.725   4.376 -0.9005  0.4164 -0.0903
 1683TIP3    H226541   4.248   5.830   4.306  2.8557 -3.0900 -1.2081
 1684TIP3   OH226542   0.070   0.992  10.344  1.0976  0.2945 -0.1412
 1684TIP3    H126543   0.140   1.058  10.349 -0.0682  1.5421  0.0780
 1684TIP3    H226544  -0.001   1.037  10.299  0.6214 -1.1454 -0.8676
 1685TIP3   OH226545   5.967   3.864  15.128 -0.0338  0.1475 -0.2610
 1685TIP3    H126546   5.948   3.794  15.192 -0.0894  0.1740 -0.2484
 1685TIP3    H226547   6.055   3.894  15.152  0.3489 -0.5059 -0.8042
 1686TIP3   OH226548   5.426   3.000  14.376 -0.3214  0.2169 -0.2911
 1686TIP3    H126549   5.333   2.991  14.395 -0.5984  1.3549 -0.9863
 1686TIP3    H226550   5.454   3.073  14.432  0.7350 -1.6151  1.7007
 1687TIP3   OH226551   5.903   5.075  15.392  0.0155  0.6851 -0.2633
 1687TIP3    H126552   5.932   5.142  15.330 -2.6623  2.6105  0.3868
 1687TIP3    H226553   5.882   5.123  15.472  0.8547 -1.3841  1.2881
 1688TIP3   OH226554   0.499   1.779   1.572  0.0494  0.0673 -0.2010
 1688TIP3    H126555   0.460   1.780   1.660  0.5179  1.0473  0.0130
 1688TIP3    H226556   0.544   1.695   1.566 -1.5970 -0.8664 -0.2448
 1689TIP3   OH226557   6.364   4.544   5.728 -0.0290 -0.0049 -0.5184
 1689TIP3    H126558   6.275   4.567   5.753 -0.0574 -0.7804  0.1479
 1689TIP3    H226559   6.416   4.622   5.747  0.0400 -0.6717  2.4909
 1690TIP3   OH226560   3.366   0.980   2.396 -0.4488 -0.1676  0.2031
 1690TIP3    H126561   3.369   1.065   2.353 -0.5616 -0.1912  0.1482
 1690TIP3    H226562   3.358   0.917   2.324  2.0441 -0.4095  0.0600
 1691TIP3   OH226563   4.825   4.056   4.997  0.2780 -0.6273 -0.1975
 1691TIP3    H126564   4.746   4.002   4.994 -0.2612  0.1904 -2.0819
 1691TIP3    H226565   4.801   4.131   5.052 -0.1040 -0.6048 -0.3968
 1692TIP3   OH226566   3.940   0.096   1.879 -0.3721 -0.7879  0.1889
 1692TIP3    H126567   3.911   0.170   1.826  1.1942 -0.9905 -1.0376
 1692TIP3    H226568   3.865   0.037   1.881 -1.2684  0.3245  0.2472
 1693TIP3   OH226569   1.225   1.615   0.448  0.8089 -0.0751 -0.5231
 1693TIP3    H126570   1.286   1.677   0.407  0.7224  0.4602  0.1522
 1693TIP3    H226571   1.139   1.643   0.417  0.5982  1.2087  1.0851
 1694TIP3   OH226572   0.835   6.040  17.147 -0.0905 -0.0396  0.0054
 1694TIP3    H126573   0.916   6.061  17.194 -0.5546  0.8753  0.4140
 1694TIP3    H226574   0.767   6.091  17.192 -0.9389 -0.9886 -0.1803
 1695TIP3   OH226575   2.145   3.556  13.063 -0.0178  0.0907 -0.2690
 1695TIP3    H126576   2.162   3.504  13.142 -1.3580  0.6695  0.4364
 1695TIP3    H226577   2.050   3.563  13.059  0.0364  0.3723 -1.7628
 1696TIP3   OH226578   6.810   3.878  14.407  0.6403 -0.1234 -0.1824
 1696TIP3    H126579   6.764   3.958  14.431  2.7977  0.5970  1.9881
 1696TIP3    H226580   6.762   3.808  14.451 -0.8891 -0.0229 -1.5817
 1697TIP3   OH226581   5.034   6.217   3.789 -0.0628  0.3533  0.1609
 1697TIP3    H126582   4.954   6.164   3.784  0.3536 -0.5811  2.1488
 1697TIP3    H226583   5.004   6.304   3.815 -0.4491 -0.1507  1.5260
 1698TIP3   OH226584   6.366   5.476   4.870 -0.5281 -0.5154 -0.3162
 1698TIP3    H126585   6.395   5.553   4.820  0.7171 -0.5223  0.3539
 1698TIP3    H226586   6.354   5.510   4.959  0.4228 -1.1607  0.0743
 1699TIP3   OH226587   1.303   0.690   1.770  0.1569 -0.1762  0.5471
 1699TIP3    H126588   1.255   0.770   1.752 -0.9768 -0.6890  1.1779
 1699TIP3    H226589   1.322   0.694   1.864  1.4143  0.0375  0.3040
 1700TIP3   OH226590   1.438   2.001   1.178  0.1714 -0.0673 -0.0955
 1700TIP3    H126591   1.523   2.044   1.186 -0.6033  1.5169  0.0282
 1700TIP3    H226592   1.414   2.013   1.086  0.7481 -1.8851 -0.5178
 1701TIP3   OH226593   6.183   1.959   0.266 -0.1943 -0.2635 -0.3209
 1701TIP3    H126594   6.102   1.933   0.222 -0.4673  0.1379 -0.0650
 1701TIP3    H226595   6.215   2.034   0.216  1.3608 -1.8986 -1.9352
 1702TIP3   OH226596   1.541   4.488  16.262 -0.5476  0.3940 -0.2449
 1702TIP3    H126597   1.576   4.576  16.247 -1.0359  1.1392  2.3478
 1702TIP3    H226598   1.613   4.439  16.300 -0.3250 -0.3251 -1.5370
 1703TIP3   OH226599   3.822   6.436   6.671  0.6224 -0.3664  0.6788
 1703TIP3    H126600   3.801   6.364   6.612  2.6804 -0.2840 -0.2023
 1703TIP3    H226601   3.882   6.399   6.735  1.3905  0.4666  0.4575
 1704TIP3   OH226602   3.719   1.958   5.737  0.1612  0.5433  0.4105
 1704TIP3    H126603   3.658   1.899   5.695 -2.0017  1.2099  2.4157
 1704TIP3    H226604   3.693   2.045   5.708 -2.8325  1.2700  4.3775
 1705TIP3   OH226605   6.398   2.003  15.058 -0.0032  0.2248  0.5311
 1705TIP3    H126606   6.374   2.079  15.005  0.8437 -0.4165 -0.8185
 1705TIP3    H226607   6.493   2.003  15.059  0.0399 -1.3863 -0.3559
 1706TIP3   OH226608   2.258   0.838  15.163  0.0911  0.1364 -0.6314
 1706TIP3    H126609   2.213   0.765  15.205  0.7056  0.3205  0.3760
 1706TIP3    H226610   2.253   0.818  15.069 -0.3136 -0.8608 -0.4154
 1707TIP3   OH226611   0.150   4.324  11.554  0.4618  0.0968  0.1550
 1707TIP3    H126612   0.127   4.328  11.647  0.5243 -1.0842  0.2476
 1707TIP3    H226613   0.068   4.298  11.511  1.0678 -2.2260  0.2574
 1708TIP3   OH226614   1.425   0.372   1.429 -0.1277  0.0266 -0.1019
 1708TIP3    H126615   1.477   0.427   1.488  2.2648  0.2346 -2.2332
 1708TIP3    H226616   1.461   0.284   1.442  1.7175  0.3448 -2.3839
 1709TIP3   OH226617   6.663   2.432   5.580  0.5651 -0.3960 -0.2933
 1709TIP3    H126618   6.700   2.352   5.620 -3.0897 -1.5742  1.1297
 1709TIP3    H226619   6.614   2.473   5.651 -3.1071 -0.5133 -2.5641
 1710TIP3   OH226620   4.539   5.110   2.399 -0.5402 -0.0698 -0.6260
 1710TIP3    H126621   4.494   5.073   2.475 -2.2937  1.7813 -0.6790
 1710TIP3    H226622   4.469   5.130   2.337  0.6244  0.7191 -1.7364
 1711TIP3   OH226623   5.024   4.812  13.185  0.1168  0.4324  0.0978
 1711TIP3    H126624   5.064   4.747  13.243  0.4011 -0.5865 -1.1920
 1711TIP3    H226625   4.981   4.761  13.117 -1.4146  1.5731  0.1567
 1712TIP3   OH226626   4.307   2.162  11.480  0.3600 -1.3576  0.4414
 1712TIP3    H126627   4.334   2.086  11.531  2.3165 -0.2650  1.0921
 1712TIP3    H226628   4.298   2.233  11.543 -1.8988 -1.0864 -0.0878
 1713TIP3   OH226629   3.032   5.895  16.704  0.4129  0.3599 -0.5593
 1713TIP3    H126630   3.111   5.884  16.652  0.5326 -1.2084 -0.0802
 1713TIP3    H226631   3.014   5.808  16.740 -1.2583  0.7853 -0.2730
 1714TIP3   OH226632   4.476   0.176   3.676  0.0082 -0.4305 -0.3381
 1714TIP3    H126633   4.519   0.110   3.730  1.1685 -0.1766 -0.9206
 1714TIP3    H226634   4.461   0.249   3.735 -0.5241 -0.8910  0.1061
 1715TIP3   OH226635   4.191   5.450   3.104 -0.0628 -0.4833  0.5847
 1715TIP3    H126636   4.103   5.484   3.118 -0.3920 -1.5637  1.2151
 1715TIP3    H226637   4.240   5.478   3.182  1.0104  2.6413 -1.0260
 1716TIP3   OH226638   4.221   0.720  13.291  0.1281  0.4790 -0.0103
 1716TIP3    H126639   4.287   0.682  13.234  0.8053  1.5559  0.0368
 1716TIP3    H226640   4.185   0.645  13.340  3.1753  0.1386  1.9416
 1717TIP3   OH226641   1.032   6.431   0.036  0.2630  0.0368  0.7024
 1717TIP3    H126642   1.039   6.346   0.079  0.2609 -0.4400 -0.2169
 1717TIP3    H226643   1.090   6.488   0.086  0.9901 -0.7386  0.7644
 1718TIP3   OH226644   5.764   3.627  16.933  0.7918  0.1458 -0.1076
 1718TIP3    H126645   5.699   3.682  16.977  1.3064  0.9725 -0.3670
 1718TIP3    H226646   5.723   3.604  16.850  1.0833  1.2340 -0.5715
 1719TIP3   OH226647   5.521   5.556  13.435 -0.5254 -0.8382 -0.4668
 1719TIP3    H126648   5.525   5.643  13.395  0.6303 -1.4794 -1.8606
 1719TIP3    H226649   5.434   5.551  13.475 -0.4259  1.1275  0.0956
 1720TIP3   OH226650   0.669   1.949  16.339  0.1127  0.5956  0.1483
 1720TIP3    H126651   0.580   1.976  16.315  0.1724 -0.4582 -1.4168
 1720TIP3    H226652   0.657   1.862  16.377  0.3396  1.1061  1.4534
 1721TIP3   OH226653   1.050   0.935   5.876 -0.4519  0.3716 -0.2173
 1721TIP3    H126654   1.072   1.028   5.879 -0.4877  0.3656  0.5991
 1721TIP3    H226655   0.975   0.930   5.816 -1.8619  1.1857  1.3861
 1722TIP3   OH226656   5.581   0.982  12.284  0.1454 -0.6023  0.2630
 1722TIP3    H126657   5.496   0.947  12.310 -0.0086 -0.3382  0.1167
 1722TIP3    H226658   5.569   1.009  12.193 -0.2588  1.4823  0.8910
 1723TIP3   OH226659   6.578   3.810  13.302 -0.3023  0.3305  0.4403
 1723TIP3    H126660   6.594   3.719  13.278 -0.7679  0.5204 -0.6028
 1723TIP3    H226661   6.646   3.829  13.367 -0.2599 -0.7813  0.7413
 1724TIP3   OH226662   0.965   6.548  16.863 -0.9460 -0.1608 -0.2296
 1724TIP3    H126663   0.999   6.521  16.948 -1.4163  0.7847  0.2648
 1724TIP3    H226664   0.981   6.472  16.806 -0.7028 -0.8304  0.7105
 1725TIP3   OH226665   4.964   1.757  16.007  0.2523 -0.5561  0.0065
 1725TIP3    H126666   4.914   1.810  16.069 -0.3945  0.1218 -1.0693
 1725TIP3    H226667   5.019   1.701  16.062 -1.6943 -1.3498  1.2420
 1726TIP3   OH226668   4.071   3.596  11.321 -0.0014 -0.4115  0.0057
 1726TIP3    H126669   3.988   3.627  11.357 -0.2452 -2.4555  1.3960
 1726TIP3    H226670   4.054   3.505  11.297  2.5198 -1.9735  3.2885
 1727TIP3   OH226671   1.925   0.200   3.950 -0.0617  0.2352 -0.5241
 1727TIP3    H126672   1.899   0.112   3.923  1.9997 -0.7820  0.5257
 1727TIP3    H226673   1.964   0.187   4.037  0.9983  2.0516 -0.6918
 1728TIP3   OH226674   4.891   1.471  14.451  0.0659 -0.7388 -0.1275
 1728TIP3    H126675   4.946   1.394  14.465 -0.4348 -0.9829  0.4892
 1728TIP3    H226676   4.899   1.489  14.357  2.5942  0.2644  0.1985
 1729TIP3   OH226677   5.213   1.492   3.247 -0.2043  0.4580 -0.2137
 1729TIP3    H126678   5.307   1.475   3.241 -0.2548  0.3281 -0.7084
 1729TIP3    H226679   5.200   1.527   3.335  0.3651  0.8470 -0.2777
 1730TIP3   OH226680   3.422   5.270   1.133  0.0420  0.1911  0.4824
 1730TIP3    H126681   3.465   5.188   1.111 -0.2568  0.0208  0.5245
 1730TIP3    H226682   3.483   5.338   1.104 -1.1807  0.0481 -2.8589
 1731TIP3   OH226683   0.619   4.767  12.310  0.0861 -0.7347 -0.0775
 1731TIP3    H126684   0.645   4.721  12.390 -0.3203 -0.0255  0.4807
 1731TIP3    H226685   0.563   4.705  12.264 -0.1027 -0.9647  0.4519
 1732TIP3   OH226686   5.424   6.134  14.348 -0.2137  0.5056 -0.0030
 1732TIP3    H126687   5.436   6.040  14.364 -0.5329 -0.3629 -3.7900
 1732TIP3    H226688   5.333   6.142  14.321 -0.1238  1.8894  0.0549
 1733TIP3   OH226689   3.698   1.743   6.731 -0.3810  0.6695 -0.0057
 1733TIP3    H126690   3.673   1.787   6.812 -1.3304 -2.0966  1.3412
 1733TIP3    H226691   3.785   1.707   6.749 -0.8563 -0.4907  0.0726
 1734TIP3   OH226692   3.384   2.352  11.382  0.0388  0.2884 -0.2524
 1734TIP3    H126693   3.349   2.278  11.332 -1.4066 -0.5773  1.9000
 1734TIP3    H226694   3.310   2.413  11.389  0.0255  0.1357  1.2550
 1735TIP3   OH226695   3.644   3.329  12.924 -0.1367 -0.3915  0.1381
 1735TIP3    H126696   3.558   3.324  12.882  0.0907  4.9033 -1.6312
 1735TIP3    H226697   3.629   3.379  13.004  0.9807 -1.9432  1.3838
 1736TIP3   OH226698   2.826   1.864   2.019  0.0268  0.0477  0.5739
 1736TIP3    H126699   2.837   1.769   2.019 -0.5341 -0.0191  0.3997
 1736TIP3    H226700   2.834   1.889   2.111 -1.0439 -0.3182  0.7733
 1737TIP3   OH226701   5.412   4.442   1.956  0.1822 -0.0021  0.0032
 1737TIP3    H126702   5.335   4.492   1.983 -1.2786 -1.9078 -0.4373
 1737TIP3    H226703   5.392   4.412   1.867  1.8405  0.2149 -0.4846
 1738TIP3   OH226704   3.181   1.138   4.646  0.3937  0.2909  0.3607
 1738TIP3    H126705   3.153   1.142   4.737  2.4011  0.5297  1.0201
 1738TIP3    H226706   3.113   1.186   4.598 -1.8180 -1.6323  1.3687
 1739TIP3   OH226707   0.754   4.656  13.151 -0.0979 -0.1354  0.1573
 1739TIP3    H126708   0.769   4.573  13.195 -0.0111 -0.3368 -0.2442
 1739TIP3    H226709   0.670   4.644  13.106  0.6603 -0.5754 -1.1894
 1740TIP3   OH226710   5.905   3.159  14.147  0.0871  0.0077 -0.0446
 1740TIP3    H126711   5.963   3.201  14.083  1.1395 -1.8511 -0.3935
 1740TIP3    H226712   5.834   3.121  14.094 -1.2197  1.8113  0.3295
 1741TIP3   OH226713   4.963   3.857   0.056  0.9052  0.3671  0.3608
 1741TIP3    H126714   5.045   3.864   0.007  0.7158 -0.3116 -0.0743
 1741TIP3    H226715   4.911   3.932   0.028  0.9734  0.2258 -0.1567
 1742TIP3   OH226716   4.756   1.103  15.397  0.1805  0.5233  0.2772
 1742TIP3    H126717   4.849   1.122  15.385  0.4871 -1.2457 -0.3477
 1742TIP3    H226718   4.750   1.008  15.401 -1.6155  0.5911  0.2797
 1743TIP3   OH226719   5.144   3.780  12.065 -0.0873 -0.2115  0.3118
 1743TIP3    H126720   5.189   3.826  12.135  0.5300  0.2067 -0.3554
 1743TIP3    H226721   5.078   3.727  12.110  1.0415 -0.8192  1.3000
 1744TIP3   OH226722   0.869   1.387   3.104  0.4052 -0.1952  0.0087
 1744TIP3    H126723   0.877   1.356   3.013  0.7673  1.2090 -0.4658
 1744TIP3    H226724   0.782   1.427   3.108  1.4483  2.3216 -0.6015
 1745TIP3   OH226725   3.255   2.623  11.165 -0.5635 -0.2808  0.4653
 1745TIP3    H126726   3.194   2.614  11.091 -1.5432 -0.1958  1.2477
 1745TIP3    H226727   3.280   2.715  11.164 -0.6611 -0.2549  0.3061
 1746TIP3   OH226728   2.303   0.723   4.875  0.0353 -0.5174  0.5590
 1746TIP3    H126729   2.372   0.759   4.931 -0.1335 -0.0315  0.4635
 1746TIP3    H226730   2.346   0.707   4.791  0.2345 -1.0313  0.7545
 1747TIP3   OH226731   6.805   2.060   4.467 -0.3132 -0.4228  0.2166
 1747TIP3    H126732   6.897   2.064   4.494 -0.5249  0.6155  0.8270
 1747TIP3    H226733   6.804   2.094   4.378  0.0360 -1.4812 -0.2065
 1748TIP3   OH226734   4.435   3.900   0.083 -0.0154 -0.1517 -0.0225
 1748TIP3    H126735   4.441   3.870  -0.008 -0.9164  0.3338 -0.2479
 1748TIP3    H226736   4.342   3.916   0.097  0.3474  1.9157  0.2791
 1749TIP3   OH226737   1.124   6.764  15.981 -0.3606  0.5791  0.0890
 1749TIP3    H126738   1.199   6.746  16.038  0.2493  0.3078 -0.7842
 1749TIP3    H226739   1.163   6.795  15.900 -1.1704 -0.1229 -0.5810
 1750TIP3   OH226740   4.266   1.047  16.830 -0.3159  0.0259  0.4804
 1750TIP3    H126741   4.270   0.976  16.766  0.3603  0.0024  0.5431
 1750TIP3    H226742   4.356   1.076  16.840 -0.8050  2.3063 -1.1045
 1751TIP3   OH226743   5.309   6.427  11.753 -0.0685  0.3021  0.0685
 1751TIP3    H126744   5.291   6.498  11.691 -0.5714 -0.1006 -0.2569
 1751TIP3    H226745   5.240   6.435  11.819 -0.0069  0.2391  0.1408
 1752TIP3   OH226746   2.342   2.457   4.488 -0.7158  0.2757 -0.6881
 1752TIP3    H126747   2.430   2.475   4.523 -0.4366 -1.6659 -0.2630
 1752TIP3    H226748   2.283   2.496   4.552 -0.1739 -1.7507  1.1816
 1753TIP3   OH226749   3.410   3.988   0.408 -0.4132  0.1975  0.2710
 1753TIP3    H126750   3.472   3.923   0.376 -0.3280  1.6473 -2.9208
 1753TIP3    H226751   3.327   3.942   0.415 -0.2265 -0.4640 -1.3662
 1754TIP3   OH226752   3.511   2.759   3.947 -0.0140  0.0394  0.0671
 1754TIP3    H126753   3.543   2.849   3.949 -1.3581  0.5273  0.7770
 1754TIP3    H226754   3.450   2.754   4.020  1.0726 -1.8633  0.9058
 1755TIP3   OH226755   1.020   2.259  15.839  0.4980 -0.1375  0.5233
 1755TIP3    H126756   0.983   2.284  15.924  0.5932  0.2346  0.4584
 1755TIP3    H226757   0.987   2.325  15.778 -0.1979 -0.8496  0.1217
 1756TIP3   OH226758   2.976   1.256   0.279  0.4233 -0.0342 -0.1053
 1756TIP3    H126759   2.930   1.339   0.292  0.0991 -0.1845 -0.2852
 1756TIP3    H226760   3.036   1.274   0.206 -1.8405 -0.8017 -2.3047
 1757TIP3   OH226761   1.774   1.640  14.769  0.1782  0.1353 -0.3644
 1757TIP3    H126762   1.705   1.622  14.704 -0.8700 -1.2997  1.0678
 1757TIP3    H226763   1.799   1.553  14.801  0.7891  0.7998  1.0218
 1758TIP3   OH226764   5.134   2.508  11.961  0.0384 -0.1556  0.0415
 1758TIP3    H126765   5.100   2.422  11.935 -1.4196  0.7067 -1.1059
 1758TIP3    H226766   5.153   2.552  11.878 -0.4691  1.0693  0.5445
 1759TIP3   OH226767   2.172   3.977  13.600 -1.4664 -0.6465 -0.1911
 1759TIP3    H126768   2.141   4.023  13.678 -0.2982 -1.0270  0.5135
 1759TIP3    H226769   2.114   3.902  13.592 -3.7885  1.1601 -1.6910
 1760TIP3   OH226770   0.933   5.304   5.670  0.4909  0.6681 -0.0926
 1760TIP3    H126771   0.936   5.208   5.664  0.7823  0.7402 -1.3176
 1760TIP3    H226772   1.020   5.329   5.701 -0.1111  0.4643  1.9306
 1761TIP3   OH226773   3.829   0.006  14.552 -0.1271  0.1818 -0.1586
 1761TIP3    H126774   3.809   0.051  14.470 -0.0464  0.8486  0.1774
 1761TIP3    H226775   3.914   0.041  14.578 -0.5181  0.5752  0.6163
 1762TIP3   OH226776   0.658   4.849  10.461 -0.0475 -0.1937 -0.1329
 1762TIP3    H126777   0.576   4.897  10.469  0.1454 -0.0091  0.8059
 1762TIP3    H226778   0.633   4.757  10.474 -0.6920 -0.6408 -3.5607
 1763TIP3   OH226779   5.500   2.079  12.112  0.3597 -0.4522  0.1645
 1763TIP3    H126780   5.521   2.137  12.186 -0.5327 -0.2350  0.2594
 1763TIP3    H226781   5.407   2.062  12.122  0.6186 -1.9984  0.1979
 1764TIP3   OH226782   1.147   0.592  12.996  0.4940 -0.5609  0.1555
 1764TIP3    H126783   1.100   0.633  13.068  2.2604  1.1377  0.3966
 1764TIP3    H226784   1.081   0.582  12.927 -0.5645  0.3446  1.0072
 1765TIP3   OH226785   6.009   2.615   4.958 -0.1007  0.8280 -0.3931
 1765TIP3    H126786   6.103   2.604   4.974 -0.0979  2.1080  0.7042
 1765TIP3    H226787   5.967   2.546   5.009  0.2877 -1.5193 -3.0331
 1766TIP3   OH226788   4.287   1.300  12.321  0.0399 -0.4384  0.2752
 1766TIP3    H126789   4.345   1.261  12.387  0.5360  0.7555  0.5710
 1766TIP3    H226790   4.255   1.380  12.361 -1.1590 -0.6334 -0.2292
 1767TIP3   OH226791   1.131   1.388   3.416 -0.0902 -0.5484  0.1225
 1767TIP3    H126792   1.071   1.326   3.373  1.3377 -0.6624 -1.8659
 1767TIP3    H226793   1.217   1.347   3.408  0.6109  0.7645  0.6125
 1768TIP3   OH226794   5.156   2.259   2.443 -0.0875  0.6039 -0.3183
 1768TIP3    H126795   5.092   2.240   2.375  1.2321  1.2773 -1.8178
 1768TIP3    H226796   5.185   2.348   2.424  1.2944  0.3115  0.2945
 1769TIP3   OH226797   1.384   2.230   5.291  0.9062 -0.1923 -0.0522
 1769TIP3    H126798   1.339   2.222   5.207 -0.4428  3.1116  0.1895
 1769TIP3    H226799   1.459   2.287   5.272  0.1731  1.2002  1.0527
 1770TIP3   OH226800   2.022   1.978  14.322 -0.4700 -0.6171  0.1805
 1770TIP3    H126801   1.985   1.929  14.248 -0.2814  0.6177 -0.7780
 1770TIP3    H226802   1.959   2.047  14.340 -0.8679 -1.3371  1.7006
 1771TIP3   OH226803   3.852   5.837  12.886 -1.0536 -0.3412 -0.0697
 1771TIP3    H126804   3.854   5.790  12.969 -1.2901 -1.8705 -0.9051
 1771TIP3    H226805   3.943   5.837  12.856 -0.8145  0.9844  0.5803
 1772TIP3   OH226806   4.344   1.368  13.730  0.3013  0.6963 -0.1220
 1772TIP3    H126807   4.358   1.462  13.719  0.2019  0.9427  1.6265
 1772TIP3    H226808   4.256   1.352  13.694 -0.5017  1.6503  1.3506
 1773TIP3   OH226809   4.234   4.149  14.799  0.4210 -0.1685 -0.5854
 1773TIP3    H126810   4.228   4.067  14.750  0.5898 -1.0928  0.8796
 1773TIP3    H226811   4.153   4.196  14.778 -0.1695 -1.1830 -0.6367
 1774TIP3   OH226812   1.102   5.346   2.463  0.1099 -0.0147  0.2907
 1774TIP3    H126813   1.118   5.439   2.447  1.8808  0.6179  4.3309
 1774TIP3    H226814   1.146   5.301   2.391 -0.5465  2.2079 -1.6207
 1775TIP3   OH226815   0.560   2.180  11.368  0.3479 -0.0447 -0.0013
 1775TIP3    H126816   0.568   2.109  11.304 -0.1807 -0.4192  0.3385
 1775TIP3    H226817   0.649   2.213  11.378  0.9673 -1.8914  1.2043
 1776TIP3   OH226818   3.297   5.909   0.675 -0.2027  0.1429  0.2466
 1776TIP3    H126819   3.336   5.947   0.754  1.7590  0.5183 -0.8541
 1776TIP3    H226820   3.305   5.977   0.609 -1.1489 -0.4381 -0.4905
 1777TIP3   OH226821   4.652   3.411  15.054 -0.3759  0.1624  0.3623
 1777TIP3    H126822   4.679   3.384  15.142  0.3919 -1.6694 -0.3757
 1777TIP3    H226823   4.721   3.376  14.997 -0.9605  1.1537 -0.9881
 1778TIP3   OH226824   5.088   3.157   3.222  0.0284  0.2512  0.3774
 1778TIP3    H126825   5.137   3.083   3.187  0.0542  0.1083  0.7186
 1778TIP3    H226826   5.019   3.117   3.275 -2.8507  0.2205 -2.9674
 1779TIP3   OH226827   3.200   4.749   5.253  0.2487  0.1720 -0.7361
 1779TIP3    H126828   3.182   4.664   5.293 -1.6727  0.4584 -0.8896
 1779TIP3    H226829   3.274   4.783   5.301  0.0215 -0.8962  0.4196
 1780TIP3   OH226830   2.146   3.967   4.163 -0.2065  0.3927 -0.0709
 1780TIP3    H126831   2.189   3.898   4.113  1.2726  0.5687  0.8705
 1780TIP3    H226832   2.087   4.009   4.101 -0.4918 -1.1406 -0.8913
 1781TIP3   OH226833   1.743   0.980   3.739  0.1082 -0.1385  0.7996
 1781TIP3    H126834   1.822   0.937   3.773 -0.1542 -1.7215 -0.4731
 1781TIP3    H226835   1.671   0.925   3.770 -0.3026 -0.2015 -0.2346
 1782TIP3   OH226836   1.438   6.293  10.883 -0.3641  0.9092  0.0469
 1782TIP3    H126837   1.463   6.207  10.849 -0.0385  1.0517 -0.0845
 1782TIP3    H226838   1.521   6.336  10.904 -0.4592  1.6125 -0.9402
 1783TIP3   OH226839   6.645   3.933   4.954 -0.1216  0.2558  0.7459
 1783TIP3    H126840   6.618   3.850   4.915 -0.6522  1.8349 -2.5486
 1783TIP3    H226841   6.700   3.908   5.028 -0.2606 -3.0117 -0.1196
 1784TIP3   OH226842   1.846   1.397  13.322  0.5802  0.1009 -0.1745
 1784TIP3    H126843   1.855   1.489  13.298 -1.0808  0.1870 -0.6353
 1784TIP3    H226844   1.788   1.360  13.255  1.7114 -1.4554 -0.3643
 1785TIP3   OH226845   6.140   6.429  12.251  0.2450  0.4657  0.0843
 1785TIP3    H126846   6.177   6.370  12.317  0.8875  0.5684 -0.1737
 1785TIP3    H226847   6.060   6.463  12.292  0.1497 -0.1669  0.4459
 1786TIP3   OH226848   1.148   2.557   0.806  0.0101  0.2800  0.0928
 1786TIP3    H126849   1.222   2.617   0.812  0.8979 -0.8007  0.4133
 1786TIP3    H226850   1.124   2.558   0.713 -0.6789  1.8872  0.2564
 1787TIP3   OH226851   3.364   4.349   4.774 -0.1704  0.1233  0.0434
 1787TIP3    H126852   3.446   4.390   4.801  0.2911 -0.0076 -1.1231
 1787TIP3    H226853   3.298   4.418   4.784  0.1727  0.3887  0.4720
 1788TIP3   OH226854   6.524   0.332  13.482 -0.1680 -0.1168 -0.3056
 1788TIP3    H126855   6.540   0.415  13.526 -1.5605 -0.6478  1.3061
 1788TIP3    H226856   6.456   0.352  13.417 -0.7009 -0.0503  0.2709
 1789TIP3   OH226857   6.358   2.544   3.705 -0.2062  0.6891  0.1042
 1789TIP3    H126858   6.371   2.520   3.613 -1.2668  0.3774  0.0259
 1789TIP3    H226859   6.443   2.577   3.733  0.3052  0.1868 -0.8082
 1790TIP3   OH226860   3.567   2.314  15.634  0.7512  0.2811  0.0538
 1790TIP3    H126861   3.592   2.361  15.713 -2.5506 -0.2604  1.5677
 1790TIP3    H226862   3.583   2.222  15.654  3.0475  0.3141 -1.2666
 1791TIP3   OH226863   4.290   0.089   3.460  0.0962  0.2728  0.0292
 1791TIP3    H126864   4.337   0.111   3.541 -2.2179 -2.8357  2.4954
 1791TIP3    H226865   4.226   0.160   3.449 -1.0726 -0.3074  2.3817
 1792TIP3   OH226866   0.555   4.467  13.829  0.2780  0.4833  0.3254
 1792TIP3    H126867   0.477   4.440  13.781 -0.0797 -0.5531  1.4528
 1792TIP3    H226868   0.628   4.434  13.777 -0.1049 -0.7085  0.5138
 1793TIP3   OH226869   3.277   4.127   1.319  0.1042  0.8384 -0.1315
 1793TIP3    H126870   3.340   4.186   1.361  0.3802  0.4363  0.0262
 1793TIP3    H226871   3.238   4.179   1.249  0.8053  1.0144 -0.4022
 1794TIP3   OH226872   4.131   6.472   6.672  0.0673 -0.7225 -0.0150
 1794TIP3    H126873   4.115   6.406   6.605 -1.2652 -1.3415  0.8652
 1794TIP3    H226874   4.125   6.424   6.755 -2.2776  0.6792  0.7125
 1795TIP3   OH226875   0.669   3.751  11.277  0.2053 -0.1349 -0.2419
 1795TIP3    H126876   0.753   3.711  11.298 -0.1826 -0.8776 -0.0837
 1795TIP3    H226877   0.604   3.685  11.300 -0.4236  0.4156 -0.4003
 1796TIP3   OH226878   5.165   1.865   4.375  0.5876 -0.5610  0.1251
 1796TIP3    H126879   5.190   1.846   4.465 -0.8967 -0.8842  0.4984
 1796TIP3    H226880   5.155   1.961   4.372 -1.4888 -0.7043  0.9380
 1797TIP3   OH226881   1.813   0.379   2.024 -0.0582  0.7481 -0.0339
 1797TIP3    H126882   1.898   0.420   2.034 -0.0601  0.5777  0.7267
 1797TIP3    H226883   1.807   0.317   2.096 -0.3677 -0.0520 -0.7269
 1798TIP3   OH226884   0.488   2.487  14.143  0.2469  0.0259  0.1531
 1798TIP3    H126885   0.441   2.515  14.065  0.3167 -0.0610  0.0804
 1798TIP3    H226886   0.509   2.395  14.128 -0.6022 -0.2673  0.6959
 1799TIP3   OH226887   5.045   4.500  13.105 -0.4659 -0.2028  0.1190
 1799TIP3    H126888   4.958   4.503  13.144 -0.1720 -0.7114  0.8583
 1799TIP3    H226889   5.034   4.450  13.024 -1.3046  1.8417 -1.0914
 1800TIP3   OH226890   0.798   1.861  11.980  0.1592  0.2605 -0.2134
 1800TIP3    H126891   0.772   1.945  12.019  1.5582  0.7696 -0.3008
 1800TIP3    H226892   0.871   1.884  11.922  0.5987 -1.0322 -0.1891
 1801TIP3   OH226893   4.026   3.889   3.485 -0.0353 -0.6701  0.1483
 1801TIP3    H126894   4.039   3.875   3.391 -2.9688 -0.8605 -0.3113
 1801TIP3    H226895   3.957   3.955   3.491 -0.0317 -0.7706  2.1838
 1802TIP3   OH226896   2.480   6.122   2.252 -0.0419  0.0353  0.5898
 1802TIP3    H126897   2.482   6.126   2.347 -0.7248 -0.6944  0.6415
 1802TIP3    H226898   2.567   6.092   2.227 -0.1426 -0.6332  1.0312
 1803TIP3   OH226899   5.529   5.218   0.884 -0.3314 -0.7406  0.0606
 1803TIP3    H126900   5.550   5.125   0.887  0.2228 -0.7017 -1.3916
 1803TIP3    H226901   5.454   5.224   0.824  0.6164 -0.1531 -1.1283
 1804TIP3   OH226902   4.294   3.872  16.453 -0.8809  0.2549 -0.2368
 1804TIP3    H126903   4.215   3.846  16.406 -1.1706 -0.0628  0.4159
 1804TIP3    H226904   4.263   3.929  16.523 -0.2414  2.7473 -1.8401
 1805TIP3   OH226905   0.111   2.425   4.320 -1.4349 -0.2683  0.9597
 1805TIP3    H126906   0.124   2.409   4.414  1.4749 -0.1102  0.6753
 1805TIP3    H226907   0.142   2.514   4.306  2.3147 -1.6136 -0.6981
 1806TIP3   OH226908   3.869   3.417  15.480  0.0699  0.0569  0.1943
 1806TIP3    H126909   3.907   3.333  15.503 -1.5763 -0.3962  1.4155
 1806TIP3    H226910   3.776   3.410  15.504  0.1665  2.6932  1.7510
 1807TIP3   OH226911   3.674   1.310   0.530 -0.5034  0.2410  0.3042
 1807TIP3    H126912   3.617   1.380   0.562 -0.5654  0.5322 -0.4131
 1807TIP3    H226913   3.615   1.238   0.510 -0.4673  0.0680  0.8087
 1808TIP3   OH226914   3.767   6.155   2.181  0.2668 -0.4429 -0.3683
 1808TIP3    H126915   3.740   6.194   2.098 -1.1488 -2.6932 -1.0708
 1808TIP3    H226916   3.859   6.134   2.168 -0.1378 -1.5463 -1.7616
 1809TIP3   OH226917   1.706   0.658   3.895  0.0963 -0.2418 -0.2057
 1809TIP3    H126918   1.740   0.580   3.939  0.9452  0.5603  0.5899
 1809TIP3    H226919   1.738   0.650   3.805  2.6567  0.5652  0.5419
 1810TIP3   OH226920   3.312   3.266   0.154 -0.3823 -0.3513  0.2678
 1810TIP3    H126921   3.299   3.304   0.241  1.3287  0.2127  0.3247
 1810TIP3    H226922   3.359   3.184   0.171  0.7521  0.1870 -0.1358
 1811TIP3   OH226923   5.298   5.061  16.025 -0.0406  0.0422 -0.2142
 1811TIP3    H126924   5.220   5.111  16.000 -0.2844 -0.6401 -0.8610
 1811TIP3    H226925   5.370   5.122  16.014 -0.4099  0.4685 -0.3043
 1812TIP3   OH226926   2.154   1.268  14.042  0.4561 -0.3047  0.1888
 1812TIP3    H126927   2.082   1.332  14.036  0.7559  0.3910  2.9042
 1812TIP3    H226928   2.121   1.201  14.102  1.4227 -0.9049  0.0628
 1813TIP3   OH226929   3.596   6.333   3.216 -0.2369  0.2919  0.0400
 1813TIP3    H126930   3.662   6.402   3.222  1.7816 -1.6094  1.7305
 1813TIP3    H226931   3.643   6.258   3.179 -1.0537 -1.4784  2.3242
 1814TIP3   OH226932   0.711   2.083  15.243 -0.0392 -0.7659  0.6153
 1814TIP3    H126933   0.645   2.067  15.176 -0.1474 -1.4449  0.8753
 1814TIP3    H226934   0.763   2.156  15.209 -2.6601  1.7998  1.6606
 1815TIP3   OH226935   0.417   4.868   0.140  0.4822 -0.4099  0.1241
 1815TIP3    H126936   0.463   4.827   0.067  2.2518  0.3558  0.7510
 1815TIP3    H226937   0.442   4.816   0.216 -0.3312 -0.4308  0.3920
 1816TIP3   OH226938   1.353   1.562   3.072  0.2813  0.3039 -0.0501
 1816TIP3    H126939   1.385   1.499   3.007  0.1883  1.4712 -1.2662
 1816TIP3    H226940   1.257   1.555   3.066  0.1932 -1.6385  2.0611
 1817TIP3   OH226941   5.123   4.861   0.445  0.4082  0.2918  0.5551
 1817TIP3    H126942   5.114   4.952   0.417 -0.3393  0.3080  0.8416
 1817TIP3    H226943   5.153   4.867   0.536 -0.5406  0.2646  0.8770
 1818TIP3   OH226944   0.355   3.336  14.520  0.6608 -0.0017  0.1916
 1818TIP3    H126945   0.329   3.257  14.474  0.0144 -0.4320  1.2529
 1818TIP3    H226946   0.450   3.328  14.530  0.6382 -0.5029  0.0415
 1819TIP3   OH226947   0.489   0.940  17.145 -0.1858 -0.6869 -0.1124
 1819TIP3    H126948   0.395   0.955  17.132  0.1349  0.0225 -2.0282
 1819TIP3    H226949   0.505   0.855  17.104  0.4877  0.6209 -2.8055
 1820TIP3   OH226950   0.886   3.266  14.020  0.0536 -0.4330  0.3654
 1820TIP3    H126951   0.933   3.336  13.976  0.5715 -1.0823 -0.1192
 1820TIP3    H226952   0.852   3.211  13.950 -1.9054  0.2977  0.6702
 1821TIP3   OH226953   6.704   3.302   0.809 -0.2011 -0.2878 -0.3882
 1821TIP3    H126954   6.658   3.234   0.859  1.1255 -0.3819  0.7373
 1821TIP3    H226955   6.796   3.279   0.816  0.1854  1.0465 -0.9022
 1822TIP3   OH226956   2.848   5.729   3.609 -0.3589  0.4083  0.2565
 1822TIP3    H126957   2.811   5.715   3.697 -0.9768  0.7335  0.0578
 1822TIP3    H226958   2.832   5.821   3.591 -0.3325  0.3167 -0.2453
 1823TIP3   OH226959   2.596   0.239   5.455 -0.1874  0.3223  0.7241
 1823TIP3    H126960   2.653   0.191   5.515 -1.6060  1.1572  2.8380
 1823TIP3    H226961   2.629   0.329   5.457  0.2645  0.2136 -0.4712
 1824TIP3   OH226962   4.987   3.581  14.012  0.0834  0.6368 -0.0426
 1824TIP3    H126963   5.008   3.627  14.093  1.3669  0.7686 -0.4261
 1824TIP3    H226964   5.053   3.512  14.005 -1.7175 -1.2544  0.4444
 1825TIP3   OH226965   6.158   0.038   1.722  0.2878  0.0594 -0.1033
 1825TIP3    H126966   6.080   0.074   1.680  0.9090  0.5964 -0.8275
 1825TIP3    H226967   6.230   0.093   1.690  1.0612 -0.8960 -0.0474
 1826TIP3   OH226968   1.848   4.824  11.328  0.8613 -0.0466  0.4055
 1826TIP3    H126969   1.941   4.847  11.323  1.0780 -0.7734  0.9444
 1826TIP3    H226970   1.824   4.841  11.419  0.6152 -0.4012  0.4083
 1827TIP3   OH226971   5.992   2.785   2.661  0.2460 -0.2017  0.1890
 1827TIP3    H126972   5.916   2.827   2.622 -0.1765 -0.9890  0.1415
 1827TIP3    H226973   6.008   2.709   2.605  0.6463 -0.4191  0.5933
 1828TIP3   OH226974   4.539   6.193   2.990 -0.1409  0.2185 -0.4807
 1828TIP3    H126975   4.585   6.175   2.908 -2.1081  1.4933 -1.9717
 1828TIP3    H226976   4.604   6.178   3.058  1.5648 -0.9253 -2.2575
 1829TIP3   OH226977   4.889   1.009  16.890 -0.4423  0.2034 -0.5059
 1829TIP3    H126978   4.842   1.018  16.807 -0.9510 -1.3636 -0.4140
 1829TIP3    H226979   4.884   0.916  16.911  0.3929  0.4395  0.8791
 1830TIP3   OH226980   5.623   5.803   3.743  0.3293  0.4205  0.2798
 1830TIP3    H126981   5.554   5.767   3.686  0.9494 -0.1910 -0.1112
 1830TIP3    H226982   5.696   5.742   3.732  1.2674  1.5757 -0.0508
 1831TIP3   OH226983   3.100   4.568   4.605 -0.3493 -0.0139 -0.2016
 1831TIP3    H126984   3.157   4.595   4.676  0.4599 -0.2358 -0.7534
 1831TIP3    H226985   3.012   4.588   4.636  0.0886  1.3203  0.2279
 1832TIP3   OH226986   2.781   6.271  16.057  0.0890 -0.5056  0.6210
 1832TIP3    H126987   2.703   6.233  16.016  0.0915 -0.3615  0.4846
 1832TIP3    H226988   2.774   6.365  16.039 -0.4688 -0.2778  1.8516
 1833TIP3   OH226989   1.202   0.832   4.531 -0.7749  0.4930 -0.1565
 1833TIP3    H126990   1.204   0.739   4.552  3.0094  0.5123  0.2779
 1833TIP3    H226991   1.140   0.869   4.594 -0.3630 -1.3978  1.4697
 1834TIP3   OH226992   5.519   3.535   2.255  0.6773  0.0463 -0.2713
 1834TIP3    H126993   5.493   3.590   2.329 -1.3764 -0.3871 -0.6309
 1834TIP3    H226994   5.437   3.514   2.210  1.8132 -0.0819 -2.4186
 1835TIP3   OH226995   4.443   3.823  16.964  0.1693  0.5654 -0.2149
 1835TIP3    H126996   4.469   3.915  16.957  1.3006  0.2445 -0.4956
 1835TIP3    H226997   4.525   3.777  16.983  0.0831 -0.7012 -2.5802
 1836TIP3   OH226998   4.692   4.095  15.271 -0.1734  0.1650  0.1947
 1836TIP3    H126999   4.625   4.093  15.202 -2.1467  1.0333  1.9859
 1836TIP3    H227000   4.674   4.176  15.320  1.1869 -0.3936  1.7064
 1837TIP3   OH227001   6.045   2.627   1.662  0.6696 -0.0664 -0.1228
 1837TIP3    H127002   6.091   2.549   1.631  0.6561  0.0676 -0.4811
 1837TIP3    H227003   5.972   2.637   1.600  0.4150 -0.0238  0.1832
 1838TIP3   OH227004   2.375   0.048  12.565 -0.3551  0.5526 -0.2060
 1838TIP3    H127005   2.354  -0.037  12.526  0.0380  0.8051 -0.9846
 1838TIP3    H227006   2.335   0.045  12.652 -0.5758 -0.3238 -0.3295
 1839TIP3   OH227007   5.379   6.093  16.525 -0.1407 -0.1586 -0.0232
 1839TIP3    H127008   5.295   6.139  16.523  1.0591  2.3157  1.6002
 1839TIP3    H227009   5.390   6.059  16.437 -2.7328 -0.4209 -0.3270
 1840TIP3   OH227010   4.539   6.820   4.603  0.2970 -0.1033  0.3524
 1840TIP3    H127011   4.531   6.893   4.664 -1.9542 -1.7042  2.1599
 1840TIP3    H227012   4.564   6.745   4.657  2.3846 -0.7990 -1.4155
 1841TIP3   OH227013   5.354   4.891  16.228 -0.1947  0.0224 -0.0850
 1841TIP3    H127014   5.341   4.940  16.309 -0.6495 -0.0738 -0.0976
 1841TIP3    H227015   5.310   4.943  16.160 -0.1366 -0.0825 -0.2048
 1842TIP3   OH227016   2.780   4.903  15.001 -0.1569 -0.7084 -0.5572
 1842TIP3    H127017   2.775   4.816  15.039 -0.8503 -0.7662 -0.7678
 1842TIP3    H227018   2.843   4.950  15.055  0.9255 -1.6135 -0.9884
 1843TIP3   OH227019   3.255   6.085   1.445 -0.8017  0.1265 -0.1250
 1843TIP3    H127020   3.164   6.106   1.465 -1.4113 -1.9769 -0.4445
 1843TIP3    H227021   3.299   6.084   1.530 -0.9437  1.5562 -0.0056
 1844TIP3   OH227022   0.360   2.167   2.784  0.3305  0.3831  0.2071
 1844TIP3    H127023   0.308   2.228   2.731  1.6946  1.0541 -0.4064
 1844TIP3    H227024   0.330   2.080   2.757  1.8910  0.6366 -2.7398
 1845TIP3   OH227025   0.676   5.764  13.987  0.3548  0.1784 -0.3335
 1845TIP3    H127026   0.737   5.747  14.059  0.5623 -1.1404 -0.7917
 1845TIP3    H227027   0.730   5.806  13.920  1.0640 -1.8599 -1.1289
 1846TIP3   OH227028   2.713   1.915   3.088  0.4357 -0.1712  0.1658
 1846TIP3    H127029   2.695   1.948   3.000  2.3225  0.1436 -0.1291
 1846TIP3    H227030   2.808   1.905   3.091  0.3764 -0.4179  2.0926
 1847TIP3   OH227031   4.588   2.414   2.485 -0.0647 -0.0929  0.2817
 1847TIP3    H127032   4.682   2.430   2.475  0.2729 -0.6584  2.1711
 1847TIP3    H227033   4.571   2.428   2.578 -1.9192  0.2667 -0.0839
 1848TIP3   OH227034   1.176   3.935  13.352  0.4199  0.3829 -0.3980
 1848TIP3    H127035   1.183   3.967  13.442  1.2970  0.4703 -0.4912
 1848TIP3    H227036   1.176   3.839  13.361  0.1870  0.3915 -0.2890
 1849TIP3   OH227037   3.084   2.730   2.012 -0.1576  0.3042 -0.3129
 1849TIP3    H127038   3.068   2.656   1.953 -0.4092  0.0615  0.0499
 1849TIP3    H227039   3.178   2.730   2.026 -0.0250  0.6860 -1.1233
 1850TIP3   OH227040   5.668   1.560  16.809 -0.4410 -0.0530 -0.2998
 1850TIP3    H127041   5.636   1.479  16.770 -0.4577 -0.2614  0.1441
 1850TIP3    H227042   5.614   1.572  16.887 -1.6047  1.2791 -1.2649
 1851TIP3   OH227043   3.255   1.219  15.441 -0.4033  0.3061 -0.3512
 1851TIP3    H127044   3.309   1.151  15.482 -2.1326 -0.5775  0.5946
 1851TIP3    H227045   3.306   1.299  15.450  1.1904 -0.6520 -0.4590
 1852TIP3   OH227046   5.878   2.807   1.059 -0.5830 -0.6764  0.4712
 1852TIP3    H127047   5.787   2.827   1.079 -0.7079 -1.4372  0.6773
 1852TIP3    H227048   5.922   2.892   1.061 -1.4493 -0.1832 -0.5301
 1853TIP3   OH227049   0.225   5.069   1.508 -0.1474  0.4204 -0.3710
 1853TIP3    H127050   0.248   4.976   1.498  1.4284  0.6711  0.5714
 1853TIP3    H227051   0.130   5.071   1.502 -0.2459 -1.3276  0.0324
 1854TIP3   OH227052   3.909   4.247   3.428  0.5656  0.0555  0.0208
 1854TIP3    H127053   3.841   4.314   3.435  0.7547  0.0823  2.0715
 1854TIP3    H227054   3.985   4.295   3.394  0.8224  1.0312  1.8331
 1855TIP3   OH227055   6.024   1.761   6.205  0.2678  0.4004 -0.1686
 1855TIP3    H127056   6.030   1.746   6.111 -0.8546  1.8281 -0.5019
 1855TIP3    H227057   5.953   1.703   6.234 -0.2875  0.9324 -0.4476
 1856TIP3   OH227058   1.084   5.385  11.113 -0.4220 -0.1819  0.0818
 1856TIP3    H127059   1.159   5.330  11.135 -0.0912  0.5488  0.7802
 1856TIP3    H227060   1.034   5.392  11.194 -1.6653 -1.2771 -0.5533
 1857TIP3   OH227061   0.638   2.798  17.128 -0.0480 -0.5090 -0.3425
 1857TIP3    H127062   0.569   2.864  17.126  0.8642  0.6304  1.8714
 1857TIP3    H227063   0.609   2.736  17.195  0.3482 -0.8739 -0.5063
 1858TIP3   OH227064   1.509   4.115   4.734  0.0613  0.0912  0.0679
 1858TIP3    H127065   1.528   4.200   4.695  1.5476  0.0178  0.5568
 1858TIP3    H227066   1.425   4.127   4.779  0.4344  1.4041  0.4467
 1859TIP3   OH227067   4.289   3.219  12.244  0.2399 -0.3615 -0.1890
 1859TIP3    H127068   4.327   3.222  12.332  0.4779  1.0590 -0.3196
 1859TIP3    H227069   4.365   3.224  12.186 -0.0266  1.1006 -0.4523
 1860TIP3   OH227070   3.838   2.462  16.865 -0.0069  0.1616  0.3145
 1860TIP3    H127071   3.881   2.528  16.920  1.1214  1.3249 -1.8435
 1860TIP3    H227072   3.804   2.512  16.790  1.3248 -1.7149 -1.6575
 1861TIP3   OH227073   5.726   5.072   2.510  0.3101 -0.3304 -0.0511
 1861TIP3    H127074   5.727   5.164   2.538 -1.9228 -0.9167  2.4198
 1861TIP3    H227075   5.690   5.074   2.422 -3.1141  1.0636  1.2118
 1862TIP3   OH227076   5.214   4.014   0.410  0.0135 -0.1968  0.3801
 1862TIP3    H127077   5.275   3.943   0.388 -0.2332 -0.2079 -0.2885
 1862TIP3    H227078   5.136   3.995   0.358  0.3836  1.2093 -0.7391
 1863TIP3   OH227079   1.834   5.528  12.959  0.1062 -0.7192 -0.5458
 1863TIP3    H127080   1.831   5.603  13.018 -0.2498 -1.6805  0.7110
 1863TIP3    H227081   1.918   5.536  12.914  1.1835 -0.8643  1.3575
 1864TIP3   OH227082   1.097   0.441   3.758  0.2499  0.0876  0.0787
 1864TIP3    H127083   1.184   0.464   3.726 -0.3793  0.7080 -1.3022
 1864TIP3    H227084   1.095   0.345   3.755  1.0161  0.0542  0.5044
 1865TIP3   OH227085   3.757   5.923   4.453  0.0830  0.5115 -0.4979
 1865TIP3    H127086   3.810   6.000   4.434 -0.0380  0.2670 -1.9245
 1865TIP3    H227087   3.687   5.925   4.388 -0.3920 -0.3703 -0.0437
 1866TIP3   OH227088   6.719   2.497  11.213 -0.3428  0.3513 -0.0168
 1866TIP3    H127089   6.697   2.451  11.294  0.0631 -1.6475 -0.9796
 1866TIP3    H227090   6.812   2.480  11.200 -0.5315  0.1427 -1.1962
 1867TIP3   OH227091   4.206   4.730   4.625 -0.3595 -0.7206 -0.0940
 1867TIP3    H127092   4.279   4.768   4.674  1.0968 -2.6608 -0.6513
 1867TIP3    H227093   4.243   4.653   4.583 -2.3519 -0.8587 -1.7384
 1868TIP3   OH227094   4.918   5.471  14.455 -0.7668 -0.0115 -0.1675
 1868TIP3    H127095   4.963   5.387  14.466 -1.3970 -0.4647 -0.9443
 1868TIP3    H227096   4.835   5.460  14.501 -0.7890  0.2475 -0.1411
 1869TIP3   OH227097   1.175   2.182  15.205 -0.0766  0.2061  0.3270
 1869TIP3    H127098   1.170   2.193  15.300 -1.2966  2.9997  0.0090
 1869TIP3    H227099   1.125   2.102  15.188 -0.8791  0.3326  1.9138
 1870TIP3   OH227100   6.416   1.148   4.581 -0.5546 -0.7303 -0.1006
 1870TIP3    H127101   6.472   1.085   4.626 -0.2480 -0.6265 -0.3371
 1870TIP3    H227102   6.460   1.232   4.593  0.4525 -0.9378 -2.0781
 1871TIP3   OH227103   3.528   3.387  16.600  0.1286 -0.0692 -0.6703
 1871TIP3    H127104   3.511   3.297  16.573  0.7148 -0.2521 -0.4275
 1871TIP3    H227105   3.578   3.379  16.681 -0.9299  0.4692  0.0733
 1872TIP3   OH227106   1.432   4.455  12.953 -0.2087  0.5553  0.2371
 1872TIP3    H127107   1.407   4.414  13.036  0.1973 -0.0950  0.0405
 1872TIP3    H227108   1.497   4.521  12.978 -1.1052  1.3442  0.5912
 1873TIP3   OH227109   5.528   0.900   0.992 -0.2971 -0.0531 -0.3970
 1873TIP3    H127110   5.460   0.849   1.036 -0.9958  1.8191  0.8257
 1873TIP3    H227111   5.600   0.838   0.980 -1.0707 -1.3127  1.0955
 1874TIP3   OH227112   5.487   6.763   3.093  0.5166 -0.0839  0.0862
 1874TIP3    H127113   5.499   6.822   3.168 -0.3988 -0.5151  0.5829
 1874TIP3    H227114   5.562   6.704   3.097  0.4801 -0.0986  0.6613
 1875TIP3   OH227115   0.906   2.621   6.023  0.4379  0.7658  0.3098
 1875TIP3    H127116   0.915   2.696   5.965 -1.3023  1.2993  0.6474
 1875TIP3    H227117   0.958   2.552   5.982 -0.9045  1.0427 -2.0367
 1876TIP3   OH227118   2.515   1.815  15.574 -0.2737 -0.0521  0.1680
 1876TIP3    H127119   2.469   1.886  15.529 -1.1286 -1.4729 -1.2531
 1876TIP3    H227120   2.589   1.795  15.518 -0.1890 -0.4830  0.4322
 1877TIP3   OH227121   5.439   4.063  14.684 -0.1433  1.0215  0.6761
 1877TIP3    H127122   5.444   4.041  14.777  0.7825 -1.2459  0.1504
 1877TIP3    H227123   5.510   4.126  14.671 -1.3210  2.6495  1.7784
 1878TIP3   OH227124   3.793   6.074   3.747  0.2648 -0.6713  0.2773
 1878TIP3    H127125   3.707   6.111   3.765  1.1040  1.0870  0.8447
 1878TIP3    H227126   3.775   5.995   3.695 -1.7209 -0.8914  1.2167
 1879TIP3   OH227127   5.609   6.346   6.180  0.2101 -0.5285  0.1940
 1879TIP3    H127128   5.532   6.364   6.235 -0.3839 -1.4935 -0.2834
 1879TIP3    H227129   5.599   6.405   6.105 -0.2012 -0.8174  0.0169
 1880TIP3   OH227130   2.160   4.715  13.578  0.3697  0.2312 -0.2918
 1880TIP3    H127131   2.105   4.641  13.603 -1.2656  0.9474 -1.5962
 1880TIP3    H227132   2.184   4.756  13.661 -0.7259 -0.3559  0.3282
 1881TIP3   OH227133   5.913   5.982  13.395  0.4767  0.8496  0.1970
 1881TIP3    H127134   5.861   5.996  13.474  0.8201  2.0640  0.2254
 1881TIP3    H227135   5.850   5.952  13.330  0.4196 -1.7412  1.2988
 1882TIP3   OH227136   3.193   2.971   0.164  0.6738  0.1376  0.3007
 1882TIP3    H127137   3.273   2.965   0.216  0.2957 -1.4238  0.7301
 1882TIP3    H227138   3.203   2.904   0.097 -2.1208 -3.4202  3.0383
 1883TIP3   OH227139   5.670   2.871  14.678 -0.5192 -0.4012  0.0651
 1883TIP3    H127140   5.708   2.948  14.720 -1.6143 -0.5553  1.4133
 1883TIP3    H227141   5.737   2.803  14.687 -0.1829 -0.0400  0.3243
 1884TIP3   OH227142   1.479   3.617   3.604  0.6954  0.2265  0.1303
 1884TIP3    H127143   1.481   3.617   3.700  0.3638  0.6528  0.1406
 1884TIP3    H227144   1.390   3.590   3.582  0.9450 -0.4374 -0.0674
 1885TIP3   OH227145   0.692   6.252   4.452 -0.5142 -0.0193  0.3723
 1885TIP3    H127146   0.757   6.182   4.462  0.6943  0.6761 -1.9861
 1885TIP3    H227147   0.617   6.222   4.503  1.2109 -1.3814  2.2751
 1886TIP3   OH227148   3.226   6.481  15.664 -0.6787  0.2913  0.0946
 1886TIP3    H127149   3.228   6.574  15.640 -0.0233 -0.2900 -2.4292
 1886TIP3    H227150   3.317   6.453  15.657 -1.0291 -0.7894 -0.4114
 1887TIP3   OH227151   0.270   4.783  15.771  0.2271 -0.1636 -0.2794
 1887TIP3    H127152   0.284   4.873  15.800  0.6025 -0.2574 -0.1652
 1887TIP3    H227153   0.236   4.792  15.682  2.7545  0.0669 -1.3211
 1888TIP3   OH227154   2.018   0.969   4.286  0.2790 -0.2816  0.2061
 1888TIP3    H127155   1.954   1.006   4.225 -0.5045  0.9493  1.6986
 1888TIP3    H227156   2.103   0.989   4.248 -0.1833 -1.2988 -1.4496
 1889TIP3   OH227157   5.036   0.045   5.591 -0.4542 -1.1979 -0.1481
 1889TIP3    H127158   4.992  -0.015   5.531 -0.6721 -2.8193  1.5373
 1889TIP3    H227159   5.107  -0.008   5.629 -1.1302 -0.6717  1.9620
 1890TIP3   OH227160   5.572   0.925  16.197  0.1408  0.0062 -0.3672
 1890TIP3    H127161   5.649   0.882  16.162  0.5597 -1.6843  2.3575
 1890TIP3    H227162   5.583   0.921  16.292 -1.6963  2.7794  0.0789
 1891TIP3   OH227163   0.430   0.261   1.141  0.0270  0.4058  0.1421
 1891TIP3    H127164   0.414   0.194   1.208  1.3481  0.1390  0.2229
 1891TIP3    H227165   0.523   0.283   1.151  0.6462 -0.6206 -2.4664
 1892TIP3   OH227166   3.650   5.224  12.604  0.2401  0.6158 -0.5540
 1892TIP3    H127167   3.588   5.254  12.671  1.8159 -0.9765  1.8198
 1892TIP3    H227168   3.614   5.255  12.521 -2.0629  2.3795  0.9803
 1893TIP3   OH227169   6.147   4.320  13.448 -0.4656  0.2309 -0.4607
 1893TIP3    H127170   6.193   4.339  13.366  1.9278 -1.6469  0.3060
 1893TIP3    H227171   6.178   4.388  13.508  2.3286 -1.5559  0.3179
 1894TIP3   OH227172   1.860   0.531  15.531 -0.6951 -0.0631  0.0194
 1894TIP3    H127173   1.819   0.617  15.536 -1.1975 -0.2549 -0.5332
 1894TIP3    H227174   1.842   0.502  15.441 -1.0009 -0.9660  0.3652
 1895TIP3   OH227175   0.005   3.267   1.774 -0.0484  0.2463  0.3828
 1895TIP3    H127176   0.030   3.357   1.751  0.4013  0.1379  0.4298
 1895TIP3    H227177  -0.090   3.265   1.766  0.0185  0.4604 -0.5777
 1896TIP3   OH227178   1.793   0.416  14.022 -0.3966  0.1563  0.6640
 1896TIP3    H127179   1.833   0.497  13.990 -0.1366  0.0226  0.6481
 1896TIP3    H227180   1.755   0.375  13.945  0.3860 -0.2555  0.4877
 1897TIP3   OH227181   2.918   0.668   5.213 -0.7515  0.1908 -0.2592
 1897TIP3    H127182   2.948   0.586   5.254  0.7608 -0.5083 -2.5496
 1897TIP3    H227183   2.992   0.728   5.223 -1.4592  0.9579  0.4903
 1898TIP3   OH227184   5.517   4.522  15.236 -0.7549 -0.4080  0.2380
 1898TIP3    H127185   5.454   4.582  15.276 -1.4601 -1.1050  0.1883
 1898TIP3    H227186   5.595   4.576  15.222 -0.7540  0.0683  1.8060
 1899TIP3   OH227187   6.836   4.108   5.278 -0.5401 -0.4811  0.0789
 1899TIP3    H127188   6.853   4.113   5.184  2.6547  0.2510  0.6003
 1899TIP3    H227189   6.788   4.189   5.298  0.5832  0.3745 -0.6108
 1900TIP3   OH227190   5.277   5.196   1.916 -0.1046 -0.3446 -0.2912
 1900TIP3    H127191   5.282   5.186   1.821  1.8888  1.2557 -0.4262
 1900TIP3    H227192   5.234   5.116   1.946 -1.3216 -0.6427 -2.5647
 1901TIP3   OH227193   2.652   5.164  15.932 -0.0582 -0.1935  0.4445
 1901TIP3    H127194   2.619   5.246  15.970  0.5738 -0.0669  0.7339
 1901TIP3    H227195   2.747   5.177  15.927 -0.1588  0.1661 -2.0052
 1902TIP3   OH227196   3.913   6.672   2.293 -0.0856 -0.6351  0.3075
 1902TIP3    H127197   3.935   6.747   2.237  0.6007  0.1843  1.6022
 1902TIP3    H227198   3.980   6.674   2.362 -1.1801 -1.2971  1.4330
 1903TIP3   OH227199   2.749   0.747  13.854 -1.0144  0.6013 -0.8204
 1903TIP3    H127200   2.790   0.785  13.776  0.7063  0.8439  0.1548
 1903TIP3    H227201   2.669   0.799  13.866 -0.1443  2.0845 -1.1356
 1904TIP3   OH227202   5.781   1.888   1.941  0.9087 -0.4412 -0.3658
 1904TIP3    H127203   5.707   1.927   1.893  0.4874 -0.4696  0.2550
 1904TIP3    H227204   5.858   1.915   1.891  0.9982  3.9182  1.6029
 1905TIP3   OH227205   3.055   1.376  15.086  0.1188  0.1634 -0.2190
 1905TIP3    H127206   2.983   1.313  15.092  0.2498  0.0620  0.3050
 1905TIP3    H227207   3.120   1.332  15.031  0.3335 -0.2756  0.3886
 1906TIP3   OH227208   6.741   3.233   1.295  0.2857  1.1110  0.0760
 1906TIP3    H127209   6.790   3.300   1.343  0.2634  1.6077 -0.5859
 1906TIP3    H227210   6.649   3.260   1.304  0.2189  0.7797  0.3999
 1907TIP3   OH227211   5.024   1.982  12.662  0.1616  0.0160 -0.3659
 1907TIP3    H127212   5.016   2.066  12.706 -3.2750 -0.6192  0.5313
 1907TIP3    H227213   5.008   2.001  12.570  0.5691  0.4931 -0.3396
 1908TIP3   OH227214   5.616   4.406   5.164  0.3332  0.6266  0.1782
 1908TIP3    H127215   5.709   4.383   5.172  0.1731  0.4296  1.6990
 1908TIP3    H227216   5.602   4.473   5.230 -0.7302  0.2611  0.3347
 1909TIP3   OH227217   6.278   1.522   1.792 -0.0756  0.2330  0.2289
 1909TIP3    H127218   6.285   1.450   1.854  0.1972  0.9349  1.0355
 1909TIP3    H227219   6.265   1.480   1.707  0.1600 -0.7589  0.6730
 1910TIP3   OH227220   0.710   5.814   4.227 -0.0310  0.0270 -0.1112
 1910TIP3    H127221   0.760   5.766   4.162  0.8215  0.9120 -0.1296
 1910TIP3    H227222   0.728   5.770   4.310  1.3357  0.7323 -0.0113
 1911TIP3   OH227223   4.943   2.763  14.719 -0.6392  0.3256 -0.3414
 1911TIP3    H127224   4.883   2.756  14.644 -1.5249 -0.7699  0.4523
 1911TIP3    H227225   4.940   2.856  14.742  0.0408  0.7900 -1.9620
 1912TIP3   OH227226   5.703   5.182  12.481 -0.0665  0.8168 -0.1135
 1912TIP3    H127227   5.785   5.152  12.442 -0.3348 -0.5844  0.3455
 1912TIP3    H227228   5.635   5.149  12.423 -0.3941  0.0712  0.6730
 1913TIP3   OH227229   4.205   0.675   6.035  0.0981  0.0507 -0.5425
 1913TIP3    H127230   4.109   0.679   6.040  0.1671  0.5316  0.4710
 1913TIP3    H227231   4.230   0.613   6.103  0.6042  1.2684  0.4275
 1914TIP3   OH227232   3.676   5.556   5.045 -0.0383 -0.1252  0.2665
 1914TIP3    H127233   3.708   5.469   5.020  0.2541  0.0166  0.1353
 1914TIP3    H227234   3.649   5.546   5.136  1.8447  0.1137  0.9048
 1915TIP3   OH227235   2.369   6.636  15.426  0.1018  0.0777 -0.4636
 1915TIP3    H127236   2.381   6.622  15.520 -1.1734  0.5407 -0.2083
 1915TIP3    H227237   2.392   6.728  15.412 -0.1353  0.1309 -0.5158
 1916TIP3   OH227238   3.745   6.179  15.734 -0.2612 -0.4583 -0.2735
 1916TIP3    H127239   3.743   6.224  15.819  0.7854  0.1863 -0.5687
 1916TIP3    H227240   3.681   6.109  15.743 -2.4846  1.4821 -0.0443
 1917TIP3   OH227241   0.535   5.351  16.866  0.1597  0.1276 -0.1128
 1917TIP3    H127242   0.585   5.288  16.813 -0.2451 -0.2444 -0.0597
 1917TIP3    H227243   0.556   5.328  16.956 -0.7652 -0.5833 -0.0707
 1918TIP3   OH227244   5.842   1.761  16.731 -0.4892  0.0780  0.1730
 1918TIP3    H127245   5.787   1.729  16.803 -0.1522  1.9790  1.3482
 1918TIP3    H227246   5.929   1.772  16.770  0.2142 -0.7466 -1.0839
 1919TIP3   OH227247   2.506   2.593  14.948  0.0320  0.0176 -0.2583
 1919TIP3    H127248   2.574   2.566  15.009 -1.1539 -1.8789  0.3209
 1919TIP3    H227249   2.443   2.641  15.002  0.5190  1.1482 -0.6575
 1920TIP3   OH227250   4.260   3.977  12.996  0.5311  0.2242  0.3462
 1920TIP3    H127251   4.285   3.951  12.908  0.2152  0.1715  0.2720
 1920TIP3    H227252   4.343   3.994  13.041  0.6627  1.0711 -0.2072
 1921TIP3   OH227253   2.236   1.422  11.964 -0.2042  0.0094 -0.5659
 1921TIP3    H127254   2.259   1.481  12.036 -0.6591  0.1025 -0.4984
 1921TIP3    H227255   2.259   1.335  11.996  0.3868  0.1355 -0.6335
 1922TIP3   OH227256   0.707   4.544  17.154  0.1006 -0.1933 -0.4533
 1922TIP3    H127257   0.769   4.522  17.085  2.0878  0.5262  1.0164
 1922TIP3    H227258   0.671   4.460  17.182  2.3039 -0.9515  0.3318
 1923TIP3   OH227259   4.437   3.882  13.262  0.3983  0.5992 -0.2183
 1923TIP3    H127260   4.458   3.790  13.276 -2.2500  0.1512  1.5543
 1923TIP3    H227261   4.492   3.929  13.325  2.0055  0.3153 -1.3572
 1924TIP3   OH227262   4.847   3.037   0.080  0.0674  0.1035 -0.4367
 1924TIP3    H127263   4.807   2.951   0.076 -0.6006  0.3836  0.0317
 1924TIP3    H227264   4.941   3.020   0.091 -0.2432 -0.5888  1.5816
 1925TIP3   OH227265   3.590   5.331  15.495 -0.3048 -0.7423  0.3057
 1925TIP3    H127266   3.629   5.245  15.481 -1.0466 -1.2741  1.3627
 1925TIP3    H227267   3.614   5.354  15.585  0.4786  0.4829 -0.2009
 1926TIP3   OH227268   6.602   2.738  12.494 -0.0008 -0.5443 -0.3411
 1926TIP3    H127269   6.525   2.769  12.447 -1.8526  1.1537  3.3956
 1926TIP3    H227270   6.608   2.645  12.472 -3.2374 -0.7673 -0.7369
 1927TIP3   OH227271   3.024   6.468  16.430  0.3885 -0.4294  0.0308
 1927TIP3    H127272   3.087   6.401  16.457  0.8094 -0.1441 -0.2288
 1927TIP3    H227273   2.940   6.422  16.427  0.3226 -0.4742  1.7936
 1928TIP3   OH227274   0.485   0.467   5.550 -0.1709  0.2610  0.1453
 1928TIP3    H127275   0.558   0.407   5.535 -0.5241 -0.2949  0.6028
 1928TIP3    H227276   0.418   0.413   5.593 -0.6498  0.8867  0.1991
 1929TIP3   OH227277   5.277   0.922   0.334 -0.5341 -0.3059 -0.4729
 1929TIP3    H127278   5.251   0.968   0.254  2.1474  0.3493 -1.0674
 1929TIP3    H227279   5.334   0.852   0.303  3.1761  1.8365  0.8421
 1930TIP3   OH227280   0.420   1.925  13.639  0.0133 -0.5559  0.5997
 1930TIP3    H127281   0.485   1.958  13.701  1.3614  1.1896 -1.5614
 1930TIP3    H227282   0.355   1.995  13.634  0.6313 -0.0323 -0.8596
 1931TIP3   OH227283   5.340   1.700  14.170  0.3288 -0.3434 -0.0416
 1931TIP3    H127284   5.350   1.731  14.260  0.9657 -2.5247  0.6864
 1931TIP3    H227285   5.429   1.688  14.138  0.1246  0.9878 -1.2258
 1932TIP3   OH227286   5.654   5.900  16.977 -0.4199  0.0057  0.0986
 1932TIP3    H127287   5.592   5.852  16.922 -2.4543  1.0356  1.4122
 1932TIP3    H227288   5.656   5.988  16.940 -2.3445  0.9121  1.9907
 1933TIP3   OH227289   0.219   1.904  16.330  0.0975  0.0014 -0.4704
 1933TIP3    H127290   0.218   1.944  16.417  1.9789  0.6556 -0.7118
 1933TIP3    H227291   0.146   1.945  16.284 -0.9720 -0.4002  0.7836
 1934TIP3   OH227292   6.663   6.780  17.074  0.3330  0.6094 -0.3433
 1934TIP3    H127293   6.747   6.748  17.043  0.4445  0.3610  0.2009
 1934TIP3    H227294   6.646   6.858  17.022 -0.7905 -1.2357 -2.9882
 1935TIP3   OH227295   2.818   0.011  16.967 -0.0244  0.3062  0.1866
 1935TIP3    H127296   2.801   0.075  16.897 -1.6763  0.8324  1.0105
 1935TIP3    H227297   2.857  -0.064  16.922 -1.5056  0.4174 -1.4074
 1936TIP3   OH227298   6.677   0.433  16.088 -0.0569 -0.2657 -0.2047
 1936TIP3    H127299   6.671   0.355  16.143  0.1672 -1.2469 -1.5324
 1936TIP3    H227300   6.767   0.464  16.100  0.3588 -1.1748 -0.9337
 1937TIP3   OH227301   4.925   2.541  16.624 -0.1790 -0.2718 -0.2723
 1937TIP3    H127302   4.891   2.560  16.711 -1.7493  0.5825 -1.0305
 1937TIP3    H227303   4.853   2.498  16.578 -0.2696  1.4741 -1.9012
 1938TIP3   OH227304   1.462   2.121  12.907 -0.4835 -0.2802  0.1670
 1938TIP3    H127305   1.464   2.028  12.928  2.0173 -0.6009 -1.1437
 1938TIP3    H227306   1.405   2.127  12.831  0.8373 -1.0815 -0.9277
 1939TIP3   OH227307   2.400   1.837  12.693  0.4712 -0.2221  1.0121
 1939TIP3    H127308   2.411   1.932  12.693 -1.1761  0.0153  0.1963
 1939TIP3    H227309   2.481   1.803  12.732  1.6410  1.4433  0.1739
 1940TIP3   OH227310   4.080   6.510  11.591  0.0237  0.5977 -0.0510
 1940TIP3    H127311   4.058   6.567  11.517 -3.4165 -1.2207 -0.6734
 1940TIP3    H227312   4.107   6.569  11.660 -1.1643  2.8168 -1.3624
 1941TIP3   OH227313   2.636   2.842   3.166  0.1275 -0.0755  0.2819
 1941TIP3    H127314   2.603   2.779   3.101  0.8389 -0.9662  0.7607
 1941TIP3    H227315   2.570   2.840   3.236  0.5504 -0.9324  0.6758
 1942TIP3   OH227316   5.394   1.717   6.708 -0.3251  0.2772 -0.1275
 1942TIP3    H127317   5.307   1.678   6.701 -1.0639  1.6162  1.2119
 1942TIP3    H227318   5.391   1.793   6.650  0.0921  0.1090 -0.3755
 1943TIP3   OH227319   0.127   3.611  12.914 -0.4036  0.1732  0.0345
 1943TIP3    H127320   0.135   3.705  12.898 -0.4947  0.7567  2.9147
 1943TIP3    H227321   0.217   3.580  12.921 -0.3816  0.5363  1.4541
 1944TIP3   OH227322   6.325   3.398   5.193 -0.0380 -0.1970 -0.5082
 1944TIP3    H127323   6.259   3.418   5.260 -0.9665 -1.3315 -1.0383
 1944TIP3    H227324   6.274   3.365   5.119  0.9075  1.4901 -1.9897
 1945TIP3   OH227325   2.416   5.152  13.601  0.0658  0.7520 -0.2282
 1945TIP3    H127326   2.395   5.197  13.682 -1.1963  1.0658 -0.7065
 1945TIP3    H227327   2.455   5.219  13.545  1.5954  0.3787  0.3308
 1946TIP3   OH227328   2.655   3.723   2.888  0.5894  0.4633  0.3059
 1946TIP3    H127329   2.599   3.672   2.830 -0.1023  1.6085 -0.0748
 1946TIP3    H227330   2.594   3.769   2.946  1.1380  1.3269  0.2262
 1947TIP3   OH227331   4.255   1.055   2.873  1.0037 -0.6117 -0.0785
 1947TIP3    H127332   4.206   1.110   2.935  0.3017 -0.7454 -0.5034
 1947TIP3    H227333   4.265   1.110   2.795 -2.6738 -2.1176 -1.8383
 1948TIP3   OH227334   5.379   6.014  14.953  0.1133 -0.3473 -0.0296
 1948TIP3    H127335   5.409   5.947  14.891  0.0845  0.2899 -0.7511
 1948TIP3    H227336   5.418   5.989  15.036  1.6625 -0.2414 -0.6785
 1949TIP3   OH227337   4.529   4.431   5.944 -0.1514 -0.3118 -0.7387
 1949TIP3    H127338   4.472   4.374   5.996  0.1413  1.1634  1.3441
 1949TIP3    H227339   4.614   4.387   5.945 -0.3037 -0.6041 -0.5029
 1950TIP3   OH227340   0.842   5.420  16.896  0.3389 -0.3924  0.2049
 1950TIP3    H127341   0.932   5.401  16.867 -0.1679 -0.3405 -1.4951
 1950TIP3    H227342   0.791   5.346  16.864 -0.5225  0.4712 -0.4395
 1951TIP3   OH227343   3.663   3.548  13.123 -0.2548 -0.0360 -0.1163
 1951TIP3    H127344   3.731   3.493  13.162 -0.8610  0.1962  1.3356
 1951TIP3    H227345   3.709   3.630  13.102  0.0416 -0.0745  0.3565
 1952TIP3   OH227346   6.200   6.058   3.885 -0.2562  0.7838  0.0607
 1952TIP3    H127347   6.216   5.992   3.818 -2.3965  0.0653  0.1712
 1952TIP3    H227348   6.118   6.100   3.859 -0.4178  1.4463  1.5000
 1953TIP3   OH227349   5.777   4.423   4.219  0.5422 -0.1778 -0.2310
 1953TIP3    H127350   5.828   4.343   4.231 -1.0437 -1.2778 -0.4839
 1953TIP3    H227351   5.754   4.423   4.126  0.2741  0.4092 -0.1696
 1954TIP3   OH227352   1.294   1.965   3.696  0.0539  0.1867 -0.0670
 1954TIP3    H127353   1.348   1.944   3.620 -0.5274 -0.4362 -0.3200
 1954TIP3    H227354   1.274   2.058   3.686  1.4157  0.5438  0.2603
 1955TIP3   OH227355   6.500   5.077  15.620  0.0120 -0.1596  0.6786
 1955TIP3    H127356   6.549   5.149  15.659  0.7874 -0.2761 -0.0621
 1955TIP3    H227357   6.441   5.048  15.690  1.5152 -0.4970  1.8491
 1956TIP3   OH227358   5.043   3.566   2.124  0.3469 -0.4680  0.1437
 1956TIP3    H127359   4.990   3.571   2.045  0.5592  2.0772  0.0794
 1956TIP3    H227360   4.990   3.516   2.186 -0.1222 -1.8941 -1.3497
 1957TIP3   OH227361   0.209   0.289  12.388 -0.1658  0.4898  0.6389
 1957TIP3    H127362   0.296   0.324  12.367  0.0889 -0.1516  0.6092
 1957TIP3    H227363   0.198   0.308  12.481  0.5800 -0.5961  0.9767
 1958TIP3   OH227364   2.774   4.150  15.226  0.4697 -0.1533  0.5232
 1958TIP3    H127365   2.830   4.073  15.228  0.3444 -0.2578  2.3130
 1958TIP3    H227366   2.700   4.127  15.170  1.8607 -0.2372 -1.3655
 1959TIP3   OH227367   0.105   2.082   3.607 -0.1283  0.3702  0.3011
 1959TIP3    H127368   0.020   2.127   3.604  0.0851  0.8192  0.7940
 1959TIP3    H227369   0.155   2.130   3.673  0.2181 -0.4072  0.6190
 1960TIP3   OH227370   1.173   3.402  14.441 -0.5347  0.3847  0.2896
 1960TIP3    H127371   1.200   3.336  14.377 -0.0414 -0.0815  0.9757
 1960TIP3    H227372   1.250   3.415  14.496 -0.9415  0.8267  0.7579
 1961TIP3   OH227373   3.705   1.724   3.141  0.2898  0.4172  0.1039
 1961TIP3    H127374   3.717   1.781   3.217 -1.6983  2.4745 -0.9853
 1961TIP3    H227375   3.732   1.777   3.067  0.8086 -1.0238 -0.7705
 1962TIP3   OH227376   2.292   6.615   2.000 -0.0764  0.3043  0.1238
 1962TIP3    H127377   2.242   6.541   1.966 -0.5636  0.3759  0.6705
 1962TIP3    H227378   2.227   6.684   2.015  0.4320  0.9940 -0.7734
 1963TIP3   OH227379   0.564   0.702   0.642  0.5197  0.2351  0.3291
 1963TIP3    H127380   0.469   0.703   0.632  0.3761  3.3360  0.9815
 1963TIP3    H227381   0.597   0.738   0.560  1.3875 -2.8464 -0.8047
 1964TIP3   OH227382   3.206   6.197   0.542  0.3067 -0.2406 -0.3026
 1964TIP3    H127383   3.162   6.232   0.464  0.3746 -1.0619 -0.7181
 1964TIP3    H227384   3.161   6.114   0.560  2.4441 -1.7613 -1.5004
 1965TIP3   OH227385   2.963   2.336  16.738 -0.4124  0.0803 -0.4513
 1965TIP3    H127386   2.954   2.420  16.783  0.5161 -0.3712  0.6232
 1965TIP3    H227387   3.046   2.343  16.691  0.4534 -0.7609  0.8834
 1966TIP3   OH227388   5.644   4.552  16.514 -0.3586 -0.6493  0.0645
 1966TIP3    H127389   5.655   4.482  16.450  1.1705 -0.3712 -0.0143
 1966TIP3    H227390   5.707   4.531  16.583 -1.0131 -0.2068  0.8149
 1967TIP3   OH227391   3.093   1.274  14.256 -0.1903 -0.8169  0.5898
 1967TIP3    H127392   3.099   1.283  14.351  0.9583 -1.4255  0.5962
 1967TIP3    H227393   3.029   1.204  14.243 -1.6677  0.4321  0.8346
 1968TIP3   OH227394   6.708   1.411   0.053  0.4462  0.0829  0.0578
 1968TIP3    H127395   6.648   1.397   0.125  0.4753 -0.2712  0.0132
 1968TIP3    H227396   6.700   1.505   0.032 -1.2437 -0.2590 -0.9750
 1969TIP3   OH227397   4.267   1.910  11.635 -0.5521  0.0356  0.8838
 1969TIP3    H127398   4.176   1.929  11.658 -0.9582 -0.5165 -0.2527
 1969TIP3    H227399   4.295   1.845  11.700 -1.2255 -0.4120  0.7299
 1970TIP3   OH227400   6.390   5.548  17.060 -0.5155 -0.4971 -1.0369
 1970TIP3    H127401   6.418   5.628  17.015 -1.1687  1.3824  1.6381
 1970TIP3    H227402   6.454   5.537  17.131 -3.2227  0.7125  1.7805
 1971TIP3   OH227403   5.252   3.342  13.095  0.0584  0.1773  0.2001
 1971TIP3    H127404   5.273   3.354  13.188 -1.3618  1.2828  0.4266
 1971TIP3    H227405   5.224   3.251  13.088 -1.6704  0.5780  1.2979
 1972TIP3   OH227406   0.488   2.830   3.787 -0.0755 -0.0941  0.0874
 1972TIP3    H127407   0.487   2.793   3.875  0.3554  0.2090  0.2224
 1972TIP3    H227408   0.579   2.857   3.773 -0.5868  2.0030  0.4797
 1973TIP3   OH227409   2.989   0.507   5.417  0.6768 -0.0185  0.2060
 1973TIP3    H127410   2.922   0.507   5.486 -0.5504  0.1109 -0.9440
 1973TIP3    H227411   3.064   0.550   5.458  0.9770 -2.3321  2.3397
 1974TIP3   OH227412   6.510   2.450  13.572 -0.2877  0.3456  0.1213
 1974TIP3    H127413   6.468   2.459  13.487 -0.2060 -3.4125 -0.5008
 1974TIP3    H227414   6.458   2.505  13.630 -1.5954  1.4443 -1.9625
 1975TIP3   OH227415   4.956   4.935  10.674  0.4917 -0.4804 -0.1089
 1975TIP3    H127416   4.892   4.923  10.744 -0.1129  1.8537 -0.1837
 1975TIP3    H227417   4.959   4.850  10.630 -0.9595 -1.2732  1.2194
 1976TIP3   OH227418   6.541   1.286  11.858  0.1310  0.4968 -0.2516
 1976TIP3    H127419   6.627   1.266  11.895 -0.1976 -1.6665 -0.5352
 1976TIP3    H227420   6.515   1.205  11.814 -2.8205  0.4494  1.3433
 1977TIP3   OH227421   2.890   5.437   3.479  0.5347  0.5343  0.2031
 1977TIP3    H127422   2.888   5.361   3.537  1.9148 -0.0042 -0.4231
 1977TIP3    H227423   2.842   5.504   3.527 -0.9960 -0.7948  0.6489
 1978TIP3   OH227424   4.123   5.853   3.846 -0.2965  0.1996  0.7368
 1978TIP3    H127425   4.101   5.890   3.761 -0.3018  0.9668  1.0635
 1978TIP3    H227426   4.153   5.764   3.827 -1.4309 -0.0528  0.0564
 1979TIP3   OH227427   0.613   5.899  14.636 -0.4399  0.4261  0.2928
 1979TIP3    H127428   0.690   5.842  14.635  0.0420  1.0740 -0.6872
 1979TIP3    H227429   0.562   5.869  14.711 -1.3485 -2.8323 -1.4352
 1980TIP3   OH227430   6.004   2.864   0.134 -0.1806 -0.1514 -0.2077
 1980TIP3    H127431   6.029   2.864   0.041 -1.4415  0.2615 -0.5689
 1980TIP3    H227432   6.074   2.913   0.177 -0.3678  1.0418 -1.1885
 1981TIP3   OH227433   1.132   1.115  14.903  0.0850 -0.2520  0.0086
 1981TIP3    H127434   1.090   1.093  14.820  1.5726 -2.4448 -0.2493
 1981TIP3    H227435   1.175   1.199  14.887  0.7375 -0.8512 -1.6238
 1982TIP3   OH227436   5.178   5.396  15.704  0.6220  0.3136  1.0798
 1982TIP3    H127437   5.257   5.424  15.751  0.0270  0.6786  1.8968
 1982TIP3    H227438   5.109   5.400  15.770  0.0692 -0.8018  0.5801
 1983TIP3   OH227439   2.846   3.184   0.146  0.0186 -0.2137  0.2654
 1983TIP3    H127440   2.807   3.135   0.074  1.3820  0.4765 -1.0223
 1983TIP3    H227441   2.868   3.119   0.212 -0.1561 -1.0410 -0.4837
 1984TIP3   OH227442   5.932   2.819  14.274  0.0259 -0.7372 -0.1105
 1984TIP3    H127443   5.895   2.875  14.343  1.1359 -0.4658  0.2879
 1984TIP3    H227444   5.898   2.856  14.193  0.5877  0.4341  0.1584
 1985TIP3   OH227445   2.238   4.707   3.937  0.4569 -0.8245 -0.7167
 1985TIP3    H127446   2.230   4.685   4.030 -1.0219 -3.1168 -1.2901
 1985TIP3    H227447   2.149   4.698   3.903  0.8821  0.4691 -2.2922
 1986TIP3   OH227448   0.149   5.855   0.340  0.1383 -0.4118 -0.0953
 1986TIP3    H127449   0.177   5.885   0.427  1.0562  2.0006 -1.1471
 1986TIP3    H227450   0.222   5.801   0.310 -0.4089 -1.7053  0.7857
 1987TIP3   OH227451   3.138   6.216   3.004  0.1533 -0.5654  0.0102
 1987TIP3    H127452   3.088   6.271   2.944  0.0555 -0.9597 -0.2711
 1987TIP3    H227453   3.216   6.268   3.025  0.2376 -0.4697 -0.5363
 1988TIP3   OH227454   4.172   1.828   4.567  0.0847  0.4078 -0.0764
 1988TIP3    H127455   4.189   1.827   4.661  1.6566  2.1086 -0.2881
 1988TIP3    H227456   4.077   1.814   4.559 -0.1140  0.5503  1.7620
 1989TIP3   OH227457   2.219   0.368  11.941  0.4187 -0.0079 -0.0181
 1989TIP3    H127458   2.203   0.274  11.948  0.6620 -0.2241 -1.7287
 1989TIP3    H227459   2.304   0.375  11.897  0.6316  1.0262  0.5148
 1990TIP3   OH227460   4.977   2.794  12.208 -0.2626 -0.4708  0.0098
 1990TIP3    H127461   4.954   2.725  12.269  0.5200  1.6183  2.8978
 1990TIP3    H227462   5.059   2.764  12.167 -0.2755 -1.5160  0.7204
 1991TIP3   OH227463   6.547   3.966   2.546  0.0187 -0.4193 -0.1868
 1991TIP3    H127464   6.532   3.972   2.452 -1.7894  1.6536  0.1462
 1991TIP3    H227465   6.465   3.931   2.581  1.6282 -3.8653  0.4541
 1992TIP3   OH227466   2.680   4.598   4.235 -0.0821 -0.0552  0.2633
 1992TIP3    H127467   2.772   4.616   4.213  0.1121 -1.3865 -0.1014
 1992TIP3    H227468   2.631   4.663   4.184  0.6981  2.1465  2.1286
 1993TIP3   OH227469   1.663   1.141   3.538 -0.0555 -0.1294  0.0061
 1993TIP3    H127470   1.702   1.084   3.604  0.1325 -1.2493 -1.0145
 1993TIP3    H227471   1.590   1.183   3.583  1.1633  0.5623  1.4139
 1994TIP3   OH227472   6.551   6.594   4.274  0.1493  0.1522  0.3070
 1994TIP3    H127473   6.632   6.556   4.307 -0.2096 -1.8458 -0.9611
 1994TIP3    H227474   6.492   6.594   4.350  0.8078  0.0970  0.8269
 1995TIP3   OH227475   0.956   5.002   5.691 -0.3942 -0.3803 -0.3552
 1995TIP3    H127476   0.868   4.968   5.707 -0.2352 -0.5393  0.1840
 1995TIP3    H227477   1.002   4.930   5.647 -0.6309 -0.1771 -0.9478
 1996TIP3   OH227478   0.018   4.090  11.801  0.2671 -0.1012 -0.1031
 1996TIP3    H127479  -0.034   4.067  11.878  1.1679  0.5354  0.7221
 1996TIP3    H227480   0.063   4.170  11.826  0.7014  0.0327 -1.2527
 1997TIP3   OH227481   4.180   5.966   0.893 -0.0920 -0.3657 -0.2391
 1997TIP3    H127482   4.113   5.898   0.905 -0.4689 -0.3815 -2.1234
 1997TIP3    H227483   4.137   6.032   0.839  0.8953  0.4277 -0.0779
 1998TIP3   OH227484   0.543   4.149  14.074 -0.3925 -0.3187  0.5991
 1998TIP3    H127485   0.483   4.083  14.109  0.5068 -1.5352 -0.1018
 1998TIP3    H227486   0.497   4.232  14.088 -2.3444 -1.2169 -0.0923
 1999TIP3   OH227487   5.828   1.086   2.562  0.9478 -0.4707  0.0802
 1999TIP3    H127488   5.805   0.995   2.545  0.7816 -0.5714  0.7991
 1999TIP3    H227489   5.855   1.121   2.477 -0.9333 -0.6111 -0.6319
 2000TIP3   OH227490   4.238   2.541  15.652 -0.3500 -0.0097  0.0262
 2000TIP3    H127491   4.207   2.509  15.567  0.9145 -2.1552  0.2954
 2000TIP3    H227492   4.189   2.622  15.666 -0.2808  0.6753 -2.9381
 2001TIP3   OH227493   5.378   3.023  13.886 -0.0994 -0.5379  0.4413
 2001TIP3    H127494   5.390   2.988  13.798  2.6154 -0.2162  0.6066
 2001TIP3    H227495   5.283   3.030  13.896 -0.5040  1.2222 -3.1506
 2002TIP3   OH227496   4.117   1.791   5.998 -0.0892 -0.2302  0.3575
 2002TIP3    H127497   4.034   1.809   5.953 -0.0961  0.6514  0.6982
 2002TIP3    H227498   4.132   1.698   5.984 -0.9649 -0.3294 -0.0097
 2003TIP3   OH227499   5.089   5.140  12.288 -0.0103 -0.2816  0.3217
 2003TIP3    H127500   5.061   5.128  12.197 -0.2554  1.2864  0.1682
 2003TIP3    H227501   5.164   5.200  12.282 -1.7559  2.1688  1.3052
 2004TIP3   OH227502   2.742   2.609   2.208  0.3430  0.1519  0.3318
 2004TIP3    H127503   2.782   2.611   2.295  0.7042  0.2120  0.1656
 2004TIP3    H227504   2.781   2.684   2.162  0.9730 -0.5154 -0.2414
 2005TIP3   OH227505   4.534   5.678  14.400  0.1070 -0.0028  0.4362
 2005TIP3    H127506   4.618   5.720  14.415  1.0789 -1.2243 -1.1634
 2005TIP3    H227507   4.555   5.603  14.343 -2.1953  0.3252 -0.9801
 2006TIP3   OH227508   3.658   1.718  15.441  0.2884  0.1204 -0.6749
 2006TIP3    H127509   3.753   1.707  15.439  0.2749  0.0605 -2.1017
 2006TIP3    H227510   3.640   1.779  15.369 -0.6637  0.8959  0.2005
 2007TIP3   OH227511   2.958   6.492   0.780  0.1286 -0.1529  0.2794
 2007TIP3    H127512   2.890   6.451   0.833 -1.7625 -0.8901 -2.5186
 2007TIP3    H227513   2.927   6.581   0.766  1.1937  0.4055  1.2451
 2008TIP3   OH227514   2.907   5.319   1.374  0.2922  0.3557  0.4662
 2008TIP3    H127515   2.900   5.353   1.463 -0.1775  0.5109  0.3706
 2008TIP3    H227516   2.889   5.225   1.383 -0.0959  0.4314  0.4859
 2009TIP3   OH227517   2.313   6.046  15.724  0.4952 -0.5894  0.2353
 2009TIP3    H127518   2.394   5.999  15.702  0.8050 -0.6605  1.4496
 2009TIP3    H227519   2.264   5.984  15.778 -0.5165 -0.6514 -0.7259
 2010TIP3   OH227520   6.791   0.237   4.565 -0.2113 -0.2368  0.4418
 2010TIP3    H127521   6.744   0.174   4.510  0.7684 -0.0318 -0.6899
 2010TIP3    H227522   6.823   0.186   4.638 -0.3039 -0.8409  0.0684
 2011TIP3   OH227523   0.974   4.963  17.113 -0.5720 -0.2517 -0.1340
 2011TIP3    H127524   1.036   5.035  17.121  0.4692 -1.1210 -0.0209
 2011TIP3    H227525   0.919   4.969  17.191 -0.0893  0.0574  0.1880
 2012TIP3   OH227526   4.713   2.988  12.035  0.0397 -0.1175  0.0086
 2012TIP3    H127527   4.693   3.039  11.956 -1.5022 -1.1432 -0.3086
 2012TIP3    H227528   4.629   2.976  12.078  0.5402 -1.3857  0.6923
 2013TIP3   OH227529   4.696   1.703  11.448  0.0215 -0.5431  0.4822
 2013TIP3    H127530   4.656   1.789  11.447  1.4493  0.1475  0.4303
 2013TIP3    H227531   4.685   1.673  11.539  0.8689  0.3749  0.9106
 2014TIP3   OH227532   4.675   4.256  15.578 -0.0066  0.8031 -0.4515
 2014TIP3    H127533   4.582   4.237  15.586 -0.0888  1.4923  0.3077
 2014TIP3    H227534   4.681   4.328  15.516 -0.0703  1.4397  0.2658
 2015TIP3   OH227535   1.457   4.346  11.895 -0.1038  0.1135 -0.1451
 2015TIP3    H127536   1.464   4.251  11.883  3.0602  0.1821  0.3615
 2015TIP3    H227537   1.399   4.375  11.825  1.1615 -1.8909 -2.1733
 2016TIP3   OH227538   4.921   3.033  16.603  0.2606  0.7028 -0.5141
 2016TIP3    H127539   4.974   2.954  16.593 -0.9249 -0.0037 -1.3900
 2016TIP3    H227540   4.857   3.029  16.532 -1.1323  1.4051  0.6415
 2017TIP3   OH227541   1.509   0.077   3.575  0.4511 -0.0337  0.4221
 2017TIP3    H127542   1.526   0.042   3.662 -0.2399  1.2004  1.0824
 2017TIP3    H227543   1.531   0.005   3.515  0.3237 -1.1120  1.6358
 2018TIP3   OH227544   1.806   1.052   2.314  0.1935 -0.2079  0.2557
 2018TIP3    H127545   1.869   0.988   2.279  0.5715 -0.5539  1.5139
 2018TIP3    H227546   1.750   1.001   2.372 -0.3324  0.3710  0.2646
 2019TIP3   OH227547   2.350   6.670   3.465  0.5321 -0.1688  0.1915
 2019TIP3    H127548   2.351   6.756   3.507 -0.3400 -0.3825  0.6877
 2019TIP3    H227549   2.335   6.687   3.373 -0.2206  0.1812  0.3796
 2020TIP3   OH227550   0.568   2.477   1.270 -0.2552 -0.0129  0.2301
 2020TIP3    H127551   0.473   2.463   1.275  0.0067 -2.2225 -0.0727
 2020TIP3    H227552   0.583   2.499   1.178 -0.4976  0.7123  0.3564
 2021TIP3   OH227553   4.359   3.285  12.700 -0.0584  0.7146 -0.0671
 2021TIP3    H127554   4.284   3.316  12.750 -0.2908 -0.2587  0.2077
 2021TIP3    H227555   4.386   3.204  12.745  0.1786  0.2138 -1.0877
 2022TIP3   OH227556   0.213   2.223   1.898 -0.2831 -0.5841  0.1224
 2022TIP3    H127557   0.131   2.264   1.927  0.5488  0.7870  0.6055
 2022TIP3    H227558   0.217   2.140   1.946 -2.0250 -1.3288 -0.9139
 2023TIP3   OH227559   4.639   4.342  13.742 -0.1666  0.1133 -0.0578
 2023TIP3    H127560   4.672   4.296  13.820  0.1879 -0.8810 -0.7667
 2023TIP3    H227561   4.550   4.308  13.731  0.0520 -0.3256 -0.5119
 2024TIP3   OH227562   5.984   4.498  10.577 -0.4885 -0.4834  0.3607
 2024TIP3    H127563   5.956   4.581  10.615  0.0876  0.2014 -0.6535
 2024TIP3    H227564   5.974   4.511  10.482 -0.6481 -1.6685  0.1987
 2025TIP3   OH227565   1.689   6.019  16.701  0.0992  0.5781 -0.2739
 2025TIP3    H127566   1.676   6.029  16.607  0.5660  0.1412 -0.3874
 2025TIP3    H227567   1.601   6.016  16.737 -0.0880  0.3032 -0.7454
 2026TIP3   OH227568   0.231   3.897  12.117 -0.9545 -0.2598 -0.0498
 2026TIP3    H127569   0.142   3.863  12.134 -1.5194  0.5824 -1.2265
 2026TIP3    H227570   0.218   3.971  12.059  0.3595  1.2515  1.4557
 2027TIP3   OH227571   2.285   3.664   2.950 -0.7182  0.5547  0.8156
 2027TIP3    H127572   2.341   3.624   2.883 -0.3016 -2.2755  2.6806
 2027TIP3    H227573   2.198   3.667   2.910  0.0648  2.0801 -0.9700
 2028TIP3   OH227574   6.076   0.704  16.211  0.0027  0.1300  0.4203
 2028TIP3    H127575   6.047   0.721  16.122  2.5973  0.6402 -0.4140
 2028TIP3    H227576   6.169   0.684  16.203  0.0913 -0.8402  2.9237
 2029TIP3   OH227577   5.039   4.107   5.985 -0.4355 -0.0657  0.1498
 2029TIP3    H127578   5.118   4.075   5.941 -1.2903 -1.3428 -0.5339
 2029TIP3    H227579   5.069   4.180   6.039  1.2367 -0.6208  0.0311
 2030TIP3   OH227580   2.684   4.593   3.450  0.3178  0.1540 -0.7127
 2030TIP3    H127581   2.602   4.553   3.422  0.3098 -0.4089  0.0903
 2030TIP3    H227582   2.712   4.542   3.525 -0.5266  2.6277  1.4360
 2031TIP3   OH227583   0.993   2.807   1.654 -0.3112  0.2951  0.4879
 2031TIP3    H127584   1.002   2.854   1.737 -0.3654 -0.6069  1.0190
 2031TIP3    H227585   0.898   2.799   1.642 -0.3120  0.8918  0.0609
 2032TIP3   OH227586   2.896   6.482   6.360 -0.2816  0.1462  0.4218
 2032TIP3    H127587   2.823   6.432   6.322 -1.3904  0.7421  1.6653
 2032TIP3    H227588   2.959   6.416   6.387 -0.1096 -0.3642 -1.1311
 2033TIP3   OH227589   1.180   3.835  14.657  0.1014  0.0791  0.0803
 2033TIP3    H127590   1.271   3.828  14.687  1.1466 -0.1114 -2.8248
 2033TIP3    H227591   1.137   3.888  14.724  1.8618 -1.3050  2.4463
 2034TIP3   OH227592   2.638   1.126  16.966 -0.2373  0.0361  0.1533
 2034TIP3    H127593   2.584   1.161  17.036  0.7571  4.1417 -0.8749
 2034TIP3    H227594   2.576   1.107  16.895 -0.7454  0.8684  0.3604
 2035TIP3   OH227595   4.937   3.357   4.390 -0.0881 -0.5341  0.4946
 2035TIP3    H127596   5.004   3.328   4.328  0.0230 -1.4796  1.0394
 2035TIP3    H227597   4.987   3.399   4.460 -0.1311 -0.5049  0.5073
 2036TIP3   OH227598   6.195   5.754  16.851  0.9041 -0.6069  0.6012
 2036TIP3    H127599   6.167   5.828  16.905  2.4652 -0.7604  1.6768
 2036TIP3    H227600   6.113   5.714  16.822 -0.0619  2.1960 -1.0531
 2037TIP3   OH227601   6.421   2.754   0.861  0.9196  0.0548 -0.6283
 2037TIP3    H127602   6.476   2.821   0.901  1.5067 -0.5450 -0.4321
 2037TIP3    H227603   6.387   2.704   0.935 -1.0502  1.2711 -0.6206
 2038TIP3   OH227604   4.648   6.474  13.513 -0.0564  0.0302 -0.7731
 2038TIP3    H127605   4.731   6.507  13.479  0.2885  0.1670  0.1584
 2038TIP3    H227606   4.617   6.544  13.570  0.0926 -0.7490  0.2947
 2039TIP3   OH227607   2.837   4.560   1.443  0.1039  0.4131 -0.4874
 2039TIP3    H127608   2.902   4.611   1.492  2.0142 -1.5554 -0.7848
 2039TIP3    H227609   2.781   4.521   1.510  0.7437  0.2246 -0.0556
 2040TIP3   OH227610   0.671   4.815   0.914  0.2643 -0.1208  0.2696
 2040TIP3    H127611   0.579   4.819   0.886  0.1914  0.1849  0.5430
 2040TIP3    H227612   0.709   4.744   0.862  0.6083  1.6230 -2.0086
 2041TIP3   OH227613   2.507   6.277   5.384  0.1619  0.3736 -0.3363
 2041TIP3    H127614   2.551   6.216   5.443  2.0812  0.2874 -1.7425
 2041TIP3    H227615   2.560   6.357   5.387  0.7943  0.0970 -2.4635
 2042TIP3   OH227616   6.611   1.264  15.302 -0.0215 -0.9319 -0.4101
 2042TIP3    H127617   6.695   1.220  15.287  0.2389 -0.6378  0.1710
 2042TIP3    H227618   6.546   1.200  15.272  0.2921 -2.2617  1.5320
 2043TIP3   OH227619   1.997   3.510   4.025 -0.2063 -0.0111 -0.2288
 2043TIP3    H127620   1.985   3.436   4.085 -0.8433  0.4076  0.1665
 2043TIP3    H227621   1.979   3.473   3.938  1.4745 -0.8144 -0.2835
 2044TIP3   OH227622   4.798   3.913  11.774 -0.4651 -0.2445 -0.4922
 2044TIP3    H127623   4.781   3.822  11.797  0.7881 -0.7120 -1.3371
 2044TIP3    H227624   4.881   3.934  11.817 -0.6372  0.4330 -0.4776
 2045TIP3   OH227625   4.845   5.140   1.205 -0.5690  0.1845  0.1652
 2045TIP3    H127626   4.854   5.096   1.120  0.8585  1.4029 -0.3744
 2045TIP3    H227627   4.901   5.090   1.264 -2.4373 -1.3484  0.7401
 2046TIP3   OH227628   5.305   2.256  16.914  0.1174  0.4550  0.0104
 2046TIP3    H127629   5.215   2.250  16.881  0.1674 -0.2012 -0.0121
 2046TIP3    H227630   5.295   2.286  17.004 -0.1995 -0.6971  0.3777
 2047TIP3   OH227631   1.193   1.073   3.550  0.4559  0.3411 -0.4964
 2047TIP3    H127632   1.247   1.010   3.503  0.9279  1.4745 -1.5036
 2047TIP3    H227633   1.128   1.102   3.486 -1.3591 -0.9250  0.6555
 2048TIP3   OH227634   6.280   4.621   1.931 -0.3550  0.0344  0.6640
 2048TIP3    H127635   6.218   4.668   1.986 -1.0858  1.6904 -1.4181
 2048TIP3    H227636   6.226   4.565   1.876  0.1272  0.0827  0.1245
 2049TIP3   OH227637   6.840   5.118   3.843 -0.2534 -0.3334  0.1829
 2049TIP3    H127638   6.795   5.072   3.914  0.6885  0.8820  1.6212
 2049TIP3    H227639   6.776   5.181   3.811 -0.4875 -0.4785  0.3578
 2050TIP3   OH227640   5.765   1.403   2.854 -0.2393  0.9475 -0.4642
 2050TIP3    H127641   5.676   1.392   2.887  0.4974 -1.7913  0.9544
 2050TIP3    H227642   5.769   1.345   2.778  0.2728  1.1884 -0.6213
 2051TIP3   OH227643   1.063   2.815   2.434 -0.5247  0.0926  0.1710
 2051TIP3    H127644   1.092   2.724   2.434  0.1502  0.3010  0.1307
 2051TIP3    H227645   0.996   2.819   2.503 -0.3810 -0.3770  0.3386
 2052TIP3   OH227646   5.113   5.712  15.937 -0.1544 -0.0625 -0.5734
 2052TIP3    H127647   5.095   5.660  16.016 -0.1272  1.7764  0.7210
 2052TIP3    H227648   5.208   5.717  15.933 -0.0957 -1.3861 -1.6271
 2053TIP3   OH227649   5.563   6.513  15.678 -0.3229  0.5391 -0.6054
 2053TIP3    H127650   5.532   6.519  15.588 -0.3989  0.8717 -0.5578
 2053TIP3    H227651   5.493   6.469  15.725 -0.8789  1.5751 -0.4305
 2054TIP3   OH227652   2.673   0.170   4.498  0.2984  0.3255  0.4473
 2054TIP3    H127653   2.620   0.241   4.460  0.4534 -0.2798 -0.9404
 2054TIP3    H227654   2.611   0.099   4.512  0.4481  0.1654  0.3011
 2055TIP3   OH227655   1.386   4.844  16.261 -0.0178  0.5044 -0.0367
 2055TIP3    H127656   1.395   4.878  16.172 -2.1816  2.1551  0.2815
 2055TIP3    H227657   1.344   4.759  16.250  0.5816  0.2857 -0.6367
 2056TIP3   OH227658   1.340   3.968  10.405  0.5200  0.2238  0.1414
 2056TIP3    H127659   1.252   3.930  10.415  1.4444 -2.4302 -0.7656
 2056TIP3    H227660   1.324   4.057  10.373 -1.8585 -0.5934 -1.2214
 2057TIP3   OH227661   6.172   0.222   3.858 -0.0784 -0.3616 -0.4461
 2057TIP3    H127662   6.243   0.283   3.838  1.2773 -2.5640 -3.2178
 2057TIP3    H227663   6.185   0.201   3.950  0.3260  2.2940  0.1822
 2058TIP3   OH227664   2.728   4.747   5.763  0.1231  0.4577 -0.1464
 2058TIP3    H127665   2.670   4.732   5.688  1.5754  0.3793 -1.2895
 2058TIP3    H227666   2.713   4.670   5.819  1.7576 -1.5188 -2.2122
 2059TIP3   OH227667   6.589   3.965  17.081 -0.4699  0.1187 -0.1717
 2059TIP3    H127668   6.672   3.935  17.043 -0.0605  0.4310  0.4645
 2059TIP3    H227669   6.569   4.045  17.033 -0.3783  0.0731 -0.2876
 2060TIP3   OH227670   0.395   3.787  13.571 -0.0813 -0.0434 -0.1896
 2060TIP3    H127671   0.332   3.763  13.639 -0.2474  2.2945  0.5666
 2060TIP3    H227672   0.355   3.757  13.489 -2.1077  1.1627  0.2856
 2061TIP3   OH227673   4.249   5.237  15.626 -0.2758 -0.0149  0.2964
 2061TIP3    H127674   4.261   5.146  15.653  0.0048 -0.6097 -1.6981
 2061TIP3    H227675   4.338   5.270  15.613 -0.4208 -0.2900 -1.5435
 2062TIP3   OH227676   3.758   4.291  16.438 -1.2396 -0.1304  0.1273
 2062TIP3    H127677   3.712   4.299  16.522 -1.5988  0.7128 -0.1381
 2062TIP3    H227678   3.769   4.197  16.426 -0.9356 -0.2567  1.2528
 2063TIP3   OH227679   5.805   5.659  13.404  0.2126 -0.2036 -0.1153
 2063TIP3    H127680   5.754   5.663  13.485 -0.6661 -1.6631 -0.5511
 2063TIP3    H227681   5.754   5.711  13.341  1.3493  1.6964  0.4328
 2064TIP3   OH227682   4.457   2.099   1.505  0.1862  0.2933 -0.2499
 2064TIP3    H127683   4.490   2.055   1.426  0.0734 -1.0928  0.4408
 2064TIP3    H227684   4.486   2.042   1.577 -2.2922 -0.1214  0.5029
 2065TIP3   OH227685   4.667   4.086  12.240 -0.0916 -0.1849 -0.1353
 2065TIP3    H127686   4.700   4.008  12.283  1.5854  0.7710  0.4269
 2065TIP3    H227687   4.600   4.054  12.179  0.8658 -2.0997 -0.2567
 2066TIP3   OH227688   2.785   1.138  12.007 -0.3010 -0.5333  0.3549
 2066TIP3    H127689   2.712   1.174  12.058 -0.8630 -1.6257  0.3570
 2066TIP3    H227690   2.779   1.182  11.922 -0.3424  0.1084  0.6795
 2067TIP3   OH227691   4.161   6.490   4.330 -0.1830  0.6102  0.5931
 2067TIP3    H127692   4.246   6.494   4.373 -0.8104  1.9214  1.8061
 2067TIP3    H227693   4.113   6.565   4.365 -2.3429 -0.8861  1.0279
 2068TIP3   OH227694   5.158   4.351  16.169  0.1456 -0.2508  0.6053
 2068TIP3    H127695   5.067   4.361  16.141  0.2078 -2.1640 -0.4409
 2068TIP3    H227696   5.208   4.355  16.088  0.8676 -0.5138  1.0336
 2069TIP3   OH227697   0.479   6.805  14.507  0.8975 -0.5048  0.3968
 2069TIP3    H127698   0.530   6.842  14.579  2.5728 -2.1205  0.1334
 2069TIP3    H227699   0.481   6.711  14.522 -4.3895 -0.7031  1.8355
 2070TIP3   OH227700   4.114   6.169   3.622  0.2223 -0.3913  0.1369
 2070TIP3    H127701   4.204   6.150   3.645  0.2863  0.3234  0.4786
 2070TIP3    H227702   4.072   6.193   3.704  0.0762  0.6840 -0.2414
 2071TIP3   OH227703   3.250   0.598  11.155 -0.0223  0.2317  0.3158
 2071TIP3    H127704   3.183   0.544  11.114 -0.3597  0.2184  0.8718
 2071TIP3    H227705   3.331   0.574  11.110  0.1306 -1.9867  1.6291
 2072TIP3   OH227706   1.200   6.648   4.227  0.4874 -0.0297 -0.0734
 2072TIP3    H127707   1.240   6.730   4.198  1.4043 -0.5332 -0.2963
 2072TIP3    H227708   1.136   6.627   4.160  0.4644  0.3413 -0.1726
 2073TIP3   OH227709   2.326   5.530  16.713  0.2744 -0.4121 -0.0238
 2073TIP3    H127710   2.360   5.504  16.799  0.3509 -0.2422 -0.0002
 2073TIP3    H227711   2.288   5.617  16.728  0.7374 -0.1623 -0.2683
 2074TIP3   OH227712   3.895   6.526   1.224  0.1751 -0.2898  0.3611
 2074TIP3    H127713   3.824   6.542   1.161  0.5678  0.9563  0.1921
 2074TIP3    H227714   3.860   6.460   1.284 -0.8521 -0.2333 -0.1478
 2075TIP3   OH227715   4.565   3.360   2.882 -0.1293 -0.8293 -0.1630
 2075TIP3    H127716   4.551   3.399   2.969  0.0618  0.4973 -0.6991
 2075TIP3    H227717   4.613   3.279   2.899  0.7503 -0.1163  0.9123
 2076TIP3   OH227718   0.616   2.642  15.530  0.5440 -0.1498  0.3669
 2076TIP3    H127719   0.711   2.653  15.528  0.3256  2.1031 -1.5282
 2076TIP3    H227720   0.582   2.716  15.480 -2.2254 -0.9731  0.8625
 2077TIP3   OH227721   2.526   4.708   4.821 -0.1547 -0.6435 -0.6573
 2077TIP3    H127722   2.548   4.615   4.823  1.5782 -0.2743  1.0739
 2077TIP3    H227723   2.606   4.752   4.848 -0.1847  1.5703 -3.6407
 2078TIP3   OH227724   0.066   2.338  15.003 -0.0129  0.1676  0.3066
 2078TIP3    H127725   0.077   2.362  14.911 -1.1845 -0.1510  0.0677
 2078TIP3    H227726   0.051   2.243  15.002 -1.2914  0.3341  0.6816
 2079TIP3   OH227727   0.660   5.402  15.890  0.4505 -0.1099 -0.3701
 2079TIP3    H127728   0.639   5.317  15.850  0.9397 -0.1591 -0.5268
 2079TIP3    H227729   0.643   5.466  15.821 -1.1195  0.0518  0.1302
 2080TIP3   OH227730   0.462   6.137  13.482  0.4827 -0.0948  0.4607
 2080TIP3    H127731   0.508   6.201  13.429  0.0953  0.4707  0.7965
 2080TIP3    H227732   0.374   6.133  13.444  0.3132  0.0442  0.8338
 2081TIP3   OH227733   1.569   2.705   5.651  0.1281 -0.1896  0.3994
 2081TIP3    H127734   1.539   2.785   5.607 -0.7537 -1.3837 -1.3145
 2081TIP3    H227735   1.641   2.673   5.597  0.6550 -0.4229  1.2218
 2082TIP3   OH227736   4.998   4.847   5.870  0.1933 -0.6362  0.2178
 2082TIP3    H127737   4.964   4.936   5.876  0.5103 -0.5406  0.6985
 2082TIP3    H227738   5.010   4.819   5.961 -1.7347 -1.8995  0.1448
 2083TIP3   OH227739   6.156   3.307   3.997  0.5991  0.2198  0.3309
 2083TIP3    H127740   6.061   3.316   3.983  0.7508 -1.0296 -2.1731
 2083TIP3    H227741   6.194   3.375   3.940  1.2241  0.3660  0.9184
 2084TIP3   OH227742   4.494   0.242   4.674 -0.2115  0.1114  0.4186
 2084TIP3    H127743   4.498   0.269   4.582 -0.6589 -0.6735  0.1517
 2084TIP3    H227744   4.556   0.299   4.719  2.4307 -1.5489 -0.8754
 2085TIP3   OH227745   6.119   6.573   0.608 -0.4382  0.5701 -0.2806
 2085TIP3    H127746   6.189   6.523   0.649  0.0622  0.9693 -0.6405
 2085TIP3    H227747   6.048   6.571   0.673  0.3313  1.1874  0.6116
 2086TIP3   OH227748   4.832   2.788  16.196  0.2138  0.3734 -0.3560
 2086TIP3    H127749   4.924   2.814  16.193  0.2840  0.2516  0.4585
 2086TIP3    H227750   4.794   2.825  16.116  0.8280  0.9805 -0.3807
 2087TIP3   OH227751   5.884   2.605  13.694  0.2479  0.3682 -0.0685
 2087TIP3    H127752   5.802   2.592  13.647 -0.0960  1.0751  0.3175
 2087TIP3    H227753   5.942   2.536  13.661 -1.2070 -1.6284  1.3350
 2088TIP3   OH227754   0.006   2.952  15.647  0.3597  0.9271 -0.7546
 2088TIP3    H127755   0.072   3.015  15.676 -0.8617  1.8369  0.1285
 2088TIP3    H227756  -0.062   3.006  15.605 -0.8110  0.2521  0.2076
 2089TIP3   OH227757   3.595   0.080   0.836  0.1714 -0.3980  1.1524
 2089TIP3    H127758   3.612   0.009   0.774  0.6031 -2.1926  3.1998
 2089TIP3    H227759   3.659   0.147   0.813  0.7669 -1.2835  0.0819
 2090TIP3   OH227760   6.781   3.562   1.717 -0.3885  0.0491 -0.2596
 2090TIP3    H127761   6.747   3.631   1.774  0.5918  0.9592 -0.7389
 2090TIP3    H227762   6.703   3.525   1.675 -1.1369 -0.6907  1.6666
 2091TIP3   OH227763   5.984   6.176  12.330 -0.4329  0.3098 -0.6236
 2091TIP3    H127764   5.957   6.150  12.241  0.3265 -1.4285 -0.3951
 2091TIP3    H227765   5.917   6.138  12.387  0.1474 -0.2942 -0.3375
 2092TIP3   OH227766   4.398   3.406  16.011 -0.3357  0.2217 -0.0961
 2092TIP3    H127767   4.452   3.395  15.932 -0.3480 -1.1130  0.0605
 2092TIP3    H227768   4.321   3.453  15.980  0.5618  1.5096 -0.4662
 2093TIP3   OH227769   2.632   3.317  14.352  0.0801 -0.2218  0.2184
 2093TIP3    H127770   2.621   3.401  14.309 -1.2876  0.3921  1.6710
 2093TIP3    H227771   2.545   3.278  14.351 -0.0264 -0.1598  2.4034
 2094TIP3   OH227772   1.411   0.055  12.102 -0.0729 -0.2069 -0.3003
 2094TIP3    H127773   1.363   0.038  12.021  1.0059  0.3056 -1.0639
 2094TIP3    H227774   1.451   0.141  12.089  0.5099 -0.3290  0.5764
 2095TIP3   OH227775   4.250   5.582   4.594 -0.0087 -0.2893 -0.2305
 2095TIP3    H127776   4.170   5.635   4.601  0.0940 -0.3382  1.8364
 2095TIP3    H227777   4.228   5.515   4.529 -1.1514  0.5452 -0.7425
 2096TIP3   OH227778   1.282   4.727   2.361 -0.2514 -0.4504  0.3063
 2096TIP3    H127779   1.250   4.814   2.340 -0.5070 -0.9979 -1.9121
 2096TIP3    H227780   1.369   4.741   2.398 -0.1538  0.7389 -0.3261
 2097TIP3   OH227781   3.241   2.090   5.052 -0.2894 -0.4324  0.1675
 2097TIP3    H127782   3.205   2.001   5.056  1.2494 -1.2267 -1.7730
 2097TIP3    H227783   3.223   2.119   4.962 -0.6066  1.1670  0.7123
 2098TIP3   OH227784   3.240   5.250  16.633  0.2471  0.0824  0.5017
 2098TIP3    H127785   3.250   5.253  16.729 -1.0059  1.0783  0.6382
 2098TIP3    H227786   3.217   5.340  16.609 -0.7216 -0.4325 -0.5720
 2099TIP3   OH227787   5.218   6.815   4.817  0.2870  0.3616 -0.4689
 2099TIP3    H127788   5.140   6.786   4.770 -0.0609  0.7807 -0.1627
 2099TIP3    H227789   5.271   6.736   4.829 -0.5627 -0.1246  0.2187
 2100TIP3   OH227790   5.944   5.757   0.566  0.3193 -0.3290 -0.9712
 2100TIP3    H127791   5.868   5.703   0.545 -1.1062  0.8030  0.9074
 2100TIP3    H227792   5.911   5.847   0.562  0.9828  0.1247  1.6951
 2101TIP3   OH227793   6.372   4.231   1.025 -0.2714  0.2607  0.6383
 2101TIP3    H127794   6.295   4.251   1.079 -0.8550  0.5990 -0.2799
 2101TIP3    H227795   6.337   4.223   0.936  0.6208 -0.5702  0.3482
 2102TIP3   OH227796   5.997   2.983  15.046 -0.0124 -0.0492 -0.1243
 2102TIP3    H127797   6.050   2.977  14.967  0.6310  0.0868  0.2870
 2102TIP3    H227798   5.984   3.077  15.059  0.4460 -0.0449  0.2995
 2103TIP3   OH227799   2.413   4.828  14.626 -0.0187  0.2451  0.1530
 2103TIP3    H127800   2.482   4.837  14.692 -0.0367  3.8123 -0.1283
 2103TIP3    H227801   2.331   4.841  14.675 -0.4161 -1.6860  0.0959
 2104TIP3   OH227802   5.174   3.036   6.550  0.3263 -0.0397  0.1076
 2104TIP3    H127803   5.205   3.061   6.463  0.9114  1.4192  0.6920
 2104TIP3    H227804   5.082   3.061   6.551 -0.0711 -1.4202 -0.5674
 2105TIP3   OH227805   4.426   2.442   1.104  0.1838 -0.1584 -0.4968
 2105TIP3    H127806   4.396   2.484   1.184 -1.2522 -0.8221 -0.6687
 2105TIP3    H227807   4.518   2.469   1.096  1.0385 -1.8013  2.4973
 2106TIP3   OH227808   1.035   4.710   6.187 -0.0528  0.5684 -0.1138
 2106TIP3    H127809   1.123   4.710   6.226  0.5654 -0.0661 -1.4455
 2106TIP3    H227810   0.978   4.680   6.258  1.1054 -1.1567  0.1642
 2107TIP3   OH227811   4.278   0.892   2.013  0.2306  0.0918 -0.1482
 2107TIP3    H127812   4.253   0.859   2.099 -2.7546  1.5054 -0.3541
 2107TIP3    H227813   4.319   0.977   2.031 -0.9763  0.6838 -0.1129
 2108TIP3   OH227814   4.589   6.142   0.178 -0.1289 -0.2541 -0.0799
 2108TIP3    H127815   4.579   6.108   0.267 -1.6006  0.7389  0.1815
 2108TIP3    H227816   4.683   6.155   0.167  0.0641 -0.2977  1.3807
 2109TIP3   OH227817   0.175   4.288  14.250  0.3303 -0.2384  0.6184
 2109TIP3    H127818   0.268   4.288  14.270  0.9627 -0.1343 -1.9207
 2109TIP3    H227819   0.135   4.338  14.321  2.1997 -0.2087  1.7166
 2110TIP3   OH227820   1.236   4.823  14.510  0.1766  0.0166  0.4622
 2110TIP3    H127821   1.150   4.841  14.549  0.7403  1.0211  1.2883
 2110TIP3    H227822   1.286   4.782  14.580  0.5064 -0.1986  0.1053
 2111TIP3   OH227823   3.689   5.711   1.004 -0.9375 -0.2742 -0.4319
 2111TIP3    H127824   3.685   5.758   1.087 -0.9332 -0.5330 -0.2849
 2111TIP3    H227825   3.768   5.744   0.961 -0.2489 -1.0475  0.2138
 2112TIP3   OH227826   6.726   1.890  13.265 -0.6180  0.0969  0.0598
 2112TIP3    H127827   6.737   1.795  13.267  0.7806  0.2314  0.3704
 2112TIP3    H227828   6.783   1.919  13.194 -1.3139  0.6810 -0.2767
 2113TIP3   OH227829   6.223   3.496  14.239  0.0228  0.5278  0.4360
 2113TIP3    H127830   6.273   3.576  14.258 -0.0487  0.4098  1.1564
 2113TIP3    H227831   6.249   3.472  14.150  0.4273  1.0711  0.4008
 2114TIP3   OH227832   3.568   5.834  14.024  0.7055 -0.4881  0.0041
 2114TIP3    H127833   3.579   5.863  13.934  2.1667  0.1533  0.3468
 2114TIP3    H227834   3.609   5.903  14.076 -0.0481 -0.8862  1.1553
 2115TIP3   OH227835   3.638   2.527   3.633 -0.0893  0.0294 -0.2752
 2115TIP3    H127836   3.617   2.485   3.716  1.1934  1.8172  1.0176
 2115TIP3    H227837   3.670   2.455   3.577 -2.2461 -1.4390  0.2255
 2116TIP3   OH227838   6.258   1.792  13.769 -0.1654  0.6929  0.3247
 2116TIP3    H127839   6.182   1.837  13.804 -0.2499  0.6128  0.2466
 2116TIP3    H227840   6.222   1.711  13.731  0.0547  0.2581  1.0129
 2117TIP3   OH227841   1.633   3.523   2.039  0.0720  0.2370  0.2195
 2117TIP3    H127842   1.569   3.497   1.973 -0.0807  1.3374 -0.0784
 2117TIP3    H227843   1.686   3.444   2.054 -0.9397 -0.4938  0.0032
 2118TIP3   OH227844   5.589   0.123   3.289  0.1773 -0.9212  0.0879
 2118TIP3    H127845   5.513   0.176   3.315 -1.4167 -1.2999 -3.2075
 2118TIP3    H227846   5.630   0.098   3.371 -1.2029  2.2332  1.9204
 2119TIP3   OH227847   0.503   2.276   5.692  0.2015 -0.5912  0.3778
 2119TIP3    H127848   0.530   2.230   5.771 -0.5142 -0.6755  0.5812
 2119TIP3    H227849   0.546   2.361   5.697  0.1228 -0.5799  0.8843
 2120TIP3   OH227850   1.845   4.130   0.415  0.1765  0.0155 -0.6121
 2120TIP3    H127851   1.876   4.165   0.332  0.9326  0.7401 -0.0425
 2120TIP3    H227852   1.791   4.055   0.391  1.7599 -0.8377 -1.6745
 2121TIP3   OH227853   6.481   1.030   3.734 -0.6177  0.2750  0.5601
 2121TIP3    H127854   6.459   1.030   3.827  1.0892  0.5949  1.0032
 2121TIP3    H227855   6.427   1.100   3.696  0.2482  1.6219  1.7379
 2122TIP3   OH227856   5.006   5.753  15.353 -0.0803  0.5289 -0.4504
 2122TIP3    H127857   5.070   5.688  15.324 -1.0115 -0.3931 -0.4946
 2122TIP3    H227858   5.039   5.784  15.437 -0.6601 -1.5262  0.5885
 2123TIP3   OH227859   2.052   4.125   5.564  0.3132  0.5285 -0.1511
 2123TIP3    H127860   2.028   4.039   5.599 -1.3545  1.5099  1.2290
 2123TIP3    H227861   2.000   4.133   5.484 -1.4055  1.1830  0.9753
 2124TIP3   OH227862   4.235   3.257   5.040 -0.0407 -0.4003 -0.7726
 2124TIP3    H127863   4.245   3.312   4.962  1.3417  0.1494 -0.2368
 2124TIP3    H227864   4.315   3.205   5.043  1.1334  1.3554  1.5963
 2125TIP3   OH227865   3.345   2.587  13.276  0.0914 -0.0837  0.6212
 2125TIP3    H127866   3.424   2.613  13.323  0.3854  0.3854 -0.0978
 2125TIP3    H227867   3.356   2.626  13.189 -1.7018  1.4319  1.0067
 2126TIP3   OH227868   2.869   2.687   1.582  0.3954 -0.6777 -0.3862
 2126TIP3    H127869   2.870   2.636   1.501  1.1295 -0.5999 -0.4258
 2126TIP3    H227870   2.953   2.733   1.583 -0.3022  0.6740 -0.4527
 2127TIP3   OH227871   3.235   5.402  13.770 -0.4224  0.0320 -1.1973
 2127TIP3    H127872   3.251   5.331  13.833  0.7187  1.8732  0.7465
 2127TIP3    H227873   3.320   5.415  13.727 -0.7212 -0.0238 -1.8068
 2128TIP3   OH227874   5.170   6.472   0.618  0.2606  0.7907  0.5390
 2128TIP3    H127875   5.154   6.428   0.701  0.4047  1.9942  1.2249
 2128TIP3    H227876   5.091   6.524   0.602 -0.3053 -0.3952 -0.7332
 2129TIP3   OH227877   6.040   4.341  14.951  0.1304  0.2139 -0.1627
 2129TIP3    H127878   6.086   4.419  14.981 -1.7635  0.5444  2.2408
 2129TIP3    H227879   6.072   4.271  15.008 -1.4853  0.2574  0.8806
 2130TIP3   OH227880   2.256   3.047  12.182  0.0882  0.1073 -0.2920
 2130TIP3    H127881   2.297   3.113  12.126  1.2784  1.0529  1.5929
 2130TIP3    H227882   2.271   2.964  12.137 -1.5368  1.0430 -2.7929
 2131TIP3   OH227883   0.342   0.904   1.693  0.6529  0.2218  0.5160
 2131TIP3    H127884   0.385   0.912   1.778 -0.2963 -3.2582  1.4746
 2131TIP3    H227885   0.335   0.810   1.679 -3.0273  0.6284 -1.4326
 2132TIP3   OH227886   3.089   3.985   0.939  0.7277  0.1191 -0.1238
 2132TIP3    H127887   3.105   3.968   1.032 -0.4500  0.8180  0.2314
 2132TIP3    H227888   3.175   4.006   0.903  0.9866  1.4500  1.1775
 2133TIP3   OH227889   6.156   1.245   2.168 -0.1963 -0.8692 -0.1106
 2133TIP3    H127890   6.216   1.172   2.154 -0.5877 -1.0779 -0.7096
 2133TIP3    H227891   6.205   1.323   2.140  0.4507 -0.8045  1.1112
 2134TIP3   OH227892   6.419   6.158  15.591 -0.0054  0.2104  0.1844
 2134TIP3    H127893   6.433   6.168  15.685  0.6166 -0.2772  0.1511
 2134TIP3    H227894   6.403   6.064  15.579  0.5031  0.1746 -0.2640
 2135TIP3   OH227895   4.180   6.663   5.983 -0.0573 -0.0380  0.5533
 2135TIP3    H127896   4.121   6.626   6.048  0.2677 -2.0644 -0.2202
 2135TIP3    H227897   4.139   6.745   5.956 -1.3084 -0.2642  1.6998
 2136TIP3   OH227898   1.176   4.499  16.718  0.3248  0.1814 -0.2826
 2136TIP3    H127899   1.091   4.469  16.686  0.8609 -3.5003  1.2443
 2136TIP3    H227900   1.239   4.465  16.654  1.0398 -3.3955  2.0366
 2137TIP3   OH227901   5.965   4.176   4.295 -0.0608  0.0613  0.1767
 2137TIP3    H127902   6.037   4.234   4.319 -0.0277 -0.6599  1.9290
 2137TIP3    H227903   6.006   4.108   4.242  0.2052  0.6565 -0.3979
 2138TIP3   OH227904   2.206   5.292   5.362 -0.1859 -0.0562  0.0733
 2138TIP3    H127905   2.217   5.200   5.339  0.0230 -0.3789  1.3961
 2138TIP3    H227906   2.294   5.322   5.385 -0.4799  0.0374  1.1411
 2139TIP3   OH227907   4.254   0.744  12.893 -0.4728  0.0095 -0.3853
 2139TIP3    H127908   4.320   0.702  12.948 -1.2849 -0.6291  0.1396
 2139TIP3    H227909   4.186   0.677  12.883 -1.9003  1.2472  0.6296
 2140TIP3   OH227910   3.499   5.086  16.349 -0.0525 -0.0302  0.2018
 2140TIP3    H127911   3.459   5.166  16.382  0.4069 -0.5338  2.1045
 2140TIP3    H227912   3.439   5.016  16.377  0.2348 -0.4651 -0.2470
 2141TIP3   OH227913   3.789   1.963  14.489  0.2639  0.3270 -0.7276
 2141TIP3    H127914   3.827   1.982  14.574  2.0466  0.3260 -1.4777
 2141TIP3    H227915   3.763   2.049  14.454 -0.6876  0.3011 -0.1059
 2142TIP3   OH227916   4.845   0.722   5.381 -0.0999 -0.0819 -0.3784
 2142TIP3    H127917   4.819   0.660   5.450  1.6012 -0.6047 -0.1728
 2142TIP3    H227918   4.940   0.717   5.378 -0.0769  0.4702 -2.2787
 2143TIP3   OH227919   5.410   0.639   3.122  0.4373 -0.4530 -0.4970
 2143TIP3    H127920   5.402   0.573   3.191 -3.1223  1.3081  1.0454
 2143TIP3    H227921   5.322   0.645   3.085  0.8307  2.7741 -1.1800
 2144TIP3   OH227922   0.051   6.075   2.145  0.3205 -0.8318 -0.3018
 2144TIP3    H127923   0.028   6.137   2.215 -2.5274 -0.6144 -1.3192
 2144TIP3    H227924   0.063   5.992   2.190 -0.8958 -0.5748  0.5237
 2145TIP3   OH227925   0.772   6.248  11.769  0.1151 -0.5820  0.1388
 2145TIP3    H127926   0.763   6.275  11.860 -1.0702  1.8169 -0.6023
 2145TIP3    H227927   0.730   6.162  11.764  0.2789 -0.7855  1.8499
 2146TIP3   OH227928   4.219   6.653   4.637  0.1333 -0.4821 -0.2271
 2146TIP3    H127929   4.217   6.688   4.726 -0.5805 -0.7318 -0.1368
 2146TIP3    H227930   4.238   6.729   4.582  2.4199 -0.6409  0.2671
 2147TIP3   OH227931   2.202   2.454  14.718  0.7291 -0.3130  0.3606
 2147TIP3    H127932   2.224   2.460  14.625 -0.8410 -0.7967 -0.0799
 2147TIP3    H227933   2.224   2.540  14.754  0.8328  0.0655 -0.5770
 2148TIP3   OH227934   5.195   4.549   1.662  0.3575  0.0704  0.1032
 2148TIP3    H127935   5.122   4.583   1.610  1.2373 -0.8537 -1.8383
 2148TIP3    H227936   5.191   4.597   1.745 -1.7081  0.8845 -0.4292
 2149TIP3   OH227937   1.751   1.129  13.287  0.5239 -0.3080 -0.0514
 2149TIP3    H127938   1.742   1.034  13.289 -1.4360 -0.1365  0.7233
 2149TIP3    H227939   1.844   1.144  13.266  0.9277 -2.3688  0.1231
 2150TIP3   OH227940   6.398   5.771   4.234  0.3255  0.0873 -0.2536
 2150TIP3    H127941   6.417   5.770   4.140  1.7569 -2.0899 -0.0196
 2150TIP3    H227942   6.330   5.705   4.245 -0.5497  1.0336  0.1526
 2151TIP3   OH227943   5.471   2.370  14.983  0.5917  0.0926 -0.1535
 2151TIP3    H127944   5.491   2.283  15.016 -1.1159 -0.0039  0.7303
 2151TIP3    H227945   5.381   2.364  14.951  0.8827  1.2138 -1.3003
 2152TIP3   OH227946   2.199   0.816   0.375 -0.0658 -0.1948  0.1508
 2152TIP3    H127947   2.281   0.804   0.327 -0.2938 -0.7813 -0.1055
 2152TIP3    H227948   2.134   0.836   0.307  0.0497  1.2908  0.4454
 2153TIP3   OH227949   6.244   6.095   4.372 -0.8731 -0.3854  0.0998
 2153TIP3    H127950   6.216   6.104   4.463 -0.9911 -0.8138  0.1071
 2153TIP3    H227951   6.206   6.012   4.343 -0.1000 -0.6909 -0.0674
 2154TIP3   OH227952   3.536   4.193   3.206  0.0753  0.3374  0.0322
 2154TIP3    H127953   3.454   4.169   3.163  0.0526  0.7239 -0.1476
 2154TIP3    H227954   3.600   4.196   3.134  0.1698  0.3787  0.1175
 2155TIP3   OH227955   5.930   6.173   4.572 -0.1331  0.0608  0.2610
 2155TIP3    H127956   6.014   6.155   4.614 -0.9307 -1.4098  1.2789
 2155TIP3    H227957   5.937   6.131   4.486  0.2721  0.2049  0.2192
 2156TIP3   OH227958   2.638   1.114  14.396  0.0659 -0.7122 -0.3437
 2156TIP3    H127959   2.560   1.077  14.437 -0.7504 -1.4518 -2.4203
 2156TIP3    H227960   2.678   1.040  14.350  1.3114 -0.0728 -0.3516
 2157TIP3   OH227961   0.197   2.549   2.136 -0.0304  0.0684  0.3257
 2157TIP3    H127962   0.247   2.568   2.057 -1.1338  0.4946 -0.2930
 2157TIP3    H227963   0.136   2.480   2.109 -0.9219  0.7417  0.5990
 2158TIP3   OH227964   1.315   2.576  15.957 -0.2451  0.6392 -0.1847
 2158TIP3    H127965   1.363   2.502  15.919 -1.0888  1.1982 -2.5535
 2158TIP3    H227966   1.379   2.621  16.011  1.5277  0.5173 -2.0430
 2159TIP3   OH227967   6.617   3.526   4.562 -0.6582 -0.3814 -0.6259
 2159TIP3    H127968   6.703   3.568   4.572 -0.7091 -0.4507  0.1139
 2159TIP3    H227969   6.559   3.597   4.532 -0.4459 -0.2324 -0.6885
 2160TIP3   OH227970   3.008   5.095  10.955 -0.3340  0.0189  0.3331
 2160TIP3    H127971   2.943   5.160  10.984 -1.1290 -0.5784 -0.0879
 2160TIP3    H227972   2.958   5.030  10.908  0.8453  0.6265 -1.8899
 2161TIP3   OH227973   3.223   0.055  15.905  0.1254  0.1298 -0.3665
 2161TIP3    H127974   3.129   0.066  15.922  0.0612  0.6750 -1.0363
 2161TIP3    H227975   3.262   0.137  15.937  0.3017  0.1314 -0.5821
 2162TIP3   OH227976   6.183   4.002  12.874  0.1852  0.4783  0.4979
 2162TIP3    H127977   6.146   3.926  12.918  1.6833 -0.5366  0.0921
 2162TIP3    H227978   6.247   4.036  12.936  2.5063 -1.1199 -0.8605
 2163TIP3   OH227979   3.029   1.267   2.647 -0.5596  0.0818  0.2866
 2163TIP3    H127980   3.102   1.288   2.588 -1.0545  0.9625 -0.0365
 2163TIP3    H227981   3.057   1.188   2.693  0.6994  0.5232  0.3309
 2164TIP3   OH227982   1.581   4.705   0.269  0.2863  0.3304 -0.1916
 2164TIP3    H127983   1.527   4.674   0.342  1.6103  1.0283  1.1443
 2164TIP3    H227984   1.603   4.626   0.220 -1.1752 -0.0708 -0.2463
 2165TIP3   OH227985   1.903   4.984   6.804  0.2891  0.1283  0.1815
 2165TIP3    H127986   1.993   4.951   6.803  1.1209  1.9099  3.0936
 2165TIP3    H227987   1.909   5.072   6.767  0.0935  0.8253  1.7203
 2166TIP3   OH227988   1.899   6.627   1.835 -0.4860 -0.0149  0.6772
 2166TIP3    H127989   1.887   6.696   1.770 -0.0775 -0.9089 -0.3986
 2166TIP3    H227990   1.811   6.604   1.863 -0.6124  1.1393  1.2933
 2167TIP3   OH227991   3.875   1.141  16.871 -0.5707 -0.0979 -0.4730
 2167TIP3    H127992   3.866   1.104  16.784  0.5681 -0.8772 -0.2834
 2167TIP3    H227993   3.965   1.175  16.873 -0.9046  0.8039  0.0692
 2168TIP3   OH227994   6.277   0.593  13.911 -0.6048  0.1176 -0.0705
 2168TIP3    H127995   6.221   0.532  13.959 -0.3739  0.1385  0.2335
 2168TIP3    H227996   6.225   0.673  13.905 -2.1472 -0.9460 -3.0815
 2169TIP3   OH227997   0.547   2.221   2.600 -0.1020 -0.0373 -0.3014
 2169TIP3    H127998   0.631   2.177   2.620  0.2714  0.6217 -0.4104
 2169TIP3    H227999   0.492   2.200   2.675  0.9040  1.4055  0.8917
 2170TIP3   OH228000   2.913   0.874  10.544  0.0785  0.1040  0.7619
 2170TIP3    H128001   2.830   0.868  10.592  0.1600  0.8635  1.0147
 2170TIP3    H228002   2.921   0.967  10.522  0.1090 -0.2013 -0.6166
 2171TIP3   OH228003   2.120   2.009  16.735  0.2139  0.3393 -0.8505
 2171TIP3    H128004   2.137   1.923  16.773 -1.0328  0.1256 -0.7391
 2171TIP3    H228005   2.198   2.027  16.682  0.7169 -0.6261 -0.4699
 2172TIP3   OH228006   5.831   5.448  11.693  0.4485  0.3115  0.6291
 2172TIP3    H128007   5.856   5.532  11.732  0.8854  0.6952 -0.4319
 2172TIP3    H228008   5.888   5.439  11.617  1.7614 -1.8832  1.7830
 2173TIP3   OH228009   5.913   5.672   2.893  0.3818 -0.6541  0.4836
 2173TIP3    H128010   5.879   5.693   2.980 -0.0230 -0.8716  0.3798
 2173TIP3    H228011   5.994   5.624   2.910  0.9139  0.3050  0.7274
 2174TIP3   OH228012   2.945   2.405   4.390  0.1028  0.8102 -0.1807
 2174TIP3    H128013   3.006   2.454   4.334 -0.1324  2.3803  0.8986
 2174TIP3    H228014   2.892   2.355   4.328  0.6210  1.5991 -1.3003
 2175TIP3   OH228015   6.343   0.628   2.412  0.0779  0.0397  0.1560
 2175TIP3    H128016   6.404   0.638   2.485  1.2663 -1.1629 -0.6408
 2175TIP3    H228017   6.389   0.665   2.337 -0.1558 -0.8811 -0.4535
 2176TIP3   OH228018   6.660   5.392  16.059  0.4069 -0.8910  0.3933
 2176TIP3    H128019   6.712   5.422  16.134 -1.9862  1.1624  1.3789
 2176TIP3    H228020   6.587   5.453  16.055 -0.9402 -2.5076 -2.0666
 2177TIP3   OH228021   0.686   2.539  11.680 -0.1359 -0.1360 -0.0973
 2177TIP3    H128022   0.685   2.625  11.722 -0.4567  0.9426 -2.1450
 2177TIP3    H228023   0.658   2.478  11.748  1.2653  1.1825  1.7671
 2178TIP3   OH228024   2.415   3.287   4.654 -0.4697  0.1581  0.4025
 2178TIP3    H128025   2.337   3.235   4.638 -0.5991 -0.5731  2.9996
 2178TIP3    H228026   2.403   3.366   4.601  0.4170 -2.8053 -4.9227
 2179TIP3   OH228027   4.583   6.280  12.733  0.4266 -0.3208  0.2056
 2179TIP3    H128028   4.615   6.283  12.642  1.8557  0.2094  0.6911
 2179TIP3    H228029   4.540   6.195  12.740  1.6643 -1.0539 -0.5493
 2180TIP3   OH228030   2.575   1.429   5.826 -0.1872 -0.2347  0.2945
 2180TIP3    H128031   2.586   1.500   5.889  0.1488  0.0851 -0.1159
 2180TIP3    H228032   2.604   1.351   5.873  1.6250  0.2364  0.0366
 2181TIP3   OH228033   2.723   0.676  16.776 -0.7282  0.7929 -0.5218
 2181TIP3    H128034   2.636   0.714  16.791 -0.0611  1.8339  0.8619
 2181TIP3    H228035   2.739   0.691  16.683 -2.9199 -1.3945 -1.3506
 2182TIP3   OH228036   2.221   0.270  14.123 -0.5884 -0.3253  0.0950
 2182TIP3    H128037   2.186   0.210  14.190  0.5856 -0.6732  0.4147
 2182TIP3    H228038   2.284   0.217  14.074  0.0154  0.4767 -0.0125
 2183TIP3   OH228039   3.186   2.625   2.495 -0.4312 -0.5588 -0.2928
 2183TIP3    H128040   3.097   2.635   2.460 -1.2213 -1.8023  1.2650
 2183TIP3    H228041   3.218   2.715   2.505 -1.4096 -0.1018 -1.0837
 2184TIP3   OH228042   6.224   5.745  11.863  0.4933 -0.3075 -0.3896
 2184TIP3    H128043   6.255   5.738  11.772 -0.8536  2.3104 -1.1634
 2184TIP3    H228044   6.295   5.791  11.908  0.1795  0.5352 -0.7348
 2185TIP3   OH228045   0.079   0.350   1.719 -0.2024 -0.1088 -0.2648
 2185TIP3    H128046   0.096   0.286   1.789  0.3736  0.8630  0.4946
 2185TIP3    H228047   0.039   0.424   1.764  1.1486  0.9697 -0.7954
 2186TIP3   OH228048   5.303   0.741  16.471 -0.3536  0.3701  0.3442
 2186TIP3    H128049   5.365   0.738  16.543 -0.2386 -0.9490  0.2168
 2186TIP3    H228050   5.358   0.753  16.393 -0.2647 -0.5309  0.2589
 2187TIP3   OH228051   4.691   0.062   3.235 -0.5866  0.2769 -0.2818
 2187TIP3    H128052   4.776   0.046   3.195 -0.1987 -1.1520  1.0201
 2187TIP3    H228053   4.633   0.082   3.161  0.4730 -0.5603 -1.3845
 2188TIP3   OH228054   4.670   6.041  16.515 -0.3003 -0.0097  0.2925
 2188TIP3    H128055   4.703   6.123  16.551 -0.1705  0.1227 -0.1235
 2188TIP3    H228056   4.634   5.995  16.591  0.4839  0.0108  0.6880
 2189TIP3   OH228057   6.032   6.001   2.978 -0.4604 -0.1487  0.1428
 2189TIP3    H128058   6.118   6.024   2.943 -1.1518  1.4166 -0.6524
 2189TIP3    H228059   6.051   5.945   3.053  1.3681  2.0192  1.4291
 2190TIP3   OH228060   5.424   6.561  16.347 -0.5263  0.1870 -0.0567
 2190TIP3    H128061   5.396   6.585  16.258 -1.2225  1.5839  0.4999
 2190TIP3    H228062   5.433   6.645  16.392  0.5334 -0.4612  0.9959
 2191TIP3   OH228063   2.301   4.380   2.762 -0.6512  0.2950  1.2159
 2191TIP3    H128064   2.323   4.451   2.822  0.5751 -0.7843  2.0940
 2191TIP3    H228065   2.212   4.354   2.786 -0.1769 -0.1156  2.5786
 2192TIP3   OH228066   4.768   2.535   2.186  0.7022  0.4527 -0.0402
 2192TIP3    H128067   4.778   2.501   2.275  0.2698  0.2348 -0.0689
 2192TIP3    H228068   4.741   2.626   2.198 -0.2354  0.1746  0.0728
 2193TIP3   OH228069   4.375   3.116  12.481  0.0022  0.8042  0.0764
 2193TIP3    H128070   4.344   3.136  12.569  1.2667 -1.8184  1.2509
 2193TIP3    H228071   4.303   3.068  12.440  0.1125  0.3266  0.4312
 2194TIP3   OH228072   3.607   0.608  13.411  0.1851 -0.1240 -0.4705
 2194TIP3    H128073   3.596   0.693  13.453  1.6061  0.0627 -0.4335
 2194TIP3    H228074   3.537   0.554  13.449 -0.3864  0.8541 -0.0782
 2195TIP3   OH228075   0.132   6.397   0.760 -0.3347  0.1480  0.4146
 2195TIP3    H128076   0.064   6.330   0.746  1.0915 -1.0137 -1.3111
 2195TIP3    H228077   0.199   6.352   0.811  0.2860  0.5133 -0.0826
 2196TIP3   OH228078   0.403   2.308   3.122  0.3195  0.0566 -0.0349
 2196TIP3    H128079   0.322   2.358   3.130 -1.6943 -2.9497 -0.1019
 2196TIP3    H228080   0.445   2.343   3.044 -1.2150  1.2900 -0.3523
 2197TIP3   OH228081   5.982   1.037   5.309 -0.1054 -0.3078  0.5098
 2197TIP3    H128082   5.997   1.131   5.317  0.1830 -0.1125 -1.7294
 2197TIP3    H228083   6.057   1.005   5.258 -1.3261 -1.3441 -0.7051
 2198TIP3   OH228084   1.271   2.959   0.309  0.0605  0.0474  0.0315
 2198TIP3    H128085   1.201   2.916   0.259  0.2942  0.1517 -0.3836
 2198TIP3    H228086   1.311   2.888   0.359  1.0237 -0.3893 -1.3206
 2199TIP3   OH228087   4.597   1.230   2.568 -1.0887 -0.1507  0.1324
 2199TIP3    H128088   4.599   1.135   2.580 -0.2161 -0.2542 -0.7093
 2199TIP3    H228089   4.645   1.244   2.486 -0.2881  1.1058  0.8019
 2200TIP3   OH228090   3.971   5.485  15.447 -0.0888 -0.2927 -0.0702
 2200TIP3    H128091   4.024   5.420  15.400 -0.1965  0.5117 -1.3643
 2200TIP3    H228092   3.942   5.440  15.526  0.1628 -1.6954 -0.7457
 2201TIP3   OH228093   4.969   4.609   1.460 -0.1937  0.3491  0.3846
 2201TIP3    H128094   5.031   4.606   1.387  1.7126 -1.7845  1.9353
 2201TIP3    H228095   4.907   4.539   1.442 -0.7302  0.9093  0.0213
 2202TIP3   OH228096   3.282   5.934   2.790 -0.0059 -0.0839 -0.2176
 2202TIP3    H128097   3.356   5.993   2.781  1.2380 -1.0314  2.6498
 2202TIP3    H228098   3.208   5.991   2.810  0.2252  0.7577 -1.6501
 2203TIP3   OH228099   0.343   6.503  14.081 -0.6735  0.1325 -0.6474
 2203TIP3    H128100   0.320   6.473  14.169 -1.1908 -0.8647 -1.1137
 2203TIP3    H228101   0.375   6.593  14.095  2.6412 -1.1383  1.0461
 2204TIP3   OH228102   2.344   4.370   4.264  0.4235  0.0108 -0.4224
 2204TIP3    H128103   2.312   4.417   4.187  1.6539  2.1030  0.2757
 2204TIP3    H228104   2.270   4.373   4.325  0.5001  1.1454 -0.3614
 2205TIP3   OH228105   4.950   3.165  15.107  0.0560 -0.1329 -0.1552
 2205TIP3    H128106   4.897   3.085  15.107 -1.2876  0.7128 -0.8629
 2205TIP3    H228107   4.931   3.206  15.022  0.8367  0.8573  0.1305
 2206TIP3   OH228108   6.066   0.330   0.040  0.1784  0.8152 -0.3752
 2206TIP3    H128109   5.981   0.290   0.023  0.3443  0.8542 -1.4075
 2206TIP3    H228110   6.058   0.368   0.127 -0.2261 -0.7901  0.3072
 2207TIP3   OH228111   1.867   0.840   1.233  0.0055 -0.0930 -0.9110
 2207TIP3    H128112   1.792   0.781   1.239  0.1144 -0.1445  0.2596
 2207TIP3    H228113   1.839   0.920   1.279  0.4577  0.1075 -0.9731
 2208TIP3   OH228114   0.416   6.212  15.844  0.2633  0.2336  0.4571
 2208TIP3    H128115   0.428   6.307  15.844 -0.7681  0.3783  0.3778
 2208TIP3    H228116   0.371   6.194  15.926 -0.2018 -0.0864  0.1366
 2209TIP3   OH228117   2.725   6.551  16.258 -0.4985 -0.6592 -0.0530
 2209TIP3    H128118   2.812   6.513  16.264 -0.9296 -1.9218 -1.2242
 2209TIP3    H228119   2.683   6.528  16.340  0.4921  0.6013  0.8369
 2210TIP3   OH228120   5.657   2.441   1.051  0.3552 -0.4260 -0.1176
 2210TIP3    H128121   5.681   2.498   0.977  0.6665 -1.5029 -0.8605
 2210TIP3    H228122   5.678   2.493   1.128  0.3704  0.5842 -0.7784
 2211TIP3   OH228123   0.826   1.771   5.125 -0.6055 -0.0075  0.0308
 2211TIP3    H128124   0.848   1.826   5.050 -0.4397 -0.5175 -0.2979
 2211TIP3    H228125   0.827   1.831   5.200 -2.6607  0.9107 -0.6117
 2212TIP3   OH228126   3.875   5.138   0.733  0.1658 -0.0907 -0.2268
 2212TIP3    H128127   3.792   5.184   0.741  0.2259  0.4822 -2.3542
 2212TIP3    H228128   3.852   5.045   0.737 -0.5427  0.0711 -0.4223
 2213TIP3   OH228129   1.741   3.997   1.660 -0.0327 -0.3754  0.4301
 2213TIP3    H128130   1.703   4.015   1.574 -0.6570 -3.1234  0.0305
 2213TIP3    H228131   1.827   4.038   1.658  0.9503 -2.2612 -2.4515
 2214TIP3   OH228132   4.484   4.842  14.145 -0.0274 -0.6226 -0.0109
 2214TIP3    H128133   4.531   4.760  14.139  0.3175 -0.3828 -0.6700
 2214TIP3    H228134   4.492   4.868  14.237  0.2911 -1.0629  0.0877
 2215TIP3   OH228135   6.527   0.131  14.139  0.3761  0.3664  0.3052
 2215TIP3    H128136   6.595   0.117  14.205  0.4965 -2.3404 -0.2876
 2215TIP3    H228137   6.462   0.063  14.157 -1.5482  2.0259  0.0007
 2216TIP3   OH228138   4.387   6.443  14.656 -0.0013  0.0350 -0.4713
 2216TIP3    H128139   4.414   6.530  14.687  0.7266 -0.0718 -0.7879
 2216TIP3    H228140   4.310   6.459  14.601 -0.9741  0.2880  0.9003
 2217TIP3   OH228141   2.868   6.739  10.307 -0.3225  0.7282  0.5969
 2217TIP3    H128142   2.819   6.775  10.233 -0.7015  1.7619  1.3362
 2217TIP3    H228143   2.804   6.685  10.353  0.0407 -0.3109 -0.0741
 2218TIP3   OH228144   4.551   1.506   4.746 -0.2209  0.4581  0.1493
 2218TIP3    H128145   4.553   1.417   4.783  4.2221  0.3705  0.2770
 2218TIP3    H228146   4.529   1.492   4.654 -2.4541 -0.3587  0.7435
 2219TIP3   OH228147   2.964   6.370   4.101 -0.5229 -0.4267  0.4606
 2219TIP3    H128148   2.879   6.337   4.130  0.0285 -1.7538  0.6060
 2219TIP3    H228149   2.943   6.434   4.033 -1.5885 -1.9957 -0.7383
 2220TIP3   OH228150   0.015   6.300  10.699 -0.9057  0.1362  0.4706
 2220TIP3    H128151  -0.074   6.276  10.722 -1.2718  2.6090  2.0013
 2220TIP3    H228152   0.070   6.245  10.754 -1.5873  0.3183  1.3510
 2221TIP3   OH228153   0.633   6.784   0.184  0.3776  0.3709  0.1832
 2221TIP3    H128154   0.605   6.868   0.147  3.5700  0.6230 -2.0300
 2221TIP3    H228155   0.617   6.720   0.115  1.4212 -0.1671  0.4176
 2222TIP3   OH228156   6.664   3.626   3.082  0.5700  0.1814 -0.0090
 2222TIP3    H128157   6.663   3.541   3.038  1.8341  0.2226 -0.1423
 2222TIP3    H228158   6.604   3.616   3.156  0.2867 -0.6484 -0.3456
 2223TIP3   OH228159   3.540   0.430   4.720  0.1104 -0.4679  0.0836
 2223TIP3    H128160   3.483   0.361   4.756  1.9279 -3.5074 -2.4200
 2223TIP3    H228161   3.479   0.494   4.684 -1.7418 -2.2497 -0.1376
 2224TIP3   OH228162   0.132   2.111   2.387  0.1780  0.0240  0.2222
 2224TIP3    H128163   0.213   2.148   2.354 -0.0495  0.9233  0.6514
 2224TIP3    H228164   0.101   2.174   2.452 -1.5873  0.4148 -0.9195
 2225TIP3   OH228165   2.506   5.352   5.829 -0.4298 -0.2538 -0.2758
 2225TIP3    H128166   2.506   5.422   5.763 -0.4546 -1.1190 -1.2157
 2225TIP3    H228167   2.462   5.278   5.785 -2.9248 -0.0341  1.6140
 2226TIP3   OH228168   3.379   4.648  13.387  0.2536 -0.9103  0.0465
 2226TIP3    H128169   3.348   4.674  13.474 -1.0031 -2.3876  0.0756
 2226TIP3    H228170   3.424   4.726  13.354 -1.6208  0.6170  0.8939
 2227TIP3   OH228171   2.114   0.185  16.269  0.1031  0.1150 -0.5644
 2227TIP3    H128172   2.039   0.140  16.231 -0.7357  0.8598  0.1745
 2227TIP3    H228173   2.129   0.260  16.212  0.8693 -0.5119 -1.2190
 2228TIP3   OH228174   5.530   5.776  10.478 -0.0222 -0.4754 -0.3208
 2228TIP3    H128175   5.485   5.851  10.516  1.9269  1.6767 -1.9781
 2228TIP3    H228176   5.621   5.786  10.506  0.7385 -0.8512 -2.4903
 2229TIP3   OH228177   4.143   0.833  14.760 -0.5140 -0.6235 -0.0376
 2229TIP3    H128178   4.160   0.770  14.690  0.6510 -0.7177  0.3184
 2229TIP3    H228179   4.120   0.780  14.836  0.1604 -0.6158  0.1776
 2230TIP3   OH228180   3.288   3.707   0.558  0.1127 -0.2366  0.0957
 2230TIP3    H128181   3.254   3.628   0.517  1.5665  0.1518 -2.0218
 2230TIP3    H228182   3.358   3.676   0.616 -0.9254 -0.6694  1.1430
 2231TIP3   OH228183   2.513   0.732  15.752  0.6012  0.1177  0.2689
 2231TIP3    H128184   2.524   0.645  15.713 -1.3016 -0.5452  1.0651
 2231TIP3    H228185   2.601   0.757  15.779  0.9866 -2.4085  1.7406
 2232TIP3   OH228186   3.981   5.757   4.552  0.0142 -0.3512 -0.5268
 2232TIP3    H128187   4.023   5.826   4.501 -0.5460  0.6281  0.2979
 2232TIP3    H228188   3.888   5.780   4.552 -0.2628 -1.4118 -0.6894
 2233TIP3   OH228189   6.695   6.535   5.550  0.2843 -0.0972  0.1104
 2233TIP3    H128190   6.635   6.481   5.500 -0.4945  1.3448 -0.5692
 2233TIP3    H228191   6.677   6.624   5.521 -0.0141  0.7887  2.7686
 2234TIP3   OH228192   2.950   5.515   0.015 -0.4766 -0.4950 -0.5620
 2234TIP3    H128193   2.860   5.504  -0.014 -1.3326 -0.8037  1.9368
 2234TIP3    H228194   2.955   5.606   0.046  0.2706 -0.2974 -1.2087
 2235TIP3   OH228195   6.472   1.645  14.255  0.0391  0.0364  0.3641
 2235TIP3    H128196   6.538   1.677  14.194 -1.3063  2.5091  0.0745
 2235TIP3    H228197   6.470   1.711  14.325 -1.6102 -0.3169  0.7029
 2236TIP3   OH228198   1.264   6.511  14.525  0.5320  0.3600 -0.0899
 2236TIP3    H128199   1.224   6.462  14.597 -0.5483 -0.1986 -1.0344
 2236TIP3    H228200   1.243   6.460  14.447  2.8937  0.1691 -0.7012
 2237TIP3   OH228201   2.560   4.871  13.740 -0.3305  0.6850 -0.5274
 2237TIP3    H128202   2.523   4.783  13.740  0.2496  0.3969 -1.9777
 2237TIP3    H228203   2.489   4.927  13.710 -1.0542  0.9316  1.4815
 2238TIP3   OH228204   5.138   2.636   3.685 -0.1148  0.2582 -0.1998
 2238TIP3    H128205   5.063   2.578   3.676 -0.3637  0.4163  0.7893
 2238TIP3    H228206   5.182   2.606   3.764  0.8782  0.1659 -0.7690
 2239TIP3   OH228207   1.950   4.874  12.282  0.0629  0.2673  0.1256
 2239TIP3    H128208   1.905   4.910  12.205 -0.7235 -1.9760 -0.5368
 2239TIP3    H228209   1.900   4.908  12.356 -1.3925 -0.3738 -0.5218
 2240TIP3   OH228210   0.258   0.150   0.192  0.2712 -0.2266 -0.3722
 2240TIP3    H128211   0.295   0.148   0.280  0.0277 -1.9811 -0.2666
 2240TIP3    H228212   0.327   0.186   0.137  0.4156  0.9168  0.5319
 2241TIP3   OH228213   3.440   0.338  14.013 -0.4595  0.3522  0.1497
 2241TIP3    H128214   3.454   0.421  13.968  0.4486  0.9992  1.5392
 2241TIP3    H228215   3.411   0.363  14.101  0.4952 -0.7517  0.8196
 2242TIP3   OH228216   3.004   0.436   6.276 -0.5784  0.2872  0.3816
 2242TIP3    H128217   3.042   0.406   6.193 -1.6538  0.3524 -0.1478
 2242TIP3    H228218   2.963   0.358   6.313  3.3389 -0.8946  2.9645
 2243TIP3   OH228219   3.298   1.156   0.582 -0.0770 -0.1649 -0.4226
 2243TIP3    H128220   3.307   1.191   0.671 -1.1892 -4.8056  1.8243
 2243TIP3    H228221   3.204   1.146   0.570 -0.0211  1.5335 -2.7435
 2244TIP3   OH228222   3.058   4.469   5.988 -0.2898  0.5425  0.1866
 2244TIP3    H128223   2.985   4.478   6.050 -0.2899  0.2312  0.2300
 2244TIP3    H228224   3.039   4.534   5.920 -0.4850  0.6257  0.3187
 2245TIP3   OH228225   5.528   3.524  11.947 -0.0435  0.2389  0.8848
 2245TIP3    H128226   5.485   3.438  11.952  0.0177  0.1869  0.5314
 2245TIP3    H228227   5.541   3.549  12.039 -0.9980  0.3456  1.0077
 2246TIP3   OH228228   5.330   6.597   2.578  0.1993  0.1043  0.1724
 2246TIP3    H128229   5.235   6.601   2.578  0.1717  1.3162 -2.3786
 2246TIP3    H228230   5.350   6.503   2.570 -0.7287 -0.1866  0.9964
 2247TIP3   OH228231   4.591   4.666  16.324  0.3301 -0.1231 -0.3095
 2247TIP3    H128232   4.674   4.618  16.320  0.9211  0.9362 -1.7971
 2247TIP3    H228233   4.592   4.721  16.246 -1.5150  0.3651 -0.0222
 2248TIP3   OH228234   0.432   5.978   0.403 -0.0686  0.2856  0.3106
 2248TIP3    H128235   0.351   5.982   0.454 -0.6441 -1.3184 -0.4291
 2248TIP3    H228236   0.456   5.886   0.403  0.9550  0.5351 -0.7253
 2249TIP3   OH228237   4.966   2.667  11.096 -0.0774  0.0542 -0.3309
 2249TIP3    H128238   4.899   2.635  11.036 -0.2804  1.1426 -0.7026
 2249TIP3    H228239   4.935   2.754  11.122  1.1417  0.5329 -0.4312
 2250TIP3   OH228240   2.071   6.591  15.907  0.4411  0.6931 -0.8433
 2250TIP3    H128241   1.980   6.588  15.938  1.0374  1.8843  1.2517
 2250TIP3    H228242   2.068   6.648  15.830 -1.1025 -2.3313 -3.2518
 2251TIP3   OH228243   0.801   3.667   4.242 -0.1707  0.3370  0.2245
 2251TIP3    H128244   0.849   3.632   4.318  0.0073  0.3839  0.1337
 2251TIP3    H228245   0.859   3.651   4.168 -0.9970 -1.0937 -0.1453
 2252TIP3   OH228246   4.291   5.851   2.578  0.6404  0.7746  0.1604
 2252TIP3    H128247   4.228   5.779   2.578  0.5075  0.7681 -2.5946
 2252TIP3    H228248   4.283   5.890   2.665  0.2587 -2.1046  1.5590
 2253TIP3   OH228249   0.129   2.503   5.515 -0.4692 -0.0198 -0.6649
 2253TIP3    H128250   0.046   2.490   5.560 -1.8973  0.5388 -2.9647
 2253TIP3    H228251   0.178   2.422   5.530 -2.9246 -1.9298 -2.1492
 2254TIP3   OH228252   3.638   2.073   4.010  0.1441  0.2491  0.2564
 2254TIP3    H128253   3.606   1.984   3.996  0.1142  0.0911  1.2671
 2254TIP3    H228254   3.697   2.089   3.937  0.5072 -0.7711  0.3160
 2255TIP3   OH228255   4.055   5.212   3.920  0.3251  0.4853  0.1611
 2255TIP3    H128256   4.087   5.278   3.859  0.9697 -2.0197 -2.3837
 2255TIP3    H228257   4.134   5.170   3.955  0.1431 -2.8908 -2.9446
 2256TIP3   OH228258   4.650   3.845  10.750 -0.7268  0.5487  0.1059
 2256TIP3    H128259   4.557   3.866  10.737 -1.0668  1.0550  2.8124
 2256TIP3    H228260   4.653   3.750  10.754 -1.2060  0.5484  0.5124
 2257TIP3   OH228261   5.935   0.270  15.469  0.1416  0.6228  0.5753
 2257TIP3    H128262   5.880   0.319  15.407 -0.7568 -0.2190  0.6750
 2257TIP3    H228263   5.879   0.260  15.546  0.3162 -0.5166  0.5632
 2258TIP3   OH228264   3.043   3.793  11.120  0.2577  0.6463  0.0019
 2258TIP3    H128265   2.974   3.836  11.068  0.6764  0.8901 -0.3681
 2258TIP3    H228266   3.076   3.724  11.062  0.1672  0.3794  0.2692
 2259TIP3   OH228267   3.327   1.692  13.383  0.1066 -0.3374  0.1652
 2259TIP3    H128268   3.360   1.703  13.472 -1.7029 -0.7391  0.9189
 2259TIP3    H228269   3.381   1.623  13.346 -0.3392 -1.5156  1.6113
 2260TIP3   OH228270   3.242   5.080   0.302 -0.3627 -0.0097  0.7114
 2260TIP3    H128271   3.169   5.126   0.259 -0.6013  0.5830  1.7051
 2260TIP3    H228272   3.284   5.147   0.356  0.2285 -0.6153  1.0168
 2261TIP3   OH228273   3.700   1.018  15.997 -0.3258  0.6427  0.0626
 2261TIP3    H128274   3.745   0.964  16.062 -0.7822  0.2736  0.0781
 2261TIP3    H228275   3.667   1.093  16.046  1.2935  1.5496 -0.1558
 2262TIP3   OH228276   4.926   3.133  12.957 -0.1384 -0.1100  0.1094
 2262TIP3    H128277   4.897   3.213  12.915  0.5030  0.8351  1.4022
 2262TIP3    H228278   4.907   3.146  13.050  2.1230 -0.4646  0.6773
 2263TIP3   OH228279   6.012   5.384  15.496  0.0919  0.0149  0.2024
 2263TIP3    H128280   6.065   5.455  15.459 -0.5508  0.0828 -0.6320
 2263TIP3    H228281   6.073   5.311  15.504  0.3401  0.1026 -0.7126
 2264TIP3   OH228282   6.745   1.720  16.837 -0.4074 -0.7648  0.0229
 2264TIP3    H128283   6.745   1.748  16.746 -0.7747  0.2596  0.3208
 2264TIP3    H228284   6.811   1.775  16.879 -1.3886 -0.0511  0.6949
 2265TIP3   OH228285   1.189   1.449  17.117 -0.2615  0.2032 -0.0335
 2265TIP3    H128286   1.181   1.527  17.061 -1.1683  0.5972  0.6233
 2265TIP3    H228287   1.152   1.378  17.065 -0.4648  0.4335 -0.2085
 2266TIP3   OH228288   1.180   1.250  13.178 -0.2130 -0.3527 -0.1443
 2266TIP3    H128289   1.196   1.337  13.140 -0.2419 -0.6026 -0.7320
 2266TIP3    H228290   1.243   1.244  13.250 -1.3513  0.8369  1.0161
 2267TIP3   OH228291   6.000   1.567   5.028 -0.3978 -0.3356 -0.2072
 2267TIP3    H128292   5.993   1.488   4.974 -0.9587 -0.7132  0.4008
 2267TIP3    H228293   6.017   1.637   4.965  2.9824 -1.2779 -0.5463
 2268TIP3   OH228294   3.769   1.225  12.228  0.1353 -0.0255  0.5547
 2268TIP3    H128295   3.687   1.233  12.179  1.2600  3.0804 -1.0246
 2268TIP3    H228296   3.775   1.131  12.248 -1.9304 -0.9877 -2.5591
 2269TIP3   OH228297   1.712   1.931   4.263  1.1433  0.2078 -0.6889
 2269TIP3    H128298   1.625   1.972   4.267  0.5318 -1.1178  0.1267
 2269TIP3    H228299   1.757   1.963   4.342  1.6187  1.3183 -1.3849
 2270TIP3   OH228300   0.056   1.368  15.327 -0.1953  0.2273  0.1911
 2270TIP3    H128301   0.099   1.375  15.242 -1.2827 -3.8673 -0.9427
 2270TIP3    H228302  -0.009   1.438  15.328  1.3958  1.8071 -1.2847
 2271TIP3   OH228303   2.159   3.120  10.394  0.5108  0.4103  0.2163
 2271TIP3    H128304   2.074   3.161  10.410  0.6452  0.3374  1.1536
 2271TIP3    H228305   2.139   3.043  10.341  0.1315  1.0317 -0.5806
 2272TIP3   OH228306   5.836   6.444   1.135  0.1456  0.6184 -0.3167
 2272TIP3    H128307   5.891   6.489   1.200 -0.6719  1.2287 -0.0349
 2272TIP3    H228308   5.811   6.362   1.177  2.2066 -0.4705 -1.0924
 2273TIP3   OH228309   2.692   5.439   5.499  0.4462  0.1620  0.0815
 2273TIP3    H128310   2.690   5.348   5.471  0.4294  0.1329  0.1761
 2273TIP3    H228311   2.614   5.478   5.459 -0.0481 -0.0891  0.7892
 2274TIP3   OH228312   4.358   2.097   0.329 -0.2739  0.3334  0.0716
 2274TIP3    H128313   4.393   2.160   0.392 -1.1467  1.0484 -0.1258
 2274TIP3    H228314   4.334   2.150   0.253 -1.3984 -0.1661  0.0534
 2275TIP3   OH228315   0.182   0.520  16.012  1.2567 -0.1993 -0.2190
 2275TIP3    H128316   0.140   0.444  16.052  0.7412  1.2187  2.1319
 2275TIP3    H228317   0.157   0.516  15.920 -2.3130 -0.6493  0.6230
 2276TIP3   OH228318   6.530   3.023   1.947  0.1397  0.1478  0.3712
 2276TIP3    H128319   6.608   3.078   1.958  0.8050 -0.6757 -0.0820
 2276TIP3    H228320   6.520   3.015   1.852 -1.3142  1.3558  0.3952
 2277TIP3   OH228321   4.724   5.068  11.624  0.3802  0.9985  0.0874
 2277TIP3    H128322   4.642   5.115  11.639 -0.5795 -0.2844 -0.8642
 2277TIP3    H228323   4.760   5.109  11.545 -0.6762 -0.0810 -0.9999
 2278TIP3   OH228324   2.434   1.938  13.853 -0.2270 -0.2692 -0.1810
 2278TIP3    H128325   2.345   1.950  13.886  0.3551 -0.2607  1.4764
 2278TIP3    H228326   2.485   2.004  13.899  0.8598 -1.1153 -0.1371
 2279TIP3   OH228327   3.467   1.404  16.719  0.4011  0.1509 -0.3334
 2279TIP3    H128328   3.465   1.386  16.813 -0.8128 -0.2922 -0.4193
 2279TIP3    H228329   3.396   1.467  16.706  2.7830  2.9777 -0.4668
 2280TIP3   OH228330   4.681   2.255  14.191  0.2324  0.0407  0.6458
 2280TIP3    H128331   4.596   2.219  14.217 -0.8067  1.1462 -1.0354
 2280TIP3    H228332   4.742   2.182  14.200 -0.8860 -0.7960  1.8221
 2281TIP3   OH228333   5.012   4.584  13.887  0.6176 -0.3727 -0.3605
 2281TIP3    H128334   4.923   4.589  13.922  0.5621 -2.7310 -0.0043
 2281TIP3    H228335   5.018   4.657  13.825 -1.0253  0.7560  0.7495
 2282TIP3   OH228336   4.016   3.628  17.111  0.4687  0.4928 -0.2470
 2282TIP3    H128337   4.109   3.611  17.095  0.3659 -0.4258  0.0815
 2282TIP3    H228338   3.972   3.547  17.088 -0.2817  0.9765 -0.5519
 2283TIP3   OH228339   3.313   1.646  17.183 -0.1605 -0.6129 -0.0552
 2283TIP3    H128340   3.387   1.678  17.131 -0.7164  1.6245  0.3849
 2283TIP3    H228341   3.247   1.622  17.119 -0.8234  2.0675 -0.4967
 2284TIP3   OH228342   4.519   2.732   1.268  0.1899 -0.1326  0.0438
 2284TIP3    H128343   4.610   2.728   1.298  0.5738  1.1787 -0.8310
 2284TIP3    H228344   4.482   2.648   1.292  0.9801  0.1205  2.4493
 2285TIP3   OH228345   1.691   1.713   4.486 -0.1973  0.0257 -0.0618
 2285TIP3    H128346   1.727   1.660   4.558  2.7910 -0.2700 -1.6391
 2285TIP3    H228347   1.749   1.789   4.481  0.4092 -0.5450 -2.8852
 2286TIP3   OH228348   3.198   1.953   5.495  0.2903  0.1017 -0.2789
 2286TIP3    H128349   3.117   1.925   5.538  0.4764 -1.0249 -0.6411
 2286TIP3    H228350   3.255   1.978   5.568 -0.1444  0.2833  0.0108
 2287TIP3   OH228351   6.038   0.275  10.991 -0.5997  0.0576  0.2767
 2287TIP3    H128352   5.962   0.334  10.993 -0.0593  0.9800 -2.6797
 2287TIP3    H228353   6.114   0.333  10.994 -0.0465 -0.5768 -0.8945
 2288TIP3   OH228354   2.843   1.164   0.785  0.1576 -0.5200 -0.3539
 2288TIP3    H128355   2.880   1.173   0.873  0.3378  0.7634 -0.5459
 2288TIP3    H228356   2.837   1.253   0.751  0.5698 -1.0181 -1.8485
 2289TIP3   OH228357   4.156   1.776   4.857 -0.0556 -0.5530 -0.0488
 2289TIP3    H128358   4.145   1.837   4.930 -4.4044 -0.3318 -0.6592
 2289TIP3    H228359   4.150   1.689   4.897  0.2772 -0.4938  0.1356
 2290TIP3   OH228360   2.596   1.216  11.553  0.0796  0.1719 -0.1962
 2290TIP3    H128361   2.614   1.190  11.462 -1.0027 -1.5662  0.0528
 2290TIP3    H228362   2.681   1.209  11.597  0.6174  1.0191 -1.0366
 2291TIP3   OH228363   4.744   2.233   0.819  0.1174  0.6830 -0.5745
 2291TIP3    H128364   4.694   2.311   0.796  0.7570  0.5915 -2.3849
 2291TIP3    H228365   4.679   2.167   0.839 -0.4660  0.9547 -1.5514
 2292TIP3   OH228366   0.685   2.524   1.032  0.1223 -0.2517  0.1090
 2292TIP3    H128367   0.763   2.561   0.993 -1.9143  1.8492 -2.3578
 2292TIP3    H228368   0.650   2.465   0.965 -1.6669  0.7853  0.0489
 2293TIP3   OH228369   0.323   0.852   4.173 -0.2834 -0.2289 -0.3221
 2293TIP3    H128370   0.341   0.938   4.135 -2.4911 -0.3723 -1.8695
 2293TIP3    H228371   0.329   0.791   4.099  0.9926 -1.4016  0.6959
 2294TIP3   OH228372   4.598   1.436   0.591  0.3039 -0.6885  0.3292
 2294TIP3    H128373   4.552   1.421   0.509 -1.7653  1.0831  1.0701
 2294TIP3    H228374   4.610   1.349   0.628 -2.2788 -1.2898 -0.0371
 2295TIP3   OH228375   3.378   3.650  10.923 -0.5537 -0.3118 -0.3660
 2295TIP3    H128376   3.379   3.729  10.977  0.3914  0.0403 -0.8769
 2295TIP3    H228377   3.285   3.627  10.915 -0.8669  0.9493 -0.5079
 2296TIP3   OH228378   2.890   1.191   4.711 -0.2689 -0.2321  0.1687
 2296TIP3    H128379   2.805   1.218   4.676  0.3978 -1.1361 -2.4136
 2296TIP3    H228380   2.875   1.103   4.746 -0.2065 -0.9260 -1.4413
 2297TIP3   OH228381   0.904   1.195  15.388  0.1262 -0.0450 -0.3535
 2297TIP3    H128382   0.994   1.184  15.418  0.2230  0.9996 -0.2115
 2297TIP3    H228383   0.910   1.197  15.293  0.3575  0.7332 -0.3307
 2298TIP3   OH228384   2.162   1.830  15.690  0.1096  0.3403  0.5063
 2298TIP3    H128385   2.137   1.864  15.605 -1.2573  1.4261  1.2986
 2298TIP3    H228386   2.232   1.888  15.720  1.0932 -0.4752 -0.1536
 2299TIP3   OH228387   0.341   3.294   1.789  0.2672 -0.6381 -0.1326
 2299TIP3    H128388   0.289   3.311   1.711 -1.8393 -2.7762  0.6806
 2299TIP3    H228389   0.430   3.280   1.757  0.0395  1.2993 -1.7870
 2300TIP3   OH228390   5.183   5.970   2.102  0.4041  0.2773  0.0199
 2300TIP3    H128391   5.242   5.894   2.100  0.1596  0.0871  0.0204
 2300TIP3    H228392   5.241   6.044   2.117  0.6956  0.1440 -0.4259
 2301TIP3   OH228393   5.823   3.177  15.403 -0.1703  0.6165 -0.1776
 2301TIP3    H128394   5.845   3.097  15.355 -0.9341  0.1310  0.2653
 2301TIP3    H228395   5.907   3.207  15.439  0.0623 -0.2014 -0.0244
 2302TIP3   OH228396   3.138   0.638   2.923  0.4884  0.5237  0.0873
 2302TIP3    H128397   3.185   0.721   2.934  0.4946  0.6390 -0.7747
 2302TIP3    H228398   3.046   0.664   2.921  0.3936  0.3508  1.2414
 2303TIP3   OH228399   6.465   1.141  12.865 -0.7883  0.0808  0.5168
 2303TIP3    H128400   6.532   1.120  12.800 -1.1325 -0.5954  0.3727
 2303TIP3    H228401   6.492   1.094  12.944 -1.8456 -1.4144  0.0364
 2304TIP3   OH228402   6.557   4.203   0.382  0.7799 -0.1236  0.4147
 2304TIP3    H128403   6.470   4.242   0.387  0.7034 -0.1957 -0.3212
 2304TIP3    H228404   6.598   4.245   0.306  0.5636 -1.7510 -0.6304
 2305TIP3   OH228405   1.632   5.387  13.718 -0.5647  0.3720 -0.1277
 2305TIP3    H128406   1.599   5.376  13.629 -0.3691 -0.9100 -0.0581
 2305TIP3    H228407   1.681   5.307  13.736 -1.1939  0.2807  1.3916
 2306TIP3   OH228408   5.504   1.926  15.334 -0.2593 -0.0138 -0.0250
 2306TIP3    H128409   5.522   1.840  15.296 -0.2313  0.5768 -1.4183
 2306TIP3    H228410   5.464   1.907  15.419 -0.6754 -1.4063 -0.5041
 2307TIP3   OH228411   0.806   4.502   6.262  0.1110 -0.6659 -0.0154
 2307TIP3    H128412   0.819   4.478   6.171 -0.2777  0.7388 -0.4673
 2307TIP3    H228413   0.831   4.424   6.312  4.1337 -0.2631 -1.0628
 2308TIP3   OH228414   0.377   2.531  13.651 -0.3443  0.0982  0.9007
 2308TIP3    H128415   0.286   2.559  13.654 -0.0385  1.5082 -0.7733
 2308TIP3    H228416   0.381   2.470  13.578 -0.0314 -0.3008  1.2480
 2309TIP3   OH228417   3.556   2.427  16.899 -0.4301  0.3414 -0.0550
 2309TIP3    H128418   3.523   2.506  16.944 -0.4074 -0.0258  0.6216
 2309TIP3    H228419   3.650   2.440  16.895 -0.6761  2.2477 -3.6099
 2310TIP3   OH228420   0.840   2.830   2.624 -0.6313  0.1444 -0.0008
 2310TIP3    H128421   0.788   2.884   2.565 -0.7834 -1.4179 -1.3501
 2310TIP3    H228422   0.804   2.742   2.614  0.9125 -0.5887  0.6234
 2311TIP3   OH228423   2.650   2.303   2.671 -0.2790 -0.1682 -0.3144
 2311TIP3    H128424   2.610   2.231   2.622 -1.4448 -0.2887  0.7668
 2311TIP3    H228425   2.606   2.301   2.756  0.2027  1.3587 -0.0105
 2312TIP3   OH228426   1.052   2.865  17.106  0.4255  0.3217  0.3308
 2312TIP3    H128427   1.072   2.832  17.194  2.7649  1.9181  0.4803
 2312TIP3    H228428   1.137   2.875  17.065 -0.5453  1.0906 -1.5982
 2313TIP3   OH228429   0.456   3.647   3.371  0.1194  0.2693 -0.0813
 2313TIP3    H128430   0.545   3.612   3.371  0.2575  0.5848  0.9905
 2313TIP3    H228431   0.419   3.621   3.456 -0.4141  1.1112 -0.0415
 2314TIP3   OH228432   2.452   4.437   3.430 -0.0092  0.6331 -0.1706
 2314TIP3    H128433   2.407   4.483   3.359  0.1905 -0.3913 -0.9744
 2314TIP3    H228434   2.433   4.345   3.416  0.6839  0.3478  0.6595
 2315TIP3   OH228435   6.552   6.519  10.651 -0.4148  0.7617  0.1823
 2315TIP3    H128436   6.607   6.482  10.583 -2.2833 -0.9330 -0.5166
 2315TIP3    H228437   6.520   6.601  10.613  0.9086  1.3409  0.2722
 2316TIP3   OH228438   6.193   3.107   2.948  0.7934  0.4794  0.2288
 2316TIP3    H128439   6.150   3.027   2.978  0.9059  0.0229 -0.7840
 2316TIP3    H228440   6.141   3.178   2.987  0.9276 -0.0693  1.4617
 2317TIP3   OH228441   0.483   4.773   2.852  0.4649 -0.0848  0.8067
 2317TIP3    H128442   0.484   4.682   2.822  1.7261  0.9984 -3.0515
 2317TIP3    H228443   0.574   4.802   2.845 -0.0924  1.7914  0.7241
 2318TIP3   OH228444   4.734   5.897  11.456  0.1873 -0.4227  0.0156
 2318TIP3    H128445   4.715   5.815  11.409 -1.1742  0.7265 -1.5458
 2318TIP3    H228446   4.778   5.952  11.391 -2.6152  1.5739 -0.3923
 2319TIP3   OH228447   2.145   1.699   2.804  0.3032  0.4872  0.3537
 2319TIP3    H128448   2.240   1.691   2.795  0.2944 -0.3092  0.7796
 2319TIP3    H228449   2.110   1.633   2.745 -0.0594  1.9182 -1.0828
 2320TIP3   OH228450   3.400   0.279  17.080  0.2499  0.4673  0.0699
 2320TIP3    H128451   3.316   0.242  17.054 -0.2376  1.7356 -0.2429
 2320TIP3    H228452   3.456   0.203  17.095 -0.3157 -0.3757 -1.7943
 2321TIP3   OH228453   1.959   2.682  13.306 -0.2838  1.1670  0.1112
 2321TIP3    H128454   2.027   2.700  13.242  0.6731 -2.3575 -0.0795
 2321TIP3    H228455   1.979   2.594  13.338 -4.4698  0.1094  0.4047
 2322TIP3   OH228456   0.113   6.144  12.605 -0.3617  0.5406  0.5451
 2322TIP3    H128457   0.111   6.238  12.619  1.2609  1.0205 -1.8629
 2322TIP3    H228458   0.179   6.111  12.665  0.4010  1.2359  0.1015
 2323TIP3   OH228459   1.047   0.513  16.761 -0.3790  0.0095 -0.0638
 2323TIP3    H128460   1.099   0.576  16.812 -0.8495  0.4751 -0.1523
 2323TIP3    H228461   1.026   0.559  16.680 -3.0930  0.8518  0.9906
 2324TIP3   OH228462   5.318   5.532   2.517 -0.3621 -0.2623  0.4199
 2324TIP3    H128463   5.326   5.532   2.422 -0.1093 -0.0006  0.4379
 2324TIP3    H228464   5.258   5.604   2.536  0.2779  0.2676  0.5031
 2325TIP3   OH228465   0.575   6.153  13.972  0.5309 -0.2160 -0.3678
 2325TIP3    H128466   0.638   6.105  14.026  0.3892  0.6861  0.6161
 2325TIP3    H228467   0.501   6.093  13.962  0.4347 -0.2763  0.6820
 2326TIP3   OH228468   0.640   3.358  14.480  0.4601 -0.1701  0.3016
 2326TIP3    H128469   0.694   3.417  14.532  0.5810 -1.0591  1.2125
 2326TIP3    H228470   0.699   3.327  14.410  0.7192 -0.0699  0.4757
 2327TIP3   OH228471   2.852   5.149  12.427  0.3934  0.0388  0.2022
 2327TIP3    H128472   2.822   5.096  12.500  2.2701  0.8805  1.6712
 2327TIP3    H228473   2.942   5.172  12.449  0.6343  1.3114 -1.8183
 2328TIP3   OH228474   4.505   0.895  13.256  0.0199 -0.5205  0.4202
 2328TIP3    H128475   4.427   0.949  13.263 -0.9782 -1.5890 -1.4860
 2328TIP3    H228476   4.554   0.911  13.336 -0.8591  2.1716  0.4966
 2329TIP3   OH228477   5.016   3.580   3.603  0.3166  0.2215  0.3236
 2329TIP3    H128478   5.077   3.653   3.598  0.0199  0.3672 -2.1261
 2329TIP3    H228479   4.939   3.616   3.647  0.6433  1.0384  0.2441
 2330TIP3   OH228480   1.492   0.659   4.191 -0.5921  0.3329 -0.1329
 2330TIP3    H128481   1.402   0.634   4.209 -0.6630  2.1303  2.5869
 2330TIP3    H228482   1.544   0.584   4.221 -1.0535  0.8650  2.1677
 2331TIP3   OH228483   5.462   4.519   1.500 -0.5260  0.6464 -0.1474
 2331TIP3    H128484   5.415   4.533   1.582 -0.1779 -1.3079  0.4372
 2331TIP3    H228485   5.545   4.567   1.512 -1.5610  2.6310 -0.4896
 2332TIP3   OH228486   1.305   0.714  16.152  0.6682 -0.1732  0.3035
 2332TIP3    H128487   1.265   0.656  16.217  0.3246 -1.8630 -1.3295
 2332TIP3    H228488   1.384   0.668  16.124  1.6188  1.2411  0.5616
 2333TIP3   OH228489   6.764   1.661  11.372  0.3404 -0.3499 -0.2982
 2333TIP3    H128490   6.851   1.622  11.381 -0.5256 -3.0415 -2.2582
 2333TIP3    H228491   6.773   1.726  11.303  0.9769  0.0834  0.1864
 2334TIP3   OH228492   2.691   4.723   1.292 -0.2144  0.1194 -0.3877
 2334TIP3    H128493   2.736   4.652   1.338  1.4655  1.6359  0.4489
 2334TIP3    H228494   2.758   4.790   1.281 -1.5477  1.2833 -1.8244
 2335TIP3   OH228495   1.581   0.947   1.812 -0.1997  0.0908 -0.3739
 2335TIP3    H128496   1.540   1.033   1.802 -1.1145 -0.4241 -1.2640
 2335TIP3    H228497   1.580   0.910   1.723  0.2381 -0.8104 -0.0152
 2336TIP3   OH228498   6.837   2.289  16.885 -0.0170  0.1468  0.5060
 2336TIP3    H128499   6.803   2.270  16.972  0.2809 -1.8127  0.2519
 2336TIP3    H228500   6.925   2.323  16.901 -0.6760  1.6668  1.0193
 2337TIP3   OH228501   0.727   6.159  14.743 -0.0229  0.3742  0.5750
 2337TIP3    H128502   0.708   6.065  14.735  1.8458 -0.0349  0.6075
 2337TIP3    H228503   0.794   6.164  14.811  0.5234  1.6620 -0.0261
 2338TIP3   OH228504   3.297   3.276   6.304  0.2589 -0.4768 -0.4877
 2338TIP3    H128505   3.209   3.284   6.340 -0.0167 -1.6840 -0.8534
 2338TIP3    H228506   3.291   3.317   6.218  0.4096  0.6175  0.0023
 2339TIP3   OH228507   6.438   5.038  11.879 -0.5567  0.0766 -0.6156
 2339TIP3    H128508   6.520   5.000  11.910 -1.1218 -0.7922 -0.1319
 2339TIP3    H228509   6.434   5.015  11.786  0.4023  1.3327 -0.9780
 2340TIP3   OH228510   2.137   1.700  11.886 -0.1929  0.0686 -0.2713
 2340TIP3    H128511   2.110   1.610  11.902  0.7244  0.0289  1.1790
 2340TIP3    H228512   2.233   1.698  11.887 -0.1398  1.2627  1.1915
 2341TIP3   OH228513   3.318   2.006   3.821 -0.0167 -0.0547 -0.3469
 2341TIP3    H128514   3.360   2.092   3.819  0.8263 -0.4607 -0.8947
 2341TIP3    H228515   3.227   2.022   3.798  0.3127  0.6010 -1.2170
 2342TIP3   OH228516   3.203   0.226  10.949  0.2813  0.2196 -0.0446
 2342TIP3    H128517   3.192   0.149  10.893 -0.0288  0.5049 -0.3818
 2342TIP3    H228518   3.271   0.277  10.907  0.6977 -0.0125  0.3424
 2343TIP3   OH228519   2.106   5.196   3.234  0.1470  0.1249 -0.4189
 2343TIP3    H128520   2.185   5.249   3.243  0.5757 -0.7422  1.7298
 2343TIP3    H228521   2.080   5.205   3.142  1.2960  2.4290 -0.5791
 2344TIP3   OH228522   4.849   6.213  11.444  0.3001 -0.8307 -0.4851
 2344TIP3    H128523   4.806   6.262  11.374 -0.4464  1.2067  1.2621
 2344TIP3    H228524   4.902   6.279  11.489 -0.1494 -1.7664  1.5415
 2345TIP3   OH228525   1.514   4.207   3.879  0.1808  0.3765  0.5391
 2345TIP3    H128526   1.545   4.123   3.847  0.4006  0.5613  0.2607
 2345TIP3    H228527   1.593   4.260   3.887 -0.0269  0.7654  0.0829
 2346TIP3   OH228528   2.659   5.988  17.177  0.8897  0.2857  0.2746
 2346TIP3    H128529   2.714   5.996  17.255  0.7097  2.5402  0.2316
 2346TIP3    H228530   2.709   6.030  17.107  0.5094 -0.5908 -0.5551
 2347TIP3   OH228531   1.801   1.779   4.060  0.2031  0.0529  0.3369
 2347TIP3    H128532   1.770   1.825   4.138 -0.0758  0.3971  0.0265
 2347TIP3    H228533   1.836   1.696   4.093 -1.4997 -0.5814  0.6640
 2348TIP3   OH228534   0.100   2.491   0.862 -0.5796 -0.6933  1.1016
 2348TIP3    H128535   0.069   2.401   0.874 -0.4117 -0.9108 -0.0227
 2348TIP3    H228536   0.072   2.515   0.774 -1.0227  0.5353  1.5578
 2349TIP3   OH228537   5.858   2.801   3.674 -0.1954 -0.2140  0.6542
 2349TIP3    H128538   5.788   2.849   3.719 -1.2331 -0.9304 -0.1224
 2349TIP3    H228539   5.839   2.709   3.692  1.2378 -0.3884  1.3761
 2350TIP3   OH228540   1.401   4.967  13.384 -0.3123  0.2891  0.1545
 2350TIP3    H128541   1.413   4.879  13.348 -1.6140  0.3363 -0.4390
 2350TIP3    H228542   1.394   4.953  13.478  0.2870 -0.1544  0.1399
 2351TIP3   OH228543   4.327   1.409   1.861 -0.1943 -0.0673 -0.3351
 2351TIP3    H128544   4.242   1.443   1.831  0.4391  1.1515 -0.8219
 2351TIP3    H228545   4.375   1.390   1.781  0.0527 -0.6057 -0.0636
 2352TIP3   OH228546   3.094   2.258  15.638 -0.1230  0.5273 -0.2168
 2352TIP3    H128547   3.175   2.208  15.627  0.4025  0.6604  2.3562
 2352TIP3    H228548   3.124   2.348  15.655 -1.0000  1.4492 -2.9729
 2353TIP3   OH228549   6.326   0.143  12.654 -0.2342  0.2389  0.2087
 2353TIP3    H128550   6.395   0.082  12.679  0.9427  1.8999  1.2402
 2353TIP3    H228551   6.273   0.153  12.733 -0.6421  0.2757 -0.0665
 2354TIP3   OH228552   1.032   3.474   5.463  0.6864 -0.5283  0.3618
 2354TIP3    H128553   0.970   3.488   5.534  0.3523  0.7769 -0.1514
 2354TIP3    H228554   1.034   3.379   5.449  0.2117 -0.7307  1.6121
 2355TIP3   OH228555   6.777   1.995   2.250 -0.8306  0.5063 -0.1136
 2355TIP3    H128556   6.850   2.036   2.296 -0.7187  0.3009 -0.1052
 2355TIP3    H228557   6.735   2.066   2.203 -1.4450  0.8648  0.9547
 2356TIP3   OH228558   0.511   6.777  11.673 -0.6861 -0.1683  0.8402
 2356TIP3    H128559   0.433   6.816  11.713 -1.0047  0.5038 -0.3926
 2356TIP3    H228560   0.503   6.797  11.580  0.4165 -1.0446  0.5340
 2357TIP3   OH228561   5.269   1.835  12.441  0.6235  0.4442 -0.3981
 2357TIP3    H128562   5.358   1.800  12.435  0.7023  0.4101  0.7011
 2357TIP3    H228563   5.263   1.871  12.530 -0.2722  0.9750 -0.6523
 2358TIP3   OH228564   1.660   0.957  15.222 -0.0645 -0.5187  1.0019
 2358TIP3    H128565   1.591   0.921  15.167 -0.2634  0.8922  0.2965
 2358TIP3    H228566   1.619   0.967  15.308 -1.5557  2.4429  0.0810
 2359TIP3   OH228567   3.034   0.434  16.778  0.3802  0.3785  0.0370
 2359TIP3    H128568   3.000   0.521  16.797  3.2839  1.2680  1.8101
 2359TIP3    H228569   3.100   0.448  16.710  0.4558 -0.5453 -0.0911
 2360TIP3   OH228570   6.013   4.301  11.255 -0.2381  0.5813 -0.6939
 2360TIP3    H128571   6.079   4.271  11.318  1.5578  1.0147 -2.2685
 2360TIP3    H228572   5.959   4.224  11.238  0.2018  0.0529  0.2247
 2361TIP3   OH228573   6.581   3.482   1.499 -0.0746  0.0442 -0.2828
 2361TIP3    H128574   6.519   3.493   1.571  1.2180 -1.8136  1.1938
 2361TIP3    H228575   6.549   3.405   1.451  1.0572 -0.9741  0.5317
 2362TIP3   OH228576   5.058   5.618   3.731  0.0931 -0.5840  0.2709
 2362TIP3    H128577   5.143   5.584   3.760  0.8746 -0.2746 -1.5062
 2362TIP3    H228578   5.051   5.589   3.639 -0.7622  1.1482 -0.2437
 2363TIP3   OH228579   3.555   0.575   4.343 -0.7364  0.3899 -0.0546
 2363TIP3    H128580   3.565   0.486   4.377  2.3306  1.0345  1.1077
 2363TIP3    H228581   3.594   0.572   4.256 -1.3328  0.4575 -0.3292
 2364TIP3   OH228582   2.773   5.559  11.438 -0.5802 -0.0443  0.0566
 2364TIP3    H128583   2.816   5.501  11.375  0.5374 -1.3107  1.9052
 2364TIP3    H228584   2.801   5.647  11.413  2.0478 -0.7150  0.3631
 2365TIP3   OH228585   0.929   0.907   4.577 -0.0596 -0.1254  0.0845
 2365TIP3    H128586   0.881   0.885   4.497  0.0504  0.2186 -0.0751
 2365TIP3    H228587   0.917   0.830   4.633  0.0596 -0.4655 -0.3505
 2366TIP3   OH228588   5.132   2.269  14.151  0.0413 -0.8935 -0.2268
 2366TIP3    H128589   5.067   2.324  14.108  0.2611 -1.3743 -1.2224
 2366TIP3    H228590   5.196   2.250  14.082  2.7630  1.7713  1.2953
 2367TIP3   OH228591   0.655   0.976  14.165 -0.0082  0.4098 -0.4215
 2367TIP3    H128592   0.635   0.969  14.072  1.0959  0.6015 -0.6874
 2367TIP3    H228593   0.681   1.067  14.177 -0.0152  0.3519  0.0435
 2368TIP3   OH228594   6.521   6.252   4.997  0.2698 -0.2411 -0.8847
 2368TIP3    H128595   6.493   6.343   4.997  1.3105  0.0949 -0.8518
 2368TIP3    H228596   6.457   6.207   4.942  0.8027  0.8606 -2.4926
 2369TIP3   OH228597   6.813   5.567   1.524 -0.0195  0.2415  0.3592
 2369TIP3    H128598   6.867   5.489   1.512  0.5976  0.4142  1.7777
 2369TIP3    H228599   6.860   5.619   1.589 -0.3018  1.9240 -0.7127
 2370TIP3   OH228600   0.995   5.524   0.153 -0.5643 -0.6677  0.7680
 2370TIP3    H128601   0.992   5.447   0.210 -1.1331 -1.0600  0.2289
 2370TIP3    H228602   0.993   5.488   0.064 -1.6647 -0.0108  0.5041
 2371TIP3   OH228603   1.517   2.711  12.056  0.0897 -0.1993 -0.6809
 2371TIP3    H128604   1.533   2.786  11.999  1.7476 -0.9885 -1.3201
 2371TIP3    H228605   1.577   2.724  12.130 -0.9226  0.0139  0.1330
 2372TIP3   OH228606   4.087   2.462  16.795  0.1103 -0.5846 -0.1788
 2372TIP3    H128607   3.993   2.459  16.811 -0.3132  0.8116 -2.0711
 2372TIP3    H228608   4.107   2.378  16.753 -0.1653 -1.1156  0.7354
 2373TIP3   OH228609   5.597   0.487   2.048  0.2247 -0.4954 -0.1637
 2373TIP3    H128610   5.619   0.405   2.091 -1.5742 -0.6367  0.5542
 2373TIP3    H228611   5.548   0.537   2.113  1.1788  1.1227 -0.6208
 2374TIP3   OH228612   1.486   2.250   5.003  0.2429  0.3058 -0.5803
 2374TIP3    H128613   1.430   2.324   4.977  0.4680 -0.2564 -2.8744
 2374TIP3    H228614   1.572   2.270   4.966  0.9790  0.0155  0.8733
 2375TIP3   OH228615   6.582   2.740  13.509  0.2779 -0.5768 -0.1241
 2375TIP3    H128616   6.672   2.755  13.480  0.3483  0.8048  0.7347
 2375TIP3    H228617   6.542   2.687  13.439  1.0286  0.8881 -1.7154
 2376TIP3   OH228618   2.609   1.850   0.843  0.5921 -0.9290 -0.6004
 2376TIP3    H128619   2.518   1.872   0.865  1.0146 -0.4824  0.8494
 2376TIP3    H228620   2.608   1.756   0.827 -0.1405 -0.9159 -0.6584
 2377TIP3   OH228621   1.831   0.357   4.789  0.2421  0.5500 -0.1047
 2377TIP3    H128622   1.803   0.432   4.842  0.1354 -0.6609  1.6191
 2377TIP3    H228623   1.927   0.359   4.795  0.2927  1.1723 -0.9801
 2378TIP3   OH228624   6.154   6.281   0.509  0.2543 -0.3281  0.5466
 2378TIP3    H128625   6.097   6.351   0.542 -1.9716 -0.4984 -2.5440
 2378TIP3    H228626   6.141   6.209   0.571 -0.6482  0.6134  1.5067
 2379TIP3   OH228627   5.588   1.940   1.265  0.4751  0.3450 -0.0419
 2379TIP3    H128628   5.631   1.973   1.186 -0.6637  1.8179 -0.0943
 2379TIP3    H228629   5.520   1.881   1.233  1.7112 -1.1609 -0.0037
 2380TIP3   OH228630   3.638   4.459   0.838 -0.2648  0.3764  0.9179
 2380TIP3    H128631   3.679   4.538   0.872  1.7168 -0.2805  0.1758
 2380TIP3    H228632   3.575   4.490   0.773 -0.4047  1.3676  1.5036
 2381TIP3   OH228633   0.177   0.648  11.788 -0.0053 -0.1678  0.0051
 2381TIP3    H128634   0.090   0.659  11.751 -1.0298 -1.7096  1.8062
 2381TIP3    H228635   0.221   0.588  11.727  0.0899  1.1436 -1.2732
 2382TIP3   OH228636   2.111   0.740   1.934  0.4076  0.2417  0.3207
 2382TIP3    H128637   2.163   0.682   1.878 -1.3717 -1.2230  0.1095
 2382TIP3    H228638   2.041   0.772   1.876  0.3509  1.2312  0.9085
 2383TIP3   OH228639   6.058   4.448  12.982  0.5063  0.3455  0.4666
 2383TIP3    H128640   6.080   4.507  13.054 -0.0921  0.5807  0.4679
 2383TIP3    H228641   6.048   4.363  13.024  0.0960  0.4935  0.6816
 2384TIP3   OH228642   5.724   3.010  13.995 -0.8111  0.1102 -0.7287
 2384TIP3    H128643   5.639   3.053  13.996 -0.9718 -0.0982 -2.4436
 2384TIP3    H228644   5.703   2.916  13.992 -0.5360  0.0602 -1.2227
 2385TIP3   OH228645   1.649   1.979   5.717 -0.0377 -0.4739  0.3476
 2385TIP3    H128646   1.647   2.018   5.804 -0.4833  0.5637 -0.1176
 2385TIP3    H228647   1.560   1.987   5.684  0.3050 -0.1227 -0.5220
 2386TIP3   OH228648   4.327   1.598   1.624 -0.2151  0.3411 -0.1499
 2386TIP3    H128649   4.274   1.615   1.546  0.7752  2.2395 -0.4633
 2386TIP3    H228650   4.409   1.564   1.589 -0.2113  0.0347  0.1574
 2387TIP3   OH228651   6.719   4.118   4.032  0.1728 -0.2360  0.4154
 2387TIP3    H128652   6.798   4.068   4.011  0.6656  0.7536 -0.1516
 2387TIP3    H228653   6.647   4.061   4.004  0.7386 -0.3111 -0.9771
 2388TIP3   OH228654   1.872   1.903  13.465  0.1375  0.0479  0.2317
 2388TIP3    H128655   1.817   1.835  13.503  1.5142 -0.3313  1.6339
 2388TIP3    H228656   1.957   1.861  13.453  0.1344  0.5816 -2.0235
 2389TIP3   OH228657   5.132   4.612  13.345 -0.2987  0.4233 -0.1576
 2389TIP3    H128658   5.122   4.542  13.281  0.8827  2.3910 -2.6923
 2389TIP3    H228659   5.175   4.571  13.420 -1.5844 -1.9516 -0.6564
 2390TIP3   OH228660   2.753   5.130  13.502  0.0673  0.5797  0.1816
 2390TIP3    H128661   2.848   5.125  13.519  0.1648 -1.0625 -0.6509
 2390TIP3    H228662   2.738   5.065  13.433 -2.0900 -1.2499  2.2191
 2391TIP3   OH228663   1.917   3.557  12.217  0.2811 -0.3305 -0.4654
 2391TIP3    H128664   1.923   3.630  12.278  0.8510  0.1849 -1.1134
 2391TIP3    H228665   1.827   3.525  12.226 -0.3109  1.1166 -0.9095
 2392TIP3   OH228666   4.793   2.761  14.510 -0.8888  0.9816 -0.5837
 2392TIP3    H128667   4.774   2.707  14.434  1.4649  0.2361 -0.7351
 2392TIP3    H228668   4.787   2.851  14.477  0.7608  0.6688 -1.9022
 2393TIP3   OH228669   1.598   3.488  14.330  0.0751 -0.5717  0.0291
 2393TIP3    H128670   1.691   3.484  14.352 -0.3110 -0.0682  1.9017
 2393TIP3    H228671   1.588   3.571  14.284  0.2330  0.2954  1.5301
 2394TIP3   OH228672   0.775   1.211   3.527 -0.3070 -0.3828  0.7562
 2394TIP3    H128673   0.750   1.302   3.517  0.2932 -0.2055  0.7876
 2394TIP3    H228674   0.708   1.161   3.481  0.2222  0.1637 -0.6729
 2395TIP3   OH228675   0.662   1.448   0.530 -0.1385  0.7660 -0.3263
 2395TIP3    H128676   0.586   1.480   0.482 -0.1203 -0.0140 -0.8839
 2395TIP3    H228677   0.671   1.356   0.504  0.5856  0.6587  0.2549
 2396TIP3   OH228678   5.283   2.063   2.074  0.0704  0.4640 -0.6556
 2396TIP3    H128679   5.242   2.108   2.001  0.1088  2.0429  0.2582
 2396TIP3    H228680   5.220   2.070   2.146  0.6683  0.2654 -0.0977
 2397TIP3   OH228681   4.483   5.243   5.728 -0.0416 -0.2114  0.5683
 2397TIP3    H128682   4.494   5.248   5.823  0.4659 -0.5130  0.5292
 2397TIP3    H228683   4.394   5.208   5.716  0.2071 -1.0040  0.9519
 2398TIP3   OH228684   6.277   5.372  15.722 -0.4700 -0.0983  0.7239
 2398TIP3    H128685   6.276   5.346  15.814  0.5997  0.9769  1.0575
 2398TIP3    H228686   6.364   5.348  15.691 -0.7884 -0.3558  0.0145
 2399TIP3   OH228687   2.778   0.137   2.652 -0.6445  0.0416 -0.6006
 2399TIP3    H128688   2.863   0.097   2.668 -0.3173  0.8160 -0.4088
 2399TIP3    H228689   2.796   0.220   2.609 -1.2684  0.4704 -0.0616
 2400TIP3   OH228690   0.162   3.383  11.572 -0.6411  1.1116  0.0550
 2400TIP3    H128691   0.091   3.322  11.590 -0.6919  0.7267 -1.3320
 2400TIP3    H228692   0.183   3.421  11.657 -1.9425  0.6207  0.6251
 2401TIP3   OH228693   5.729   0.024  11.001  0.0685  0.2017 -0.4125
 2401TIP3    H128694   5.648  -0.025  11.015 -0.6652  1.7632  1.1022
 2401TIP3    H228695   5.700   0.111  10.974  1.1939  0.9834  0.7682
 2402TIP3   OH228696   0.378   4.512  11.992 -0.7406 -0.5352 -0.6791
 2402TIP3    H128697   0.473   4.508  12.008 -0.9556  0.8183  1.3012
 2402TIP3    H228698   0.345   4.430  12.029 -0.5433 -0.0417  0.6637
 2403TIP3   OH228699   0.498   2.511  15.135 -0.7940 -0.5552 -0.5212
 2403TIP3    H128700   0.440   2.471  15.070  0.7245 -1.6283 -1.2700
 2403TIP3    H228701   0.510   2.601  15.104 -1.5479 -0.5029 -0.6862
 2404TIP3   OH228702   3.244   4.869   4.593 -0.4907 -0.1896 -0.0201
 2404TIP3    H128703   3.230   4.817   4.514 -0.3625 -1.2192  0.6300
 2404TIP3    H228704   3.176   4.841   4.654  1.9335 -2.5600  1.7996
 2405TIP3   OH228705   4.982   6.000  16.052 -0.4180 -0.2913 -0.0457
 2405TIP3    H128706   4.985   6.091  16.024  0.6920  0.0553  1.1022
 2405TIP3    H228707   5.047   5.994  16.122 -1.8327 -1.5041  1.2512
 2406TIP3   OH228708   2.181   0.028   2.930  0.0462  0.6278 -0.0006
 2406TIP3    H128709   2.092   0.034   2.894 -0.5255 -0.9656  1.0405
 2406TIP3    H228710   2.216  -0.054   2.893  0.1743 -0.0032  1.4439
 2407TIP3   OH228711   0.895   3.763  15.253  0.3674 -0.6989 -0.3020
 2407TIP3    H128712   0.942   3.730  15.330  1.7106  2.4489  0.3906
 2407TIP3    H228713   0.953   3.743  15.179 -0.4599 -2.8398 -0.4227
 2408TIP3   OH228714   2.003   0.967  16.787  0.1714  0.0458  0.0385
 2408TIP3    H128715   2.087   0.973  16.834  1.2867 -0.9808 -1.7343
 2408TIP3    H228716   1.990   0.874  16.774 -0.6931  0.2648 -0.6890
 2409TIP3   OH228717   1.702   2.981  16.004  0.2925 -0.0543 -0.7447
 2409TIP3    H128718   1.611   2.977  15.972  0.3005 -0.1202 -0.7598
 2409TIP3    H228719   1.749   2.919  15.948  0.4875  0.4931 -1.1925
 2410TIP3   OH228720   4.835   4.739   3.431 -0.2277  0.0851 -0.1411
 2410TIP3    H128721   4.879   4.665   3.389 -1.0305 -0.7827  0.5115
 2410TIP3    H228722   4.776   4.773   3.364 -0.4226 -0.3628 -0.2022
 2411TIP3   OH228723   5.908   2.633  14.695 -0.2608  0.8803  0.1794
 2411TIP3    H128724   5.946   2.546  14.682  1.7522  1.8007 -0.4243
 2411TIP3    H228725   5.926   2.653  14.787 -0.8010  0.6365  0.3413
 2412TIP3   OH228726   4.860   5.380   3.667 -0.1666  0.2475  0.3899
 2412TIP3    H128727   4.865   5.286   3.649  1.3652  0.2149  0.8304
 2412TIP3    H228728   4.890   5.422   3.586 -3.0434  0.4961 -0.6585
 2413TIP3   OH228729   2.199   0.117   1.224 -1.0271  0.0098  0.0377
 2413TIP3    H128730   2.106   0.116   1.201 -0.8393  1.4364 -0.8816
 2413TIP3    H228731   2.205   0.177   1.298 -0.7374  0.5891 -0.4473
 2414TIP3   OH228732   5.553   2.525  12.442  0.0298 -0.2004  0.1406
 2414TIP3    H128733   5.550   2.549  12.534 -0.3123 -2.0561  0.6405
 2414TIP3    H228734   5.635   2.565  12.410  0.8599 -0.6736  1.5867
 2415TIP3   OH228735   5.251   0.091  11.788  1.5594  0.2270  0.0833
 2415TIP3    H128736   5.225   0.160  11.727 -0.6367  1.8854  2.6970
 2415TIP3    H228737   5.325   0.128  11.836  1.5837  0.0107  0.2132
 2416TIP3   OH228738   5.519   3.041   4.740  0.3726 -0.3660  0.2538
 2416TIP3    H128739   5.484   2.973   4.797  1.9203 -1.1799  0.2650
 2416TIP3    H228740   5.497   3.012   4.652 -0.1160 -0.2005  0.3162
 2417TIP3   OH228741   5.719   5.360   5.837 -0.1960  0.2620 -0.7783
 2417TIP3    H128742   5.693   5.430   5.898  0.2709  0.1431 -0.4362
 2417TIP3    H228743   5.673   5.381   5.756  0.3747  1.2879 -0.8546
 2418TIP3   OH228744   3.818   1.932  17.008 -0.0733  0.1442  0.4105
 2418TIP3    H128745   3.738   1.885  16.986 -1.6992  0.7532  4.2319
 2418TIP3    H228746   3.792   2.024  17.010  1.0379  0.4713  0.6017
 2419TIP3   OH228747   4.897   3.884   3.435  0.3113 -0.1128  0.1258
 2419TIP3    H128748   4.833   3.817   3.413  0.6372 -1.0992  2.0313
 2419TIP3    H228749   4.894   3.945   3.361 -1.4881 -1.0993 -0.6646
 2420TIP3   OH228750   2.667   5.706  14.722  0.0833  0.5808  0.5767
 2420TIP3    H128751   2.668   5.679  14.813 -0.0897 -0.7046  0.2142
 2420TIP3    H228752   2.581   5.746  14.709 -0.3272 -0.2424  0.7046
 2421TIP3   OH228753   1.178   6.668  12.355  0.1168 -0.5328 -0.7259
 2421TIP3    H128754   1.146   6.653  12.266 -2.6035  2.3753 -0.3909
 2421TIP3    H228755   1.132   6.746  12.385  3.3211  0.5211  2.1219
 2422TIP3   OH228756   5.167   1.458  13.828  0.7315 -0.4370  0.3954
 2422TIP3    H128757   5.076   1.476  13.806  0.4332 -1.5988  0.5882
 2422TIP3    H228758   5.177   1.486  13.918  1.0669  1.3263 -0.1576
 2423TIP3   OH228759   5.680   4.916  11.833 -0.1985  0.3405  0.6264
 2423TIP3    H128760   5.701   5.009  11.841  1.3441  0.2907 -1.7943
 2423TIP3    H228761   5.594   4.914  11.792 -0.1357  0.7188  0.4752
 2424TIP3   OH228762   2.361   5.019   4.986 -0.3480  0.0832 -0.0203
 2424TIP3    H128763   2.312   5.097   5.011  1.1307  1.4248 -1.0646
 2424TIP3    H228764   2.314   4.985   4.909 -1.9108 -1.0595  1.3527
 2425TIP3   OH228765   6.574   2.436   5.292 -0.9988 -0.0568  0.0307
 2425TIP3    H128766   6.621   2.443   5.376  1.4481  0.5080 -1.2882
 2425TIP3    H228767   6.537   2.524   5.279  2.3367  1.3250 -1.3916
 2426TIP3   OH228768   1.639   6.344   3.545 -0.5817 -0.1356 -0.0279
 2426TIP3    H128769   1.707   6.389   3.596 -1.1017  1.0959 -0.3956
 2426TIP3    H228770   1.686   6.306   3.471 -0.3055  0.8120 -0.3477
 2427TIP3   OH228771   1.431   3.252  14.779  0.1481  0.2323 -0.5686
 2427TIP3    H128772   1.395   3.166  14.800  0.3460 -0.0702 -1.4233
 2427TIP3    H228773   1.518   3.251  14.819 -0.4140  0.6182  0.7116
 2428TIP3   OH228774   1.622   2.476   1.645  0.1371 -0.2946 -0.2387
 2428TIP3    H128775   1.694   2.417   1.626 -0.1817 -1.2010  1.1942
 2428TIP3    H228776   1.581   2.493   1.560  2.5640  1.0188 -1.2526
 2429TIP3   OH228777   0.651   0.269  12.424 -0.0201 -0.3353  0.3341
 2429TIP3    H128778   0.573   0.278  12.479  0.4404 -1.5796  1.2221
 2429TIP3    H228779   0.719   0.317  12.470  0.3859 -1.4430  0.9421
 2430TIP3   OH228780   1.735   4.694  16.185 -0.0263  0.1441 -0.3003
 2430TIP3    H128781   1.751   4.669  16.094 -1.6964 -0.5363 -0.4381
 2430TIP3    H228782   1.819   4.679  16.229  0.7314  0.2292 -1.6630
 2431TIP3   OH228783   2.297   4.855   5.722  0.0056  0.6127 -0.4515
 2431TIP3    H128784   2.351   4.810   5.657 -0.9323 -0.1852 -0.7062
 2431TIP3    H228785   2.252   4.785   5.768 -0.7791  1.2571 -0.2180
 2432TIP3   OH228786   3.064   4.511   3.053 -0.6857  0.1420 -0.0312
 2432TIP3    H128787   3.130   4.576   3.027 -1.2830  0.0314 -2.0003
 2432TIP3    H228788   3.015   4.553   3.124 -1.9231  2.4758 -2.1042
 2433TIP3   OH228789   0.294   5.131   0.842  0.5368  0.1114  0.3576
 2433TIP3    H128790   0.277   5.152   0.934 -1.5876  2.2295 -0.4036
 2433TIP3    H228791   0.378   5.172   0.822  0.9694 -0.2958  1.2954
 2434TIP3   OH228792   3.233   3.399   6.043 -0.0050 -0.3626  0.5712
 2434TIP3    H128793   3.173   3.349   5.986 -0.0234 -0.1435  0.3960
 2434TIP3    H228794   3.179   3.470   6.077  0.5221  0.7018 -0.7462
 2435TIP3   OH228795   5.651   4.688   3.874  0.4852  0.0134 -0.2264
 2435TIP3    H128796   5.730   4.690   3.821  0.6722 -0.2592  0.0371
 2435TIP3    H228797   5.657   4.765   3.930  1.0446 -0.5258  0.4718
 2436TIP3   OH228798   5.801   4.456   3.955  0.1691  0.0787 -0.0957
 2436TIP3    H128799   5.894   4.477   3.968 -0.1745  1.2114  0.7754
 2436TIP3    H228800   5.761   4.539   3.928 -0.7780 -0.1072  0.6595
 2437TIP3   OH228801   0.252   1.789  11.813  0.0580 -0.3235  0.2399
 2437TIP3    H128802   0.271   1.787  11.907  0.5508  1.4708  0.2297
 2437TIP3    H228803   0.305   1.719  11.775 -1.1893 -1.9879  1.4281
 2438TIP3   OH228804   5.165   1.063   0.136  0.6999  0.2090  0.5181
 2438TIP3    H128805   5.225   1.127   0.098 -1.1147  0.8481 -1.4668
 2438TIP3    H228806   5.139   1.008   0.062 -1.9380  0.6337  1.0200
 2439TIP3   OH228807   1.284   3.835   3.415  0.4114  0.6585  0.4324
 2439TIP3    H128808   1.354   3.874   3.468  0.6052  0.0794  0.6089
 2439TIP3    H228809   1.207   3.889   3.434  0.4090  0.2838  1.5358
 2440TIP3   OH228810   5.412   2.758   0.634  0.1502  0.1033 -0.1226
 2440TIP3    H128811   5.395   2.848   0.661 -1.8271  0.0187 -0.9409
 2440TIP3    H228812   5.464   2.766   0.555 -1.8132  0.6570 -1.4267
 2441TIP3   OH228813   5.736   1.067   5.524 -0.1740 -0.1854 -0.2511
 2441TIP3    H128814   5.804   1.131   5.505 -0.7317  0.5927  0.3376
 2441TIP3    H228815   5.740   1.053   5.619 -1.2163  0.3187 -0.1192
 2442TIP3   OH228816   3.542   6.233   1.433  0.1152 -0.0074 -0.4964
 2442TIP3    H128817   3.487   6.167   1.391 -0.3295 -0.6181  1.0114
 2442TIP3    H228818   3.567   6.195   1.517 -0.3126  1.8083  0.5125
 2443TIP3   OH228819   1.712   6.628  12.283  0.2766 -0.1148  1.0619
 2443TIP3    H128820   1.757   6.712  12.295  0.2351 -0.3911  3.9281
 2443TIP3    H228821   1.782   6.564  12.271  0.4098  0.0405  1.0074
 2444TIP3   OH228822   2.310   3.413  15.473 -0.3610  0.2624 -0.0476
 2444TIP3    H128823   2.404   3.425  15.456  0.4000 -1.2464  2.4508
 2444TIP3    H228824   2.302   3.424  15.568 -2.8111  0.7423 -0.2496
 2445TIP3   OH228825   5.213   1.738  16.293 -0.0716  0.4551 -0.1107
 2445TIP3    H128826   5.184   1.672  16.230 -0.6078  1.3604 -0.8387
 2445TIP3    H228827   5.303   1.757  16.268  0.2460 -0.3537  0.4109
 2446TIP3   OH228828   4.669   1.235  15.150 -0.3765 -0.0482  0.3871
 2446TIP3    H128829   4.692   1.301  15.216  0.3612 -0.4106  0.5001
 2446TIP3    H228830   4.680   1.152  15.195  0.9907 -0.3379 -0.4384
 2447TIP3   OH228831   2.724   5.964   2.576  0.3275 -0.4918 -0.8006
 2447TIP3    H128832   2.714   6.040   2.632  0.0058  0.2341 -1.8088
 2447TIP3    H228833   2.787   5.908   2.622 -1.2732 -0.7919  1.1422
 2448TIP3   OH228834   5.365   6.567   0.845  0.4803 -0.0301  0.2679
 2448TIP3    H128835   5.329   6.542   0.759 -1.5386 -1.5957  1.4825
 2448TIP3    H228836   5.393   6.485   0.884 -1.4072  0.1920  2.2726
 2449TIP3   OH228837   5.060   1.315   0.465  0.1315  0.3971 -0.3477
 2449TIP3    H128838   5.143   1.291   0.506  0.2483 -1.0956 -1.3804
 2449TIP3    H228839   5.040   1.242   0.407 -0.9220  1.6113 -1.6007
 2450TIP3   OH228840   6.062   5.746  13.472 -0.6784  0.5137 -0.2321
 2450TIP3    H128841   5.997   5.676  13.466  0.0858 -0.1953 -0.3395
 2450TIP3    H228842   6.020   5.821  13.429 -0.5665 -0.5749 -2.3648
 2451TIP3   OH228843   0.461   5.710   1.039 -0.1632  0.0179  0.3457
 2451TIP3    H128844   0.539   5.757   1.068 -0.4758  0.2448  0.8316
 2451TIP3    H228845   0.467   5.624   1.080  0.3394 -0.3268 -0.4331
 2452TIP3   OH228846   2.387   1.830  11.638 -0.0622  0.5433 -0.5221
 2452TIP3    H128847   2.472   1.791  11.657 -0.0622 -0.3945 -2.2312
 2452TIP3    H228848   2.331   1.756  11.615 -0.8201  1.3034 -1.2104
 2453TIP3   OH228849   3.398   3.790   3.089  0.2221 -0.3294  0.0864
 2453TIP3    H128850   3.328   3.780   3.024  0.1071  2.3086 -0.2977
 2453TIP3    H228851   3.364   3.748   3.167 -0.4676 -1.8313 -0.9686
 2454TIP3   OH228852   4.235   0.889   5.040  0.3213 -0.2319  0.3188
 2454TIP3    H128853   4.326   0.858   5.042  0.4966  0.1784 -0.7185
 2454TIP3    H228854   4.189   0.826   4.985  1.0123  2.0082 -3.1832
 2455TIP3   OH228855   4.545   3.194  16.385  0.7038 -0.2159 -0.4228
 2455TIP3    H128856   4.471   3.246  16.354  0.1206 -0.7570  0.0189
 2455TIP3    H228857   4.578   3.149  16.307 -1.1002 -2.0073 -0.2447
 2456TIP3   OH228858   4.500   0.150  12.154 -0.7361  0.4025  0.2854
 2456TIP3    H128859   4.445   0.218  12.191 -0.1180  1.2499 -0.3293
 2456TIP3    H228860   4.543   0.110  12.229 -0.3703  1.3350  0.5725
 2457TIP3   OH228861   2.699   1.244  13.528  0.2037  0.3063  0.8974
 2457TIP3    H128862   2.635   1.208  13.467  0.6482 -0.3479  0.8024
 2457TIP3    H228863   2.648   1.303  13.584 -0.6847 -0.9246  1.4446
 2458TIP3   OH228864   1.324   5.436  13.251  0.5001  0.5287  0.2226
 2458TIP3    H128865   1.340   5.452  13.158  1.5934 -0.4923  0.2134
 2458TIP3    H228866   1.327   5.341  13.260 -1.8424  0.4614  0.9446
 2459TIP3   OH228867   1.345   0.627   1.347  0.0219  0.0272 -0.6902
 2459TIP3    H128868   1.378   0.537   1.342  1.4338  0.1825  2.9774
 2459TIP3    H228869   1.258   0.619   1.385  0.8328  0.2039  1.3231
 2460TIP3   OH228870   0.405   2.861   3.457 -0.5962 -0.2715 -0.1745
 2460TIP3    H128871   0.499   2.844   3.458 -0.1796  1.4738  2.7929
 2460TIP3    H228872   0.366   2.785   3.501 -0.3208  0.0328  0.5960
 2461TIP3   OH228873   6.135   3.846  11.508 -0.1357 -0.3042  0.0122
 2461TIP3    H128874   6.107   3.856  11.599 -2.0987  1.1579 -0.6695
 2461TIP3    H228875   6.141   3.752  11.495  2.5068 -0.5717  2.2446
 2462TIP3   OH228876   3.433   5.600   5.652  0.5613 -0.0542 -0.2287
 2462TIP3    H128877   3.447   5.672   5.713 -1.2535 -2.1360  3.0204
 2462TIP3    H228878   3.501   5.536   5.674 -0.0425 -0.7954 -0.4599
 2463TIP3   OH228879   5.202   5.795  11.447 -0.1701 -0.5613 -0.1608
 2463TIP3    H128880   5.122   5.816  11.494 -0.4558 -1.3687 -0.2818
 2463TIP3    H228881   5.238   5.719  11.493  0.0336 -0.7799 -0.6721
 2464TIP3   OH228882   6.575   1.861  11.913  0.3911  0.8621 -0.2847
 2464TIP3    H128883   6.636   1.787  11.922  2.5570  2.7579  2.8555
 2464TIP3    H228884   6.506   1.843  11.977 -0.7913  0.1986 -1.6808
 2465TIP3   OH228885   5.519   3.076  10.753  0.0943 -0.1737 -0.0809
 2465TIP3    H128886   5.445   3.085  10.692  0.7663 -1.4458 -1.1512
 2465TIP3    H228887   5.522   3.159  10.800 -2.4377 -0.3294  0.5018
 2466TIP3   OH228888   2.643   6.040  15.091 -0.2394 -0.0258 -0.3137
 2466TIP3    H128889   2.707   6.107  15.114  0.7393 -0.1024 -2.6571
 2466TIP3    H228890   2.638   6.042  14.996 -1.3294 -2.2557 -0.3634
 2467TIP3   OH228891   2.958   3.620   0.889  0.6072  0.5319 -0.2568
 2467TIP3    H128892   2.932   3.559   0.821  0.5242  0.9821 -0.6379
 2467TIP3    H228893   3.012   3.685   0.843  1.9573 -0.0707  0.4117
 2468TIP3   OH228894   1.867   5.954   1.035  0.2428 -0.6481  0.0784
 2468TIP3    H128895   1.828   5.877   1.077  1.0598 -0.3106  1.5567
 2468TIP3    H228896   1.857   5.939   0.941 -2.3672 -1.1151  0.3491
 2469TIP3   OH228897   0.247   6.500  14.368 -0.4361 -0.4058 -0.2794
 2469TIP3    H128898   0.185   6.572  14.359 -0.5726 -0.3593  0.8558
 2469TIP3    H228899   0.287   6.513  14.454 -0.6887 -1.8471  0.0977
 2470TIP3   OH228900   3.149   4.100  13.531  0.1053  0.1639  0.1536
 2470TIP3    H128901   3.189   4.013  13.534 -1.3178 -0.5121  0.1316
 2470TIP3    H228902   3.076   4.090  13.470 -1.0290  0.9769  1.3570
 2471TIP3   OH228903   3.391   2.262   2.540  0.1256  0.1069 -0.1060
 2471TIP3    H128904   3.311   2.218   2.569  0.5221  0.9110  2.4100
 2471TIP3    H228905   3.366   2.354   2.530  0.1296 -0.0515 -2.0300
 2472TIP3   OH228906   2.891   6.686   1.063 -0.1138 -0.0284 -0.0436
 2472TIP3    H128907   2.945   6.628   1.117  0.1752  0.4780  0.2228
 2472TIP3    H228908   2.819   6.713   1.120  1.3122  2.1946  0.8537
 2473TIP3   OH228909   3.587   1.794  14.199  0.3382  0.3499 -0.5200
 2473TIP3    H128910   3.624   1.729  14.259  1.0461  0.7414 -0.5177
 2473TIP3    H228911   3.556   1.865  14.256 -0.1918  0.1357 -0.5385
 2474TIP3   OH228912   2.484   1.862   5.643 -0.4942  0.4644 -0.2403
 2474TIP3    H128913   2.518   1.859   5.732 -0.5015  0.0773 -0.2493
 2474TIP3    H228914   2.403   1.913   5.650 -2.0242 -1.8846  0.5099
 2475TIP3   OH228915   6.343   3.074  15.651 -0.2677  0.2657  0.0595
 2475TIP3    H128916   6.409   3.005  15.651  2.1545  2.1725 -3.9033
 2475TIP3    H228917   6.264   3.032  15.615 -0.7082 -1.5139  2.7767
 2476TIP3   OH228918   1.176   4.899  12.997  0.0166  1.0897  0.8500
 2476TIP3    H128919   1.131   4.951  13.063  0.7076  1.8292  0.7625
 2476TIP3    H228920   1.222   4.964  12.943 -2.1340  0.6969 -1.6231
 2477TIP3   OH228921   0.380   1.160  13.170 -0.6464  0.6677  0.2611
 2477TIP3    H128922   0.366   1.068  13.150  1.4628  0.2739  0.3446
 2477TIP3    H228923   0.452   1.160  13.233  0.0759  2.4229 -0.5060
 2478TIP3   OH228924   6.665   2.972   2.363 -0.3301 -0.4668 -0.1536
 2478TIP3    H128925   6.703   2.905   2.306  0.5132  0.8140 -1.1675
 2478TIP3    H228926   6.651   3.047   2.305  1.2115  1.1457  1.4390
 2479TIP3   OH228927   1.202   4.135   2.318 -0.0694  0.0265  0.5801
 2479TIP3    H128928   1.114   4.145   2.354 -0.8321  0.8148 -1.3789
 2479TIP3    H228929   1.246   4.217   2.340 -0.8760  0.9597 -1.0643
 2480TIP3   OH228930   2.770   2.951   0.557 -0.3293 -0.0868 -0.4661
 2480TIP3    H128931   2.824   2.893   0.503  1.6615  0.5949  0.6741
 2480TIP3    H228932   2.693   2.899   0.578  1.2867 -2.3057  0.3544
 2481TIP3   OH228933   2.266   3.984   4.684  0.3257  0.2112  0.2752
 2481TIP3    H128934   2.282   3.980   4.590 -0.9805  1.1477 -0.0259
 2481TIP3    H228935   2.353   3.990   4.723  0.8962 -0.4906 -0.8478
 2482TIP3   OH228936   4.667   0.048  15.179 -0.5133 -0.1706  0.1379
 2482TIP3    H128937   4.618   0.129  15.194 -0.7359 -0.2679 -0.0521
 2482TIP3    H228938   4.603  -0.012  15.139  0.4500  0.6691 -2.9855
 2483TIP3   OH228939   0.571   5.376  15.246 -0.5341 -0.1170  0.2202
 2483TIP3    H128940   0.498   5.396  15.304 -0.3674 -0.4921  0.5666
 2483TIP3    H228941   0.546   5.414  15.162 -1.0727 -0.1414  0.3658
 2484TIP3   OH228942   0.624   6.651   0.465  0.3812 -0.8156  0.2480
 2484TIP3    H128943   0.613   6.732   0.417  2.2825 -1.6637 -1.8120
 2484TIP3    H228944   0.540   6.638   0.511 -1.2645  0.5085 -2.1641
 2485TIP3   OH228945   3.853   2.848  15.513  0.7158  0.5924 -0.2687
 2485TIP3    H128946   3.897   2.853  15.428 -0.9101  1.4258 -1.1238
 2485TIP3    H228947   3.762   2.828  15.491  0.0920  1.6244  1.2179
 2486TIP3   OH228948   4.496   2.373  12.703  0.3122 -0.1055  0.3316
 2486TIP3    H128949   4.502   2.281  12.729  1.1010 -0.1468  0.0452
 2486TIP3    H228950   4.586   2.404  12.705 -0.0769  1.0628  1.7905
 2487TIP3   OH228951   0.973   6.805  13.616  0.2638 -0.0026 -0.1648
 2487TIP3    H128952   1.030   6.735  13.646  1.0662  0.3039 -0.9180
 2487TIP3    H228953   0.928   6.835  13.695  0.8839 -0.4927  0.3862
 2488TIP3   OH228954   1.639   5.814   1.689 -0.5643  0.7856 -0.2208
 2488TIP3    H128955   1.621   5.893   1.739 -1.6629  0.0388  0.5815
 2488TIP3    H228956   1.687   5.846   1.612  0.5979  2.0193  0.9432
 2489TIP3   OH228957   5.403   1.199   1.763 -0.4874 -0.3474 -0.4829
 2489TIP3    H128958   5.361   1.113   1.763  0.6192 -0.9075 -0.8704
 2489TIP3    H228959   5.450   1.203   1.846 -0.7216 -0.0124 -0.3628
 2490TIP3   OH228960   5.710   2.856  16.621  0.6240  0.1641  0.0034
 2490TIP3    H128961   5.797   2.848  16.661  0.2727  0.6814  0.8997
 2490TIP3    H228962   5.727   2.899  16.537  1.2032  0.6589  0.3584
 2491TIP3   OH228963   0.297   3.778   5.465  0.5261 -0.6224 -0.1538
 2491TIP3    H128964   0.386   3.810   5.455 -0.3547  1.8845 -0.5600
 2491TIP3    H228965   0.266   3.764   5.375 -0.0744  0.3221 -0.1072
 2492TIP3   OH228966   3.148   3.076  16.372  0.1609 -0.2971 -0.9123
 2492TIP3    H128967   3.070   3.044  16.419 -1.1344  0.1535 -2.6497
 2492TIP3    H228968   3.195   3.128  16.437  1.6734 -4.3872  1.6535
 2493TIP3   OH228969   5.242   4.912  15.426 -0.2748  0.0978 -0.2638
 2493TIP3    H128970   5.176   4.862  15.378 -0.0379 -2.9633  2.2376
 2493TIP3    H228971   5.191   4.966  15.487 -0.5249 -0.2825 -0.1313
 2494TIP3   OH228972   4.231   2.856  14.215 -0.1258  0.1590 -0.1371
 2494TIP3    H128973   4.326   2.866  14.208 -0.1502 -0.4797 -1.8692
 2494TIP3    H228974   4.211   2.882  14.305  1.6755  0.3395  0.2555
 2495TIP3   OH228975   2.250   1.212   5.099  0.2956 -0.3830  1.0617
 2495TIP3    H128976   2.245   1.258   5.182 -0.3444 -0.3176  0.9908
 2495TIP3    H228977   2.257   1.120   5.123 -3.4158 -0.7738  1.2559
 2496TIP3   OH228978   6.619   6.499   3.517  0.2394 -0.5616 -0.0191
 2496TIP3    H128979   6.660   6.451   3.588 -0.8922 -1.8841 -0.2117
 2496TIP3    H228980   6.687   6.559   3.485  1.4821 -1.5652  0.6767
 2497TIP3   OH228981   2.316   4.189   3.361 -0.4403  0.3486 -0.4470
 2497TIP3    H128982   2.295   4.173   3.269 -1.4517 -1.6318  0.0766
 2497TIP3    H228983   2.391   4.133   3.378 -0.1709  0.8157 -0.0765
 2498TIP3   OH228984   4.191   1.710  12.209 -0.1298  0.4085 -0.1012
 2498TIP3    H128985   4.116   1.681  12.157  0.5542  1.1864 -1.5821
 2498TIP3    H228986   4.199   1.645  12.279 -0.8215 -0.9300 -1.2270
 2499TIP3   OH228987   4.669   5.581   3.583  0.2702 -0.4476  0.4550
 2499TIP3    H128988   4.687   5.492   3.613  2.6749 -1.3315 -2.9533
 2499TIP3    H228989   4.580   5.577   3.547  1.1318 -2.2533 -1.7187
 2500TIP3   OH228990   6.752   0.594  12.615  0.0838  0.0002  0.8239
 2500TIP3    H128991   6.745   0.509  12.659  0.2502  0.5737  2.0024
 2500TIP3    H228992   6.823   0.639  12.661  0.6178  0.4378 -0.3914
 2501TIP3   OH228993   6.388   3.786  15.035  0.6552  0.4678 -0.2240
 2501TIP3    H128994   6.452   3.719  15.014 -2.0099 -1.7710 -1.8380
 2501TIP3    H228995   6.432   3.869  15.014  2.3670 -1.0348 -3.0984
 2502TIP3   OH228996   0.266   1.306   5.873  0.1678 -0.2208 -0.2971
 2502TIP3    H128997   0.361   1.296   5.878  0.0632 -0.8427  0.7613
 2502TIP3    H228998   0.241   1.341   5.959 -0.5177  0.3496 -0.7177
 2503TIP3   OH228999   1.490   5.118  15.167 -0.5176  0.2880  0.2590
 2503TIP3    H129000   1.522   5.073  15.089 -0.7268  1.1885 -0.3610
 2503TIP3    H229001   1.536   5.202  15.167 -0.0059  0.0280  1.4888
 2504TIP3   OH229002   5.413   6.687  12.067  0.4275 -0.3985  0.2921
 2504TIP3    H129003   5.322   6.682  12.036  0.6333  0.8729 -0.6015
 2504TIP3    H229004   5.463   6.636  12.004  0.6330  0.9239 -0.6779
 2505TIP3   OH229005   2.329   5.856   1.320 -0.1100 -0.1386  0.0759
 2505TIP3    H129006   2.291   5.854   1.232  0.9976 -0.4488 -0.4206
 2505TIP3    H229007   2.316   5.768   1.355 -1.4180  0.2524  0.6298
 2506TIP3   OH229008   6.705   3.046  14.490 -0.1241  0.0891  0.1631
 2506TIP3    H129009   6.671   3.001  14.567 -0.7718  0.2169 -0.0440
 2506TIP3    H229010   6.642   3.028  14.421 -0.4561  1.3866  0.1016
 2507TIP3   OH229011   2.843   1.385   1.264 -0.3717 -0.0002 -0.4120
 2507TIP3    H129012   2.907   1.453   1.286 -2.0321  1.4207  0.3425
 2507TIP3    H229013   2.812   1.409   1.176  1.8826 -2.1653 -1.9070
 2508TIP3   OH229014   5.470   3.951  14.941 -0.2327 -0.1780  0.0713
 2508TIP3    H129015   5.521   3.957  15.022  0.7523 -0.0651 -0.5424
 2508TIP3    H229016   5.380   3.968  14.968  0.0471 -0.3929  1.1835
 2509TIP3   OH229017   5.905   0.470   5.690  0.5546 -0.1176 -0.4208
 2509TIP3    H129018   5.864   0.486   5.775 -0.3594 -1.7356 -0.5087
 2509TIP3    H229019   5.916   0.557   5.652  2.3142  0.7537  1.9082
 2510TIP3   OH229020   3.690   0.924   4.852  0.2665  0.1596 -0.4448
 2510TIP3    H129021   3.629   0.882   4.913  0.8272 -0.8471 -0.5530
 2510TIP3    H229022   3.651   1.009   4.834 -0.3450  0.1290  0.6501
 2511TIP3   OH229023   1.042   1.468   4.885  0.0214 -0.0368  0.1961
 2511TIP3    H129024   1.030   1.492   4.977  0.1899 -0.7890  0.4194
 2511TIP3    H229025   1.037   1.551   4.838 -1.3891  0.2200  0.7492
 2512TIP3   OH229026   5.102   0.350   1.037 -0.3607 -0.5738 -0.1608
 2512TIP3    H129027   5.030   0.287   1.036  0.0057 -1.1183  1.9938
 2512TIP3    H229028   5.168   0.312   0.979 -1.5528 -0.3270 -1.7425
 2513TIP3   OH229029   2.016   2.256  16.235  0.6558  0.0480  0.0871
 2513TIP3    H129030   2.004   2.176  16.286 -0.0300  0.3020  0.3316
 2513TIP3    H229031   1.984   2.326  16.292 -0.6470  0.2803 -0.8752
 2514TIP3   OH229032   2.170   4.413  16.878  0.1059  0.0197 -0.5601
 2514TIP3    H129033   2.259   4.387  16.904 -0.5157  0.2069  2.0029
 2514TIP3    H229034   2.182   4.493  16.827  1.3472  1.2256  1.4859
 2515TIP3   OH229035   2.809   5.947  13.104 -0.0761 -0.1283 -0.2830
 2515TIP3    H129036   2.851   5.907  13.028 -1.2047  0.5907 -1.3151
 2515TIP3    H229037   2.723   5.907  13.108  0.1641 -0.5816  0.9938
 2516TIP3   OH229038   1.449   6.831   1.402 -0.5472  0.2197 -0.5372
 2516TIP3    H129039   1.508   6.762   1.431  0.8547  1.0493 -1.2935
 2516TIP3    H229040   1.372   6.822   1.458 -0.6912 -2.3370 -1.0569
 2517TIP3   OH229041   0.227   2.577   3.543 -0.1480  0.4682  0.2338
 2517TIP3    H129042   0.175   2.610   3.616 -0.1013  0.3059  0.3415
 2517TIP3    H229043   0.261   2.493   3.574 -1.2278 -0.2503 -0.4601
 2518TIP3   OH229044   4.817   1.666  13.466  0.0724  0.4439  0.3034
 2518TIP3    H129045   4.820   1.584  13.417 -1.9153  1.0076 -0.8676
 2518TIP3    H229046   4.909   1.685  13.486  0.9046 -0.3310 -2.3373
 2519TIP3   OH229047   6.544   0.657   1.324  0.1772 -0.2936  0.4937
 2519TIP3    H129048   6.603   0.583   1.327  0.6520  0.0588 -0.0333
 2519TIP3    H229049   6.465   0.627   1.369  0.0619 -1.3817 -0.3950
 2520TIP3   OH229050   5.641   1.607   5.567  0.2832 -0.2168 -0.0102
 2520TIP3    H129051   5.573   1.634   5.505  1.3885 -1.8114 -2.0739
 2520TIP3    H229052   5.613   1.520   5.596  1.1551 -0.6825 -0.5166
 2521TIP3   OH229053   0.818   4.602  15.397 -0.4000 -0.2099  0.4030
 2521TIP3    H129054   0.762   4.565  15.465  0.9492 -1.5219  0.8571
 2521TIP3    H229055   0.853   4.682  15.436 -0.7822 -0.1751  0.6835
 2522TIP3   OH229056   2.560   3.566  13.720 -0.1179  0.7584  0.2800
 2522TIP3    H129057   2.651   3.546  13.739  0.0633 -1.0476 -2.0331
 2522TIP3    H229058   2.510   3.501  13.770  0.0928 -0.5760 -1.1728
 2523TIP3   OH229059   3.546   4.916  11.064 -0.1741 -0.6577  0.8171
 2523TIP3    H129060   3.626   4.964  11.088 -0.0543 -1.1730  1.4643
 2523TIP3    H229061   3.578   4.832  11.032 -0.0649  0.9580 -4.1145
 2524TIP3   OH229062   2.008   1.153   3.273  0.1549  0.2764 -0.5354
 2524TIP3    H129063   2.004   1.183   3.364  0.1214  2.5270 -1.2093
 2524TIP3    H229064   1.921   1.114   3.257  0.4945 -1.0206  0.6336
 2525TIP3   OH229065   4.032   3.866  13.610 -0.1706 -0.4006  0.2233
 2525TIP3    H129066   3.941   3.868  13.583 -0.4908 -4.0366  0.5335
 2525TIP3    H229067   4.065   3.954  13.592 -2.7919  0.0606 -3.1670
 2526TIP3   OH229068   1.867   5.150   2.591 -0.1813  0.0957  0.4705
 2526TIP3    H129069   1.961   5.162   2.608 -0.3985  0.6834  1.3053
 2526TIP3    H229070   1.849   5.060   2.618 -0.0647  0.3120  1.2897
 2527TIP3   OH229071   0.136   2.062   3.330 -0.1987 -0.5763 -0.4595
 2527TIP3    H129072   0.127   2.041   3.423 -2.1517  0.7491 -0.2905
 2527TIP3    H229073   0.227   2.091   3.321  0.1784 -1.2368  0.9003
 2528TIP3   OH229074   6.494   2.636  16.119 -0.2347 -0.1082  0.2596
 2528TIP3    H129075   6.536   2.677  16.195  0.0781 -0.3103  0.1997
 2528TIP3    H229076   6.538   2.551  16.111  1.2447  0.7461 -1.4187
 2529TIP3   OH229077   2.427   0.593  10.829  0.0987 -0.8049  0.4187
 2529TIP3    H129078   2.338   0.562  10.847 -0.0454 -0.3771  0.4770
 2529TIP3    H229079   2.414   0.677  10.785  0.4693 -1.1196 -0.3083
 2530TIP3   OH229080   6.712   0.970   3.984 -0.3322  0.0879  0.2978
 2530TIP3    H129081   6.630   0.979   4.032 -0.6522  0.1364 -0.2473
 2530TIP3    H229082   6.730   0.876   3.984 -1.1621 -0.0792 -0.8433
 2531TIP3   OH229083   3.703   5.056  11.298  0.4577  0.1744  0.5822
 2531TIP3    H129084   3.715   4.962  11.282 -0.8338  0.1952 -0.7800
 2531TIP3    H229085   3.661   5.060  11.384  0.2873 -0.5133  0.5424
 2532TIP3   OH229086   0.637   2.487  13.242  0.7791 -0.6221  0.3481
 2532TIP3    H129087   0.718   2.475  13.192  0.0309 -2.2229 -0.5362
 2532TIP3    H229088   0.627   2.407  13.292 -0.7766 -0.9110 -0.3476
 2533TIP3   OH229089   3.580   6.763  14.658  0.0591 -0.2729  0.6662
 2533TIP3    H129090   3.659   6.815  14.643 -0.4010  0.5486  1.0634
 2533TIP3    H229091   3.597   6.680  14.613  0.6039  0.3880 -0.3672
 2534TIP3   OH229092   6.200   4.348  10.926  0.0656 -0.3340  0.5928
 2534TIP3    H129093   6.210   4.303  11.010  2.3515  3.0328  2.3715
 2534TIP3    H229094   6.238   4.435  10.941  0.8044  0.3831 -4.0440
 2535TIP3   OH229095   0.960   1.907   1.220  0.6483 -0.2520  0.0606
 2535TIP3    H129096   0.983   1.874   1.133  1.2904 -1.1737  0.5529
 2535TIP3    H229097   0.892   1.972   1.204 -1.5621 -2.6255 -0.8963
 2536TIP3   OH229098   1.136   0.430   5.718  0.1082  0.1609  0.1990
 2536TIP3    H129099   1.210   0.370   5.711  0.1096  0.2083 -0.2044
 2536TIP3    H229100   1.174   0.511   5.753  0.1727  0.0525  0.3818
 2537TIP3   OH229101   2.029   5.602  16.050 -0.0638  0.0691 -0.1459
 2537TIP3    H129102   2.112   5.558  16.072  1.3067  2.2502 -0.6702
 2537TIP3    H229103   1.999   5.637  16.134 -0.9404 -1.4172  0.1965
 2538TIP3   OH229104   1.677   4.879   0.996 -0.3687  0.1077  0.0412
 2538TIP3    H129105   1.699   4.868   0.904  0.8545  1.0368  0.1902
 2538TIP3    H229106   1.715   4.964   1.020  1.5422 -1.1669  2.0047
 2539TIP3   OH229107   3.714   6.185  11.138  0.0844 -0.0466 -0.0964
 2539TIP3    H129108   3.784   6.214  11.079  1.5624 -1.9493  0.6105
 2539TIP3    H229109   3.637   6.234  11.110  1.5312  1.6314 -1.3581
 2540TIP3   OH229110   2.065   3.891  14.673  0.3314 -0.1118 -0.0342
 2540TIP3    H129111   2.029   3.978  14.690  1.0644  0.7587 -2.5324
 2540TIP3    H229112   2.153   3.894  14.708 -0.0111 -0.2477  0.8602
 2541TIP3   OH229113   5.288   4.324  15.367 -0.2588 -0.8104  0.0432
 2541TIP3    H129114   5.343   4.364  15.434 -1.3727 -0.4379  0.7625
 2541TIP3    H229115   5.346   4.261  15.323  0.8308 -0.1686  0.5208
 2542TIP3   OH229116   1.369   6.124   5.380  0.1628 -0.2230 -0.1971
 2542TIP3    H129117   1.288   6.172   5.365  0.7956  1.0108  0.1059
 2542TIP3    H229118   1.438   6.190   5.370  1.0783 -1.0657  0.3058
 2543TIP3   OH229119   0.155   5.813   3.866  0.3046  0.3339  0.0360
 2543TIP3    H129120   0.133   5.720   3.862  0.1068  0.4388 -2.3704
 2543TIP3    H229121   0.122   5.850   3.784  1.2387  2.3510  0.4945
 2544TIP3   OH229122   2.919   3.786   2.874 -0.3734 -0.0779  0.1373
 2544TIP3    H129123   2.914   3.867   2.823 -1.0083 -0.2453 -0.0735
 2544TIP3    H229124   2.828   3.758   2.883 -0.5102  0.9932  3.0835
 2545TIP3   OH229125   1.573   5.690  13.145 -0.0291 -0.5721  0.4941
 2545TIP3    H129126   1.563   5.595  13.146  1.2776 -0.7168  0.8778
 2545TIP3    H229127   1.542   5.717  13.058  1.9010 -1.6289 -0.5801
 2546TIP3   OH229128   4.630   2.686  13.852  0.2414 -0.1678  0.4917
 2546TIP3    H129129   4.663   2.618  13.910 -0.4288 -0.8357  0.1075
 2546TIP3    H229130   4.611   2.640  13.770 -1.2808  0.2357  0.5805
 2547TIP3   OH229131   1.345   4.446   5.696  0.0973  0.5257 -0.0901
 2547TIP3    H129132   1.294   4.425   5.618  0.0030 -0.2074  0.1582
 2547TIP3    H229133   1.428   4.399   5.684 -0.2029 -0.2097  0.5766
 2548TIP3   OH229134   1.009   4.791  15.641  0.5207  0.1892  0.4745
 2548TIP3    H129135   1.076   4.737  15.683  0.3719 -1.0566 -0.8071
 2548TIP3    H229136   1.056   4.841  15.575  0.4333  0.5356  0.6737
 2549TIP3   OH229137   0.908   5.380   1.351  0.5169  0.2729 -0.3413
 2549TIP3    H129138   0.976   5.347   1.409  1.2486  0.9510 -0.7903
 2549TIP3    H229139   0.873   5.302   1.308 -0.4300 -0.3123  1.3749
 2550TIP3   OH229140   6.768   2.969  12.398 -0.1858 -0.2128  0.0273
 2550TIP3    H129141   6.697   3.021  12.434 -0.4419 -1.0252  0.7163
 2550TIP3    H229142   6.756   2.881  12.435 -0.4159 -1.0769 -1.9790
 2551TIP3   OH229143   4.181   1.224   1.680 -0.7430  0.1832 -0.2884
 2551TIP3    H129144   4.175   1.260   1.591  0.3248  1.5380  0.1535
 2551TIP3    H229145   4.193   1.130   1.667 -0.2627  0.4008 -1.5989
 2552TIP3   OH229146   4.170   6.212  14.506 -0.3827 -0.5526  0.1190
 2552TIP3    H129147   4.226   6.204  14.583  0.2534 -3.6949 -0.5136
 2552TIP3    H229148   4.211   6.280  14.452  1.1345 -0.7387  1.0003
 2553TIP3   OH229149   1.740   5.371  10.820  0.7715 -0.0448  0.1071
 2553TIP3    H129150   1.676   5.309  10.785  0.5708  0.0216  0.3558
 2553TIP3    H229151   1.745   5.439  10.753  1.2088 -0.4705 -0.3013
 2554TIP3   OH229152   5.167   2.431   5.406  0.0021  0.1422  0.0256
 2554TIP3    H129153   5.201   2.521   5.403  0.2539  0.0222 -1.3766
 2554TIP3    H229154   5.072   2.441   5.401 -0.2383  0.4478  3.2927
 2555TIP3   OH229155   5.479   3.545  14.410  0.0922  0.0293  0.2120
 2555TIP3    H129156   5.556   3.579  14.455 -0.1628  0.7973  0.0822
 2555TIP3    H229157   5.514   3.510  14.328  0.1192  1.8806 -0.6104
 2556TIP3   OH229158   1.667   1.075  12.928 -0.4383  0.2237  0.4966
 2556TIP3    H129159   1.601   1.124  12.880  0.2097  0.3961 -0.2360
 2556TIP3    H229160   1.741   1.135  12.935  0.3631 -0.6119 -0.3919
 2557TIP3   OH229161   0.840   0.247  11.318 -0.3480  0.1832 -0.1038
 2557TIP3    H129162   0.907   0.189  11.354  1.5470  0.5744 -2.6675
 2557TIP3    H229163   0.793   0.193  11.255 -0.5703  0.6565 -0.3500
 2558TIP3   OH229164   3.305   0.384  11.503  0.1945 -0.4864  0.2478
 2558TIP3    H129165   3.353   0.348  11.577 -1.1635  0.5930  1.7143
 2558TIP3    H229166   3.369   0.387  11.432  1.7876 -0.7220  1.6260
 2559TIP3   OH229167   5.906   5.207  11.427  0.2507  0.2836 -1.3545
 2559TIP3    H129168   5.895   5.124  11.473 -2.2872  1.6689  0.7963
 2559TIP3    H229169   5.840   5.205  11.358  0.2349  0.4671 -1.3454
 2560TIP3   OH229170   2.005   5.909  11.863  0.6220 -0.3885 -0.0576
 2560TIP3    H129171   1.967   5.937  11.780 -0.3111 -0.1325  0.4494
 2560TIP3    H229172   1.955   5.955  11.930  1.9355  0.0823  0.6304
 2561TIP3   OH229173   0.338   0.113   5.987 -0.1541 -0.4037 -0.0220
 2561TIP3    H129174   0.416   0.154   6.027 -0.7777  0.8020  0.0088
 2561TIP3    H229175   0.344   0.021   6.014  1.5033 -0.4541 -0.4139
 2562TIP3   OH229176   3.490   2.500   0.773  0.0540 -0.6133  0.4101
 2562TIP3    H129177   3.577   2.540   0.779 -0.6648  1.0922  0.0181
 2562TIP3    H229178   3.480   2.480   0.680 -0.0368 -0.6611  0.4306
 2563TIP3   OH229179   3.032   5.707  15.813 -0.3077  0.2829  0.2795
 2563TIP3    H129180   3.101   5.677  15.872 -1.2687  0.6339  1.6495
 2563TIP3    H229181   3.037   5.650  15.737  1.1695  0.0020  0.5709
 2564TIP3   OH229182   2.102   6.119   0.179  0.3279 -0.4812  0.8005
 2564TIP3    H129183   2.172   6.069   0.219  1.1637 -0.4145 -0.5101
 2564TIP3    H229184   2.146   6.194   0.139 -0.9594  1.8165  3.3775
 2565TIP3   OH229185   4.120   1.492   4.016 -0.0057  0.6419 -0.4378
 2565TIP3    H129186   4.068   1.459   4.089  1.5078  0.9026  0.8207
 2565TIP3    H229187   4.134   1.416   3.959 -1.0586  0.3993 -0.3880
 2566TIP3   OH229188   4.891   1.292  17.197  0.2248  0.2082  0.0252
 2566TIP3    H129189   4.865   1.335  17.115  2.4790  1.0418 -0.3360
 2566TIP3    H229190   4.839   1.213  17.201  1.5326 -0.9851 -3.3787
 2567TIP3   OH229191   6.629   5.597   6.170 -0.2078 -0.8819  0.0485
 2567TIP3    H129192   6.693   5.563   6.233 -0.6429  0.5038  1.3083
 2567TIP3    H229193   6.545   5.563   6.202 -0.4207 -0.2475  0.1743
 2568TIP3   OH229194   6.749   3.366   5.506  0.2257 -0.2440 -0.1540
 2568TIP3    H129195   6.737   3.452   5.547 -0.3080 -1.3119  2.0547
 2568TIP3    H229196   6.722   3.379   5.415 -0.8740  1.6594  0.3999
 2569TIP3   OH229197   4.326   3.410  15.674  0.1602 -0.6823 -0.0783
 2569TIP3    H129198   4.252   3.375  15.724 -0.8332  2.1185  0.6417
 2569TIP3    H229199   4.288   3.435  15.590  0.6412 -0.6750 -0.2971
 2570TIP3   OH229200   2.317   5.328   3.915  0.0268 -0.1229  0.3278
 2570TIP3    H129201   2.409   5.304   3.925 -0.0932 -0.4746  0.6089
 2570TIP3    H229202   2.309   5.412   3.961  0.7737  1.2594 -1.9413
 2571TIP3   OH229203   1.817   2.843   2.050 -0.0024  0.0321  0.4928
 2571TIP3    H129204   1.786   2.932   2.032  1.0204  0.3759  0.3390
 2571TIP3    H229205   1.738   2.792   2.062 -0.8535 -0.0456 -3.8908
 2572TIP3   OH229206   0.371   1.840  12.042  0.1386 -0.3730 -0.3911
 2572TIP3    H129207   0.302   1.841  12.108 -0.3700 -0.6454 -0.9139
 2572TIP3    H229208   0.428   1.913  12.065  0.5701 -1.1054  0.9916
 2573TIP3   OH229209   5.886   4.469  13.921  0.1122 -0.3710 -0.0438
 2573TIP3    H129210   5.801   4.511  13.905  1.4150  2.9086  0.7290
 2573TIP3    H229211   5.880   4.385  13.877 -2.2537  1.2297 -3.1972
 2574TIP3   OH229212   0.854   4.466   2.276 -0.0840 -0.4123 -0.2509
 2574TIP3    H129213   0.797   4.541   2.261  0.2626 -0.5052 -2.2532
 2574TIP3    H229214   0.943   4.503   2.275  0.2672 -1.0267 -3.5387
 2575TIP3   OH229215   2.454   5.623  15.591 -0.3636 -0.2773  0.4680
 2575TIP3    H129216   2.543   5.590  15.578 -0.0771  0.6463 -0.0261
 2575TIP3    H229217   2.432   5.598  15.681 -0.1146 -1.6424  0.1710
 2576TIP3   OH229218   4.407   0.189   0.080 -0.0347  0.3003 -0.5993
 2576TIP3    H129219   4.431   0.109   0.128 -2.1751  0.3591  0.7244
 2576TIP3    H229220   4.434   0.173  -0.010 -0.6613 -2.0672 -0.4289
 2577TIP3   OH229221   3.868   0.991   5.422 -0.9372 -0.1431 -0.5101
 2577TIP3    H129222   3.948   1.044   5.421  0.9887 -2.6436  2.2437
 2577TIP3    H229223   3.873   0.940   5.341 -0.6825  0.9184 -1.1894
 2578TIP3   OH229224   2.511   2.191   3.662 -0.1342  0.1731  0.3818
 2578TIP3    H129225   2.597   2.229   3.644  1.1262 -2.4242  0.3936
 2578TIP3    H229226   2.520   2.100   3.635 -2.7474 -0.2997  0.8952
 2579TIP3   OH229227   6.759   3.640  13.794  0.2789  0.2901 -0.1860
 2579TIP3    H129228   6.808   3.597  13.724  0.4548 -0.2759  0.2711
 2579TIP3    H229229   6.827   3.683  13.847  0.1390  0.7913 -0.4056
 2580TIP3   OH229230   6.487   3.647   3.336 -0.5627 -0.2479  0.5496
 2580TIP3    H129231   6.413   3.586   3.339  1.3981 -2.7888  1.4880
 2580TIP3    H229232   6.484   3.692   3.421 -1.3242  0.0690  0.3606
 2581TIP3   OH229233   0.997   2.664   4.608  0.5531 -0.6539  1.0117
 2581TIP3    H129234   1.023   2.706   4.526 -1.2275  3.8286  2.4621
 2581TIP3    H229235   1.075   2.671   4.664  0.7873 -0.8465  0.7136
 2582TIP3   OH229236   2.762   3.075  13.055 -0.6647 -0.2134  0.6224
 2582TIP3    H129237   2.788   3.164  13.077  0.2340  0.1443 -1.5650
 2582TIP3    H229238   2.833   3.020  13.086 -1.4173 -0.2569  2.3582
 2583TIP3   OH229239   3.351   5.710  14.938  0.3322  0.5265  0.0362
 2583TIP3    H129240   3.446   5.703  14.949  0.0943 -0.9620  1.5245
 2583TIP3    H229241   3.322   5.758  15.015 -0.4047 -1.7654  1.2739
 2584TIP3   OH229242   1.129   0.745  11.067  0.4721 -0.7903 -0.1412
 2584TIP3    H129243   1.067   0.724  10.997  0.3158 -0.5105 -0.0906
 2584TIP3    H229244   1.074   0.751  11.146  0.4669  0.1000 -0.2076
 2585TIP3   OH229245   0.729   2.142  13.773  0.0424  0.3714 -0.4072
 2585TIP3    H129246   0.707   2.199  13.846 -1.0952 -1.3981  0.7119
 2585TIP3    H229247   0.773   2.199  13.710 -0.1605  2.2352  1.0561
 2586TIP3   OH229248   4.463   1.117  12.132  0.1619  0.3629  0.1458
 2586TIP3    H129249   4.416   1.173  12.069  1.0125 -1.4719 -2.2809
 2586TIP3    H229250   4.400   1.100  12.201 -1.4176  1.1352 -1.0340
 2587TIP3   OH229251   5.027   5.233  14.545 -0.3343  0.1001  0.2781
 2587TIP3    H129252   4.983   5.182  14.476  0.0066  0.8670 -0.5239
 2587TIP3    H229253   5.061   5.166  14.605  1.6834 -0.7973 -1.6913
 2588TIP3   OH229254   1.929   5.283  15.767 -0.2549  0.1184  0.1821
 2588TIP3    H129255   1.933   5.339  15.844  0.0010 -1.0495  1.0437
 2588TIP3    H229256   2.011   5.234  15.769 -0.4013 -0.1727 -0.6417
 2589TIP3   OH229257   0.129   5.016   0.648  0.2992 -0.1125  0.3066
 2589TIP3    H129258   0.188   5.060   0.710  1.5195 -0.8678 -0.2753
 2589TIP3    H229259   0.048   5.003   0.697  0.5773  1.0181  1.1136
 2590TIP3   OH229260   4.926   2.023   0.935 -0.7298 -0.2351 -0.1116
 2590TIP3    H129261   4.866   2.076   0.882 -0.8763 -0.6902 -0.4106
 2590TIP3    H229262   5.009   2.070   0.933 -1.0108  0.2838  0.1160
 2591TIP3   OH229263   1.013   4.300  15.035  0.1321 -0.0565  0.3441
 2591TIP3    H129264   1.024   4.212  15.000  0.9801 -1.1547  3.1156
 2591TIP3    H229265   0.950   4.290  15.106 -1.6673  2.0822 -0.8447
 2592TIP3   OH229266   4.369   1.889  17.151 -0.3606 -0.4321  0.0703
 2592TIP3    H129267   4.279   1.856  17.139 -0.9213  1.2632 -0.7157
 2592TIP3    H229268   4.391   1.865  17.241 -1.5342 -1.0571  0.2185
 2593TIP3   OH229269   6.402   4.611  15.348  0.6227 -0.2039 -0.4783
 2593TIP3    H129270   6.393   4.671  15.274 -0.2794  0.4895  0.1655
 2593TIP3    H229271   6.354   4.532  15.321 -0.5436  0.4143 -0.2787
 2594TIP3   OH229272   5.618   2.383   2.242 -0.3933 -0.3797  0.1612
 2594TIP3    H129273   5.652   2.295   2.259  1.9304  0.6094  1.0339
 2594TIP3    H229274   5.667   2.413   2.166 -0.6065  0.4485  0.3444
 2595TIP3   OH229275   4.042   3.862  15.344  0.6976 -0.4124  0.0199
 2595TIP3    H129276   4.125   3.906  15.358 -0.3483  1.2396  1.3656
 2595TIP3    H229277   4.015   3.832  15.431 -0.8603  0.5689 -0.0714
 2596TIP3   OH229278   4.287   5.592  15.015  0.0867 -0.8479 -0.0435
 2596TIP3    H129279   4.234   5.512  15.020  0.8804 -1.5249 -1.7318
 2596TIP3    H229280   4.366   5.571  15.064 -0.1391 -0.7466  0.3604
 2597TIP3   OH229281   3.162   3.291  13.306  0.2247 -0.0144  0.0203
 2597TIP3    H129282   3.218   3.257  13.236  1.6608  0.0089  1.1322
 2597TIP3    H229283   3.183   3.238  13.382 -1.5718 -0.2642  0.3971
 2598TIP3   OH229284   6.575   6.417   1.323 -0.2602 -0.3816  0.5061
 2598TIP3    H129285   6.631   6.420   1.401  0.6162 -1.2693 -0.0588
 2598TIP3    H229286   6.632   6.448   1.252 -0.2305 -1.9310 -0.1963
 2599TIP3   OH229287   1.761   6.348   2.988  0.0471 -0.4013  0.5657
 2599TIP3    H129288   1.686   6.385   3.034  0.4142 -0.4367  1.1922
 2599TIP3    H229289   1.728   6.267   2.950 -0.2771 -0.3259  0.6793
 2600TIP3   OH229290   3.516   1.158   1.716 -0.1949 -0.1230  0.1570
 2600TIP3    H129291   3.596   1.207   1.697  0.2208 -0.7068  0.3838
 2600TIP3    H229292   3.538   1.105   1.793 -1.5373  1.4825  1.7611
 2601TIP3   OH229293   2.557   3.255  15.736  0.1858  0.5335 -0.2025
 2601TIP3    H129294   2.529   3.171  15.772  1.5792  0.3599  0.5351
 2601TIP3    H229295   2.562   3.313  15.812 -0.0676  1.1041 -0.6094
 2602TIP3   OH229296   4.746   2.362  16.550 -0.0915  0.7363  0.3482
 2602TIP3    H129297   4.672   2.419  16.572 -1.4850  0.0443 -2.1755
 2602TIP3    H229298   4.706   2.276  16.535  1.5167 -0.1204  0.7832
 2603TIP3   OH229299   5.891   0.882   1.713  0.0992  0.2132 -0.1449
 2603TIP3    H129300   5.985   0.866   1.716  0.3524  1.3386 -1.5812
 2603TIP3    H229301   5.877   0.959   1.768  0.0869  0.3296 -0.3098
 2604TIP3   OH229302   0.888   6.482  15.591 -0.7606  0.4261 -0.2942
 2604TIP3    H129303   0.929   6.474  15.677  0.1939  0.6048 -0.7192
 2604TIP3    H229304   0.962   6.491  15.530 -1.4346  2.9879 -0.8477
 2605TIP3   OH229305   0.484   3.358  16.036 -0.0330  0.0158  0.4309
 2605TIP3    H129306   0.470   3.393  15.948 -0.2146 -0.7864  0.1350
 2605TIP3    H229307   0.436   3.418  16.094  0.7099  0.9886  0.0721
 2606TIP3   OH229308   4.576   4.453  11.911 -0.2129 -0.0427  0.4309
 2606TIP3    H129309   4.617   4.414  11.988  0.6063  0.4842  0.2723
 2606TIP3    H229310   4.642   4.446  11.842 -0.5739  0.3532  0.0372
 2607TIP3   OH229311   2.398   1.265  13.344 -0.3859 -0.0409 -0.0441
 2607TIP3    H129312   2.390   1.266  13.439 -0.0654 -1.0623  0.0065
 2607TIP3    H229313   2.322   1.314  13.313  1.1073  3.0761  0.7896
 2608TIP3   OH229314   2.294   3.920  16.490 -0.0505 -0.1850 -0.4878
 2608TIP3    H129315   2.349   3.919  16.412 -0.5621  0.6871 -0.8778
 2608TIP3    H229316   2.230   3.990  16.473  1.7380  2.2969  2.0364
 2609TIP3   OH229317   2.292   3.243  11.994 -0.0754  0.1592  0.0614
 2609TIP3    H129318   2.238   3.319  12.016  0.9844  0.4693  1.7749
 2609TIP3    H229319   2.234   3.186  11.943 -1.8003  0.7687  1.2626
 2610TIP3   OH229320   2.398   3.824   1.518  0.0267  0.6942 -0.4163
 2610TIP3    H129321   2.350   3.902   1.490 -0.0063  0.7049 -0.3307
 2610TIP3    H229322   2.430   3.785   1.436  0.7943  1.2694 -0.3928
 2611TIP3   OH229323   0.871   1.612  15.456  0.3752 -0.7526 -0.2930
 2611TIP3    H129324   0.892   1.536  15.510  1.1555  0.1694  0.7495
 2611TIP3    H229325   0.804   1.659  15.505  1.0343  0.0473 -0.1282
 2612TIP3   OH229326   4.513   5.690   4.581  0.2485 -0.0457  0.4090
 2612TIP3    H129327   4.561   5.624   4.631 -0.7323 -1.0570  0.0666
 2612TIP3    H229328   4.438   5.642   4.545 -0.4183  1.2392  0.0423
 2613TIP3   OH229329   5.384   5.977  11.366 -0.3008 -0.3867 -0.1884
 2613TIP3    H129330   5.294   5.943  11.360 -1.2330  1.7844  0.5412
 2613TIP3    H229331   5.414   5.949  11.452 -0.2724 -1.0782 -0.4129
 2614TIP3   OH229332   0.241   3.452   2.938 -0.1919 -0.1263 -0.2306
 2614TIP3    H129333   0.245   3.454   3.033  0.1202  0.2836 -0.2477
 2614TIP3    H229334   0.202   3.367   2.917 -0.9340  0.0815  0.2806
 2615TIP3   OH229335   6.450   1.690  11.643 -0.1609  0.2293 -0.5303
 2615TIP3    H129336   6.507   1.627  11.599  0.5701  0.3433  0.2265
 2615TIP3    H229337   6.416   1.643  11.719  1.5108  1.1124  0.8632
 2616TIP3   OH229338   2.891   3.015  11.416 -0.4184  0.4290  0.2189
 2616TIP3    H129339   2.861   3.099  11.452 -1.5945 -0.4576  1.3953
 2616TIP3    H229340   2.886   2.954  11.490  3.0384 -0.1205  0.1433
 2617TIP3   OH229341   3.789   4.791  11.343  0.1013 -0.4233  0.0422
 2617TIP3    H129342   3.851   4.731  11.301  3.0693  1.9095  0.7748
 2617TIP3    H229343   3.829   4.811  11.427 -2.2473  0.4156  1.0304
 2618TIP3   OH229344   5.776   0.072   0.179  0.4506  0.2990 -0.0464
 2618TIP3    H129345   5.804   0.142   0.120 -0.4153 -0.9930 -2.1067
 2618TIP3    H229346   5.769  -0.005   0.122 -0.6392 -0.9781  1.7366
 2619TIP3   OH229347   4.865   4.505  12.497  0.1590  0.4560 -0.2642
 2619TIP3    H129348   4.805   4.529  12.426 -1.1613 -2.6903 -0.3951
 2619TIP3    H229349   4.808   4.482  12.570  1.2329 -1.2039  0.1086
 2620TIP3   OH229350   0.929   4.957  16.104  0.3296 -0.2245  0.2142
 2620TIP3    H129351   0.944   4.910  16.187 -4.2843 -3.0330 -0.1799
 2620TIP3    H229352   0.999   4.926  16.046  2.7082  0.5589  2.4603
 2621TIP3   OH229353   1.327   6.536  11.276  0.1106 -0.1813  0.4277
 2621TIP3    H129354   1.327   6.444  11.250  3.0801  0.2759 -1.6812
 2621TIP3    H229355   1.378   6.538  11.357 -0.8312 -0.4509  1.0499
 2622TIP3   OH229356   6.700   0.828   4.557  0.1007  0.3402 -0.0442
 2622TIP3    H129357   6.623   0.839   4.614 -1.0359 -0.4165 -1.3719
 2622TIP3    H229358   6.768   0.796   4.616 -0.8727  0.1028  1.0005
 2623TIP3   OH229359   6.017   5.220   6.069 -0.4483 -0.2635  0.3825
 2623TIP3    H129360   6.107   5.230   6.099 -0.4920  0.6134  0.2656
 2623TIP3    H229361   5.975   5.165   6.135  0.3012 -1.1114  0.1575
 2624TIP3   OH229362   1.199   5.328   1.435 -0.6057 -0.3307  0.1348
 2624TIP3    H129363   1.284   5.286   1.416 -1.4200 -2.1220  0.2344
 2624TIP3    H229364   1.201   5.409   1.384  0.6131 -1.0093 -0.9682
 2625TIP3   OH229365   0.134   5.046  12.289  0.2186 -0.3638  0.1025
 2625TIP3    H129366   0.146   4.955  12.262 -1.5985 -0.5111 -0.3358
 2625TIP3    H229367   0.160   5.047  12.381  0.4591 -1.2865  0.0563
 2626TIP3   OH229368   0.190   0.042  12.233  0.5380 -0.3765  0.7384
 2626TIP3    H129369   0.198   0.090  12.315 -0.6129 -0.4964  0.9303
 2626TIP3    H229370   0.260   0.077  12.177  2.6142 -1.6418  2.4130
 2627TIP3   OH229371   4.853   2.244   6.046 -0.4648 -0.2283  1.0752
 2627TIP3    H129372   4.902   2.222   6.125  0.7025  0.8153  0.6789
 2627TIP3    H229373   4.790   2.310   6.074 -0.2008 -0.0194  1.1833
 2628TIP3   OH229374   4.485   1.727  16.954 -0.4695  0.2912 -0.7340
 2628TIP3    H129375   4.472   1.784  16.878  1.0967  2.9967  0.8615
 2628TIP3    H229376   4.442   1.774  17.026  1.5968 -0.0725  0.8205
 2629TIP3   OH229377   1.185   0.914  11.518  0.3006 -0.2409 -0.1795
 2629TIP3    H129378   1.205   1.008  11.520  2.2604 -0.6219  0.0097
 2629TIP3    H229379   1.271   0.872  11.510 -0.6610 -1.9737 -2.0899
 2630TIP3   OH229380   2.440   2.282  13.292 -0.0480  0.4626  0.7442
 2630TIP3    H129381   2.421   2.214  13.356  0.0139 -1.6742 -1.3497
 2630TIP3    H229382   2.358   2.330  13.282 -0.5645 -0.3374  1.1043
 2631TIP3   OH229383   4.360   3.975   2.597 -0.2407 -0.4263  0.2351
 2631TIP3    H129384   4.400   4.051   2.638 -1.7713  0.9771 -0.7588
 2631TIP3    H229385   4.271   4.003   2.575 -0.5397 -2.1840 -1.0413
 2632TIP3   OH229386   0.415   3.913  14.514  0.3541  0.2338 -0.2058
 2632TIP3    H129387   0.356   3.840  14.535 -0.0909  0.6255 -0.0513
 2632TIP3    H229388   0.359   3.991  14.522  0.2879  0.4640 -2.3769
 2633TIP3   OH229389   4.677   1.936   5.737  0.4242 -0.6788 -0.2644
 2633TIP3    H129390   4.754   1.992   5.741  0.5962 -0.7659 -1.7254
 2633TIP3    H229391   4.657   1.915   5.828  0.9610  0.9207  0.2453
 2634TIP3   OH229392   3.706   5.590  15.444 -0.5073 -0.4192 -0.6898
 2634TIP3    H129393   3.663   5.513  15.408  0.7645 -1.0032 -1.0393
 2634TIP3    H229394   3.799   5.575  15.427  0.1463 -0.4807  2.3687
 2635TIP3   OH229395   1.906   0.126  13.456 -0.0222 -0.2639 -0.2058
 2635TIP3    H129396   1.850   0.049  13.464 -0.8191  0.4354  1.4142
 2635TIP3    H229397   1.995   0.092  13.453 -0.3500 -1.2406  0.7159
 2636TIP3   OH229398   3.058   5.169  14.219 -0.0179  0.3430 -0.1292
 2636TIP3    H129399   3.124   5.184  14.287 -0.2187 -0.5429  0.2862
 2636TIP3    H229400   3.006   5.249  14.218 -0.5696  0.0585  1.4205
 2637TIP3   OH229401   4.491   3.174  10.795  0.1082  0.0034 -0.0563
 2637TIP3    H129402   4.421   3.137  10.849  0.8276  0.4513  1.2131
 2637TIP3    H229403   4.462   3.264  10.778  1.1227  0.7457  1.9023
 2638TIP3   OH229404   2.044   2.832  14.677 -0.5159 -0.3336 -0.0801
 2638TIP3    H129405   1.999   2.874  14.603  0.8231  2.3665  0.5117
 2638TIP3    H229406   1.987   2.847  14.752 -0.8313 -1.1263 -0.1507
 2639TIP3   OH229407   2.226   0.545  16.738 -0.9074  0.0973 -0.2145
 2639TIP3    H129408   2.170   0.586  16.673 -1.4672  2.1394  1.4326
 2639TIP3    H229409   2.191   0.457  16.749 -0.2139 -0.6772 -3.2648
 2640TIP3   OH229410   2.333   4.723  15.773 -0.0719  0.1669 -0.5543
 2640TIP3    H129411   2.412   4.761  15.811  0.0879 -0.0270 -0.6930
 2640TIP3    H229412   2.289   4.681  15.848  0.9753 -1.4872 -0.8067
 2641TIP3   OH229413   2.725   0.701  13.070  0.2382  0.5756 -0.3994
 2641TIP3    H129414   2.750   0.793  13.072  1.4951  0.2531  0.2253
 2641TIP3    H229415   2.774   0.662  13.142 -2.1961 -0.1377  0.9574
 2642TIP3   OH229416   0.039   2.309  12.305  0.5273 -0.7017 -0.4022
 2642TIP3    H129417   0.043   2.215  12.318  0.0315 -0.8045 -0.9368
 2642TIP3    H229418   0.074   2.323  12.217  0.3239 -0.4194 -0.4415
 2643TIP3   OH229419   5.046   1.529  15.374  0.2516  0.2088 -0.5072
 2643TIP3    H129420   5.127   1.499  15.333  0.1848  0.8527 -1.1221
 2643TIP3    H229421   5.050   1.495  15.464  0.8436 -0.3997 -0.7606
 2644TIP3   OH229422   6.823   5.558   3.641 -0.3910  0.1843  0.1563
 2644TIP3    H129423   6.799   5.650   3.648 -1.3391 -0.0122 -0.3020
 2644TIP3    H229424   6.899   5.548   3.698  0.5155  1.5145 -0.7647
 2645TIP3   OH229425   3.908   0.176   5.600 -0.1690 -0.3398  0.4404
 2645TIP3    H129426   3.857   0.107   5.559  0.5536 -0.5871 -0.0448
 2645TIP3    H229427   3.860   0.257   5.580 -0.0523 -0.5045 -0.5189
 2646TIP3   OH229428   6.608   2.614   2.523  0.4659  0.0483  0.1749
 2646TIP3    H129429   6.537   2.664   2.564  0.8283  0.9344 -0.2639
 2646TIP3    H229430   6.675   2.679   2.503  1.0320 -0.6481 -0.2290
 2647TIP3   OH229431   5.249   4.043   0.118 -0.1600 -0.0582 -0.2563
 2647TIP3    H129432   5.186   4.087   0.061  0.6961  0.9885 -0.4283
 2647TIP3    H229433   5.207   4.042   0.204 -1.1463 -0.9843 -0.7283
 2648TIP3   OH229434   3.595   1.723   0.498 -0.0571 -0.8698 -0.2228
 2648TIP3    H129435   3.575   1.787   0.566  2.4969 -0.6535  0.4283
 2648TIP3    H229436   3.544   1.646   0.521 -1.8226  0.2967 -0.0189
 2649TIP3   OH229437   6.770   1.081   5.007  1.0762 -0.1700  0.0730
 2649TIP3    H129438   6.839   1.022   4.977  1.8946  0.9826 -0.3582
 2649TIP3    H229439   6.689   1.041   4.976  1.6612 -0.7457 -0.7565
 2650TIP3   OH229440   3.134   2.683   0.796  0.2681  0.2766  0.3125
 2650TIP3    H129441   3.180   2.682   0.712  1.2699 -0.1795  0.8483
 2650TIP3    H229442   3.069   2.613   0.789  1.6430 -1.0837  0.5898
 2651TIP3   OH229443   2.281   6.166   2.877  0.1994  0.5489 -0.2538
 2651TIP3    H129444   2.255   6.135   2.964 -1.6185  0.8046 -0.6524
 2651TIP3    H229445   2.376   6.172   2.881  0.1319  1.1943  1.9476
 2652TIP3   OH229446   1.286   2.966   2.972 -0.1818 -0.1641 -0.0443
 2652TIP3    H129447   1.213   2.915   2.937 -0.2910  0.1809 -0.3274
 2652TIP3    H229448   1.347   2.975   2.899  0.3578 -0.8216  0.3102
 2653TIP3   OH229449   6.390   3.666  10.725 -0.1544  0.2213 -0.5263
 2653TIP3    H129450   6.371   3.639  10.635 -0.2152 -0.4727 -0.3122
 2653TIP3    H229451   6.366   3.590  10.778  2.2946 -0.3619 -0.1508
 2654TIP3   OH229452   6.764   2.116  13.439  0.1691 -0.2832 -0.4404
 2654TIP3    H129453   6.748   2.044  13.378  0.2959 -0.5732 -0.1352
 2654TIP3    H229454   6.804   2.074  13.516  0.3715  0.1297 -0.3150
 2655TIP3   OH229455   1.254   0.019   1.579  0.0641 -0.0162  0.1385
 2655TIP3    H129456   1.208  -0.035   1.643 -0.8546 -1.3806 -1.5738
 2655TIP3    H229457   1.186   0.070   1.536  0.4803 -0.0519 -0.5854
 2656TIP3   OH229458   0.665   5.781   2.123 -0.3202  0.0926 -0.4594
 2656TIP3    H129459   0.655   5.755   2.031 -1.3941 -0.5646 -0.1719
 2656TIP3    H229460   0.577   5.774   2.160 -0.0733  1.2184  0.4100
 2657TIP3   OH229461   6.831   0.642   1.516  0.1042 -0.5046  0.0089
 2657TIP3    H129462   6.835   0.720   1.461  0.1250 -0.5611 -0.0691
 2657TIP3    H229463   6.910   0.593   1.495  0.0436 -0.5939 -0.0122
 2658TIP3   OH229464   6.181   2.714  11.790 -0.7157 -0.2973 -0.5945
 2658TIP3    H129465   6.118   2.733  11.720 -0.5273  0.4232 -0.5742
 2658TIP3    H229466   6.203   2.799  11.827  1.0959 -0.4063 -1.3196
 2659TIP3   OH229467   0.910   6.137  16.175  0.2159  0.2155  0.2393
 2659TIP3    H129468   0.839   6.074  16.190  0.6974 -0.8403 -1.6347
 2659TIP3    H229469   0.866   6.215  16.140 -0.0314 -0.4919 -1.0671
 2660TIP3   OH229470   5.942   3.434   0.081 -0.3989  0.4099 -0.1223
 2660TIP3    H129471   5.942   3.338   0.090  2.5012  0.4771  2.8339
 2660TIP3    H229472   5.973   3.450  -0.008  0.6028 -1.4873 -0.1731
 2661TIP3   OH229473   0.734   0.537   4.899  0.5977  0.2992 -0.6197
 2661TIP3    H129474   0.690   0.461   4.938  0.6393  0.8798  0.6015
 2661TIP3    H229475   0.693   0.547   4.813  0.3980 -0.9329 -0.6842
 2662TIP3   OH229476   4.604   4.690   5.289 -0.3862 -0.0091 -0.5327
 2662TIP3    H129477   4.525   4.742   5.275 -0.2046  0.4525  0.1342
 2662TIP3    H229478   4.632   4.712   5.378  0.5397 -0.1061 -0.7912
 2663TIP3   OH229479   5.422   1.043  17.059  0.2845  0.2605 -0.6144
 2663TIP3    H129480   5.391   1.008  17.142  1.5784 -2.2493 -1.1250
 2663TIP3    H229481   5.347   1.032  17.000  0.1530 -0.1819 -0.3695
 2664TIP3   OH229482   1.282   1.599   2.648  0.0197 -0.4756 -0.4483
 2664TIP3    H129483   1.297   1.664   2.717  0.7433  0.0088 -1.0463
 2664TIP3    H229484   1.351   1.535   2.661 -1.1911 -1.6249  0.6688
 2665TIP3   OH229485   2.753   3.998   4.287  0.3136  0.2947 -0.8047
 2665TIP3    H129486   2.691   4.072   4.291  0.1856  0.2356 -1.5316
 2665TIP3    H229487   2.698   3.921   4.300  0.2360  0.2476 -1.3735
 2666TIP3   OH229488   2.104   3.528   3.685  0.3198 -0.2802  0.9139
 2666TIP3    H129489   2.097   3.621   3.663  0.6616 -0.1275  1.4317
 2666TIP3    H229490   2.075   3.483   3.606  2.0797  0.2432 -0.0772
 2667TIP3   OH229491   0.114   2.442  11.474  0.3054 -0.3891 -0.2937
 2667TIP3    H129492   0.176   2.384  11.429 -1.8426 -0.8818 -2.8812
 2667TIP3    H229493   0.043   2.385  11.502  0.5100  0.3024  1.8193
 2668TIP3   OH229494   3.491   5.416  13.671  0.3367 -0.3876  0.4426
 2668TIP3    H129495   3.582   5.408  13.702  0.7796 -0.4371 -0.8092
 2668TIP3    H229496   3.485   5.354  13.597 -0.6743 -0.2728  0.4130
 2669TIP3   OH229497   0.811   3.366   0.005  0.0041  0.1989 -0.4363
 2669TIP3    H129498   0.723   3.389   0.035 -0.4611 -0.7617 -1.0232
 2669TIP3    H229499   0.828   3.281   0.044  1.0744  0.8001  0.4493
 2670TIP3   OH229500   5.321   4.918   4.982 -0.5770 -0.0692  0.1377
 2670TIP3    H129501   5.293   4.949   5.068 -0.3792  1.4137 -0.3041
 2670TIP3    H229502   5.417   4.918   4.986 -0.5534  0.4040 -0.1880
 2671TIP3   OH229503   3.014   3.989   0.679  0.0959  0.8308  0.3077
 2671TIP3    H129504   2.943   4.053   0.669 -2.0658 -1.3511  0.5420
 2671TIP3    H229505   3.003   3.957   0.769 -1.4239 -2.4963 -0.8999
 2672TIP3   OH229506   6.700   6.320  14.817  0.0983 -0.0466  0.6883
 2672TIP3    H129507   6.781   6.353  14.854  0.1170  0.9375 -0.1957
 2672TIP3    H229508   6.720   6.304  14.725 -0.9619  1.2243  0.1950
 2673TIP3   OH229509   2.296   5.623  15.390 -0.4835 -0.2347  0.4962
 2673TIP3    H129510   2.356   5.601  15.461 -1.0393 -1.1841  0.6975
 2673TIP3    H229511   2.236   5.687  15.429  0.7543  1.1944  0.1050
 2674TIP3   OH229512   2.771   3.977  14.158  0.3714  0.7631 -0.1651
 2674TIP3    H129513   2.737   4.010  14.075 -2.0810 -1.0482  0.0280
 2674TIP3    H229514   2.866   3.975  14.146  0.0700 -0.1236 -3.1935
 2675TIP3   OH229515   5.783   0.116   5.338  0.5872 -0.0818 -0.2736
 2675TIP3    H129516   5.866   0.137   5.295  0.6835 -1.9257 -1.0912
 2675TIP3    H229517   5.791   0.156   5.425  1.8034  0.8196 -0.7633
 2676TIP3   OH229518   3.411   1.854  13.871  0.0145  0.0908  0.5553
 2676TIP3    H129519   3.370   1.925  13.920 -0.6880  0.5011 -0.5711
 2676TIP3    H229520   3.459   1.804  13.936  1.2884  2.1016  1.2625
 2677TIP3   OH229521   0.436   4.363  14.251  0.1169 -0.2122 -0.6740
 2677TIP3    H129522   0.489   4.347  14.329 -1.1514  0.0248  0.2615
 2677TIP3    H229523   0.458   4.452  14.225 -0.2825  0.1217  0.0974
 2678TIP3   OH229524   3.748   1.350   1.705  0.2270  0.1570 -0.4540
 2678TIP3    H129525   3.799   1.328   1.627 -0.0355  0.3540 -0.6824
 2678TIP3    H229526   3.761   1.445   1.716 -0.3539  0.2640 -0.7022
 2679TIP3   OH229527   6.627   4.915  13.411 -0.0099  0.4002 -0.0856
 2679TIP3    H129528   6.633   5.009  13.430 -1.2826  0.4182  0.3362
 2679TIP3    H229529   6.553   4.907  13.352  1.0785 -0.1917 -1.4216
 2680TIP3   OH229530   0.967   6.226   1.932  0.0634 -0.0185  0.4844
 2680TIP3    H129531   0.900   6.221   1.863  0.8084  0.1004 -0.2678
 2680TIP3    H229532   0.968   6.318   1.957 -0.4829 -0.1325  0.9379
 2681TIP3   OH229533   6.358   4.033  11.648 -0.3441  0.1940  0.0767
 2681TIP3    H129534   6.278   3.982  11.657  0.0399 -0.0991  2.3007
 2681TIP3    H229535   6.372   4.072  11.734  1.9527  0.1744 -0.2254
 2682TIP3   OH229536   5.281   3.677  13.149  0.5009 -0.9118 -0.4306
 2682TIP3    H129537   5.234   3.730  13.214  1.5002 -0.9100  0.3179
 2682TIP3    H229538   5.230   3.597  13.142  0.2209 -0.7929  0.1515
 2683TIP3   OH229539   0.808   0.023   3.402  0.1608 -0.2449  0.4264
 2683TIP3    H129540   0.790   0.011   3.309  0.4834 -0.7692  0.4265
 2683TIP3    H229541   0.743   0.087   3.431  0.2746  0.1794 -0.2325
 2684TIP3   OH229542   3.707   0.596  12.097 -0.2774 -0.3404 -0.2638
 2684TIP3    H129543   3.615   0.622  12.097 -0.0229  0.6255  0.2670
 2684TIP3    H229544   3.707   0.507  12.134 -0.8694  0.1927  1.1013
 2685TIP3   OH229545   2.054   6.198   5.159 -0.2257  0.1740 -0.0163
 2685TIP3    H129546   2.111   6.243   5.096 -0.8489  0.8204 -0.1342
 2685TIP3    H229547   2.107   6.191   5.239 -0.5726  2.3885  0.4660
 2686TIP3   OH229548   0.468   6.539   3.750  0.2897 -0.2923  0.5589
 2686TIP3    H129549   0.518   6.558   3.670 -3.0986 -0.4034 -1.8054
 2686TIP3    H229550   0.441   6.625   3.782 -0.0331 -0.3412  0.4153
 2687TIP3   OH229551   0.296   4.738   3.074  0.0250 -0.4546 -0.3521
 2687TIP3    H129552   0.354   4.769   3.004  1.7206 -1.2293  0.6381
 2687TIP3    H229553   0.338   4.768   3.154 -1.3406 -0.4728  0.3996
 2688TIP3   OH229554   2.188   3.673   4.639 -0.1088  0.0274  0.2503
 2688TIP3    H129555   2.207   3.709   4.726  2.1366 -1.7176  0.5699
 2688TIP3    H229556   2.208   3.744   4.579 -0.6262  0.9077  1.0894
 2689TIP3   OH229557   5.834   0.819   2.846 -0.4985  0.4303 -0.2174
 2689TIP3    H129558   5.750   0.859   2.824 -0.0930  1.2811 -0.2787
 2689TIP3    H229559   5.899   0.886   2.823  0.1938 -0.1865 -0.1157
 2690TIP3   OH229560   4.781   1.060  12.935 -0.3112  0.0721 -0.0749
 2690TIP3    H129561   4.716   1.019  12.879 -1.7394  0.7145  1.0374
 2690TIP3    H229562   4.759   1.030  13.023 -0.0335  1.4759  0.4997
 2691TIP3   OH229563   0.097   5.376   0.359  0.1514  0.1322 -0.3530
 2691TIP3    H129564   0.071   5.319   0.287  0.0589  0.7345 -0.8049
 2691TIP3    H229565   0.029   5.363   0.425  1.4406 -2.1753  0.6404
 2692TIP3   OH229566   3.502   4.099  16.240  0.5717  0.1710  0.1549
 2692TIP3    H129567   3.475   4.064  16.326  1.2410 -0.9372 -0.0677
 2692TIP3    H229568   3.557   4.030  16.203  0.9604  0.9937 -0.8236
 2693TIP3   OH229569   0.481   2.092  12.066 -0.0572 -0.3196 -0.6931
 2693TIP3    H129570   0.570   2.074  12.036 -0.4399  1.0194 -2.8926
 2693TIP3    H229571   0.449   2.160  12.006 -2.7735 -1.1890 -0.3614
 2694TIP3   OH229572   1.283   2.015   6.112 -0.0276 -0.3261 -0.3398
 2694TIP3    H129573   1.346   1.949   6.139 -0.4446 -0.5310  0.1590
 2694TIP3    H229574   1.212   1.965   6.070  1.0647  0.0501 -2.8236
 2695TIP3   OH229575   2.239   3.290   3.733 -0.5221 -0.5706 -0.3058
 2695TIP3    H129576   2.308   3.300   3.666 -0.4636 -0.8632 -0.2916
 2695TIP3    H229577   2.188   3.370   3.727 -1.5582 -1.2992 -1.8879
 2696TIP3   OH229578   0.149   5.577  11.268  0.2788 -0.6608 -0.3881
 2696TIP3    H129579   0.207   5.521  11.216  0.2662 -0.6093 -0.4580
 2696TIP3    H229580   0.061   5.548  11.244  0.2742 -0.6907 -0.3364
 2697TIP3   OH229581   4.942   3.620  13.271 -0.0834 -0.2907  0.2139
 2697TIP3    H129582   4.909   3.700  13.314  1.0958 -0.4458  1.4885
 2697TIP3    H229583   4.958   3.646  13.181 -3.3884 -0.1378 -0.4667
 2698TIP3   OH229584   4.845   5.341   2.943 -0.3704 -0.4958  0.6582
 2698TIP3    H129585   4.861   5.252   2.975  0.5971 -0.9011 -0.8511
 2698TIP3    H229586   4.921   5.391   2.972  0.1661 -0.7010 -0.3425
 2699TIP3   OH229587   5.019   6.472  14.864 -0.3539 -0.3187 -0.1084
 2699TIP3    H129588   5.078   6.439  14.797  0.4565 -0.3799  0.6240
 2699TIP3    H229589   4.963   6.398  14.886  1.3920 -1.2483  1.4625
 2700TIP3   OH229590   6.302   1.592  11.385 -0.2332 -0.0786  0.5400
 2700TIP3    H129591   6.323   1.630  11.470  0.5005  0.4796  0.1353
 2700TIP3    H229592   6.312   1.498  11.397  1.5786  0.0795  0.6714
 2701TIP3   OH229593   2.295   0.946   1.942  0.7781  0.5316  0.3103
 2701TIP3    H129594   2.232   0.874   1.945  0.8451  0.4438 -0.2279
 2701TIP3    H229595   2.350   0.927   1.866  1.0547  0.9377  0.4035
 2702TIP3   OH229596   1.246   5.237  14.529  0.3732  0.1580 -0.1577
 2702TIP3    H129597   1.280   5.315  14.574  0.1474 -1.1998  2.5598
 2702TIP3    H229598   1.272   5.164  14.585 -0.5652 -1.6237 -1.9371
 2703TIP3   OH229599   3.034   3.563  15.151  0.0490 -0.4560 -0.5760
 2703TIP3    H129600   3.040   3.495  15.218 -1.0791 -1.3043 -1.3077
 2703TIP3    H229601   3.104   3.543  15.089  1.8016  0.9547  0.8439
 2704TIP3   OH229602   4.269   1.156   0.756  0.0127 -0.1491 -0.3796
 2704TIP3    H129603   4.231   1.114   0.678 -0.8995  2.0255 -1.1654
 2704TIP3    H229604   4.205   1.139   0.825 -0.4877  0.1861 -0.7558
 2705TIP3   OH229605   4.500   0.924   6.657  0.2873  0.0777 -0.3315
 2705TIP3    H129606   4.591   0.944   6.681  0.1523  0.6630 -0.3183
 2705TIP3    H229607   4.449   0.997   6.691 -0.0389  0.3942 -1.4572
 2706TIP3   OH229608   5.143   6.607   5.082 -0.1757  0.5345 -0.4139
 2706TIP3    H129609   5.112   6.591   4.993 -1.6991  1.3644 -0.0629
 2706TIP3    H229610   5.236   6.629   5.072 -0.5893  1.7006 -1.9240
 2707TIP3   OH229611   3.925   1.938   6.817  0.4320 -0.0480 -0.1382
 2707TIP3    H129612   3.849   1.980   6.777 -0.4851 -1.1582  0.3767
 2707TIP3    H229613   3.963   2.005   6.874 -0.7357  0.2464  0.3201
 2708TIP3   OH229614   2.167   2.845  13.193  0.5824 -0.5802  0.1728
 2708TIP3    H129615   2.231   2.910  13.220 -0.8291  1.3024 -0.7572
 2708TIP3    H229616   2.161   2.855  13.098 -1.0379 -0.7028  0.2236
 2709TIP3   OH229617   1.231   0.151  12.374  0.2420  0.6996  0.1973
 2709TIP3    H129618   1.194   0.125  12.458  0.6290 -3.8425 -0.7750
 2709TIP3    H229619   1.307   0.203  12.396 -1.5660  2.5996  2.4565
 2710TIP3   OH229620   4.001   0.182   0.738 -0.4151  0.2335  0.0857
 2710TIP3    H129621   3.947   0.192   0.817 -0.5332 -1.6221  0.2897
 2710TIP3    H229622   3.945   0.133   0.677 -0.2998  1.5791 -1.1610
 2711TIP3   OH229623   1.888   3.305  15.745  0.2591  0.1597 -0.2643
 2711TIP3    H129624   1.872   3.216  15.715 -2.4247  0.6140 -0.4265
 2711TIP3    H229625   1.942   3.344  15.676 -1.0053 -0.5165 -1.7190
 2712TIP3   OH229626   4.479   2.041   1.926  0.0036 -0.0031  0.1846
 2712TIP3    H129627   4.498   1.998   1.842  1.4495  2.3679 -0.7981
 2712TIP3    H229628   4.395   2.005   1.952  0.3419 -2.1496 -1.3675
 2713TIP3   OH229629   2.544   1.730  16.685  0.7023  0.5093 -0.4276
 2713TIP3    H129630   2.451   1.737  16.666  0.1486 -2.4554  0.6433
 2713TIP3    H229631   2.585   1.714  16.600  0.0533  0.5009 -0.7426
 2714TIP3   OH229632   5.890   4.162  10.819 -0.0061 -0.4022  0.0460
 2714TIP3    H129633   5.921   4.094  10.759 -0.1795  0.2745 -0.8350
 2714TIP3    H229634   5.810   4.126  10.856 -1.2514  0.1061 -1.9873
 2715TIP3   OH229635   1.544   6.365   5.288  0.4714  1.1146 -0.1986
 2715TIP3    H129636   1.608   6.294   5.293 -0.2157  0.4952  0.1761
 2715TIP3    H229637   1.585   6.431   5.233  1.0468  0.3238 -0.7478
 2716TIP3   OH229638   0.612   6.106   2.285  0.2177  0.2640  0.1805
 2716TIP3    H129639   0.535   6.073   2.332  0.6660 -0.1899  0.6017
 2716TIP3    H229640   0.653   6.167   2.345 -0.1190  0.9389 -0.2623
 2717TIP3   OH229641   5.559   3.769  15.400  0.3192 -0.1013  0.2655
 2717TIP3    H129642   5.585   3.793  15.311 -1.8797  3.5751  0.4180
 2717TIP3    H229643   5.475   3.724  15.390  0.6345 -0.7417  0.4471
 2718TIP3   OH229644   2.805   2.434   1.686 -0.3389  0.0687  0.5289
 2718TIP3    H129645   2.851   2.372   1.630  1.0152  1.3569  0.1530
 2718TIP3    H229646   2.860   2.513   1.686 -1.0539  0.6362  2.4800
 2719TIP3   OH229647   2.023   6.109   3.075  0.1840 -0.4669  0.3753
 2719TIP3    H129648   2.102   6.078   3.120 -0.8953 -1.5850  1.5665
 2719TIP3    H229649   2.031   6.204   3.076  0.6375 -0.4867  2.1828
 2720TIP3   OH229650   2.266   3.063  14.494  0.1641  0.2800 -0.0264
 2720TIP3    H129651   2.232   2.974  14.494  1.0719 -0.0877  0.4474
 2720TIP3    H229652   2.221   3.106  14.566  1.2881 -0.4620  1.1788
 2721TIP3   OH229653   5.400   2.586  12.215 -0.1787 -0.2950 -0.0085
 2721TIP3    H129654   5.457   2.558  12.286 -2.3425 -4.3145  0.4444
 2721TIP3    H229655   5.444   2.555  12.136  0.1008  0.1801 -0.0457
 2722TIP3   OH229656   6.368   0.773  16.525 -0.3249  0.0124 -0.3088
 2722TIP3    H129657   6.413   0.832  16.464  1.4680 -1.0291 -0.0688
 2722TIP3    H229658   6.415   0.784  16.608  1.5031 -3.1781 -0.7433
 2723TIP3   OH229659   4.654   0.353  15.222 -0.2872  0.3671  0.7790
 2723TIP3    H129660   4.650   0.342  15.127  1.6462 -0.7994  0.7882
 2723TIP3    H229661   4.660   0.448  15.235  1.0359  0.4744 -0.3784
 2724TIP3   OH229662   3.883   6.418   3.713 -0.4595 -0.2516  0.0939
 2724TIP3    H129663   3.944   6.491   3.703 -1.0651  0.3307  0.6296
 2724TIP3    H229664   3.937   6.345   3.744  0.0087  0.1900  0.3180
 2725TIP3   OH229665   4.463   2.233  12.258 -0.7096 -0.4570 -0.3460
 2725TIP3    H129666   4.463   2.197  12.346 -0.6552 -1.1742 -0.6338
 2725TIP3    H229667   4.525   2.178  12.209 -1.7124 -0.8971 -1.1557
 2726TIP3   OH229668   2.470   6.830   5.219  0.4206 -0.4223  0.4435
 2726TIP3    H129669   2.437   6.794   5.302 -1.3743 -0.5978 -0.2995
 2726TIP3    H229670   2.417   6.789   5.152  2.1440 -0.6107 -0.8715
 2727TIP3   OH229671   3.835   2.927  15.006  0.0506 -0.4204 -0.9715
 2727TIP3    H129672   3.921   2.885  15.012 -0.2906 -1.0610 -0.5319
 2727TIP3    H229673   3.849   3.001  14.946  0.8019 -0.7753 -1.2455
 2728TIP3   OH229674   0.405   6.703  13.157 -0.0444 -0.5589 -0.4661
 2728TIP3    H129675   0.440   6.691  13.069 -0.5078 -0.0182 -0.7374
 2728TIP3    H229676   0.313   6.677  13.150 -0.5652  1.2115 -0.6063
 2729TIP3   OH229677   6.087   2.319   3.557 -0.0502  0.1440 -0.2306
 2729TIP3    H129678   6.061   2.376   3.486 -0.7924  0.3465  0.1890
 2729TIP3    H229679   6.136   2.248   3.515 -0.4681  0.2682 -0.9400
 2730TIP3   OH229680   2.064   5.036   5.838  0.0932 -0.2237  0.2086
 2730TIP3    H129681   1.993   5.090   5.806  0.6904  0.5237  0.1197
 2730TIP3    H229682   2.098   4.992   5.760 -1.5678 -2.2023  0.5210
 2731TIP3   OH229683   1.618   5.160  12.388 -0.7800  0.0435  0.4991
 2731TIP3    H129684   1.553   5.109  12.339 -0.6817  0.7645 -0.4197
 2731TIP3    H229685   1.686   5.180  12.324 -0.5412  0.8283  0.9835
 2732TIP3   OH229686   2.610   0.062  15.955 -0.1859  0.2653 -0.3104
 2732TIP3    H129687   2.684   0.009  15.986 -0.6277  0.6519  1.5255
 2732TIP3    H229688   2.533   0.009  15.976 -0.6054  1.3912  1.1231
 2733TIP3   OH229689   4.692   2.936   0.910  0.2535 -0.0014 -0.3447
 2733TIP3    H129690   4.620   2.995   0.931  0.7621  0.8373 -0.8567
 2733TIP3    H229691   4.758   2.993   0.870  1.2403 -0.7276  0.2090
 2734TIP3   OH229692   0.396   1.802  14.981  0.2998 -0.0544 -0.1297
 2734TIP3    H129693   0.469   1.753  14.942  1.5796  1.4374  0.3212
 2734TIP3    H229694   0.325   1.738  14.986  1.6992 -1.6874 -0.1576
 2735TIP3   OH229695   3.426   4.950   3.899  0.2068  0.2531 -0.3998
 2735TIP3    H129696   3.365   5.007   3.947  0.1563  1.6957 -2.0361
 2735TIP3    H229697   3.508   4.956   3.947 -0.2059  0.5568  0.2803
 2736TIP3   OH229698   0.757   6.583  11.068 -0.4019  0.0508  0.2114
 2736TIP3    H129699   0.765   6.678  11.070 -3.2736  0.3744  0.8469
 2736TIP3    H229700   0.823   6.555  11.004 -0.1427  2.5506 -0.7341
 2737TIP3   OH229701   3.067   5.276   2.060  0.4825 -0.5868 -0.2521
 2737TIP3    H129702   3.096   5.313   2.144 -2.8052 -0.1482  0.8536
 2737TIP3    H229703   3.062   5.351   2.001  0.3562 -0.4577 -0.0765
 2738TIP3   OH229704   2.251   5.763   6.195 -0.4562  0.0354  0.2887
 2738TIP3    H129705   2.196   5.801   6.264  1.0220  1.1362  0.9210
 2738TIP3    H229706   2.281   5.679   6.231 -0.5384  0.1158  0.5422
 2739TIP3   OH229707   5.248   3.508  11.329 -0.1033 -0.6907  0.4994
 2739TIP3    H129708   5.182   3.507  11.260  0.2669 -1.6637  0.1349
 2739TIP3    H229709   5.198   3.513  11.410 -0.5239  0.8911  0.1615
 2740TIP3   OH229710   0.274   0.900   4.720  0.0176 -0.4260  0.0353
 2740TIP3    H129711   0.232   0.866   4.641  1.0825  0.5944 -1.0017
 2740TIP3    H229712   0.339   0.962   4.688  0.7577 -0.2930  1.7101
 2741TIP3   OH229713   6.312   0.573  12.665  0.5383 -0.1092  0.1315
 2741TIP3    H129714   6.276   0.491  12.699  2.2754 -0.6202  0.8542
 2741TIP3    H229715   6.359   0.548  12.585 -1.8492  0.7841 -1.6936
 2742TIP3   OH229716   4.474   5.867   3.694 -0.3462 -0.5824 -0.1913
 2742TIP3    H129717   4.441   5.825   3.774  0.4996  0.3722  0.6989
 2742TIP3    H229718   4.534   5.935   3.726  0.2343 -0.3641 -1.6594
 2743TIP3   OH229719   5.116   4.881   2.379  0.2592  0.4443  0.2649
 2743TIP3    H129720   5.155   4.931   2.450  1.3675  1.5250 -1.0346
 2743TIP3    H229721   5.115   4.942   2.305 -1.4370 -0.4182 -0.5023
 2744TIP3   OH229722   5.282   2.735   6.734  0.0750  0.2566  0.0682
 2744TIP3    H129723   5.359   2.681   6.754 -0.2671 -0.7572 -1.2007
 2744TIP3    H229724   5.311   2.825   6.751  1.4340 -0.1329 -0.0554
 2745TIP3   OH229725   1.392   6.056   2.914  0.1885 -0.3426 -0.5130
 2745TIP3    H129726   1.334   6.118   2.959  1.9750  1.6697 -0.7855
 2745TIP3    H229727   1.378   6.073   2.821  0.7843 -0.2355 -0.5878
 2746TIP3   OH229728   5.508   3.676   4.258 -0.2611 -0.8511 -0.0229
 2746TIP3    H129729   5.483   3.664   4.167 -1.8244 -0.7062  0.3628
 2746TIP3    H229730   5.501   3.771   4.272 -0.6767 -0.9440  0.4147
 2747TIP3   OH229731   6.783   6.287  12.339 -0.2894  0.8051 -0.1465
 2747TIP3    H129732   6.862   6.286  12.285 -2.0889 -0.0343 -2.9831
 2747TIP3    H229733   6.769   6.196  12.363  0.0173  1.0604  1.0646
 2748TIP3   OH229734   5.164   3.808  13.368  0.4811 -0.0435  0.1784
 2748TIP3    H129735   5.116   3.875  13.320  0.6728  1.2114  1.6415
 2748TIP3    H229736   5.109   3.789  13.444  1.7771  0.7101  1.3676
 2749TIP3   OH229737   2.994   6.210   5.319 -0.4530 -0.7969 -0.1675
 2749TIP3    H129738   2.970   6.284   5.263  1.2253 -0.3357 -0.3281
 2749TIP3    H229739   3.017   6.250   5.403  1.1436 -1.0345 -0.4679
 2750TIP3   OH229740   5.059   0.242   1.725 -0.2013 -0.3457  0.0521
 2750TIP3    H129741   4.965   0.257   1.725 -0.0855  0.4173 -0.3895
 2750TIP3    H229742   5.090   0.282   1.644  0.5341 -0.3608  0.3203
 2751TIP3   OH229743   0.929   2.780  16.382  0.1064 -0.1116 -0.4950
 2751TIP3    H129744   0.948   2.865  16.344 -1.3847 -0.1026 -1.2720
 2751TIP3    H229745   0.934   2.719  16.309  1.7179 -0.8243  0.1462
 2752TIP3   OH229746   5.520   2.045  14.761  0.1154  0.0672 -0.1876
 2752TIP3    H129747   5.571   1.990  14.702  1.8602  1.5910 -0.2181
 2752TIP3    H229748   5.524   2.001  14.846  0.5343 -0.4007 -0.4477
 2753TIP3   OH229749   4.094   1.750   1.797  0.3693  0.1301  0.0448
 2753TIP3    H129750   4.156   1.711   1.735  1.8123  0.5966  1.1217
 2753TIP3    H229751   4.049   1.818   1.747 -0.2140 -1.0495 -1.1035
 2754TIP3   OH229752   5.250   0.359   3.587  0.3895 -0.9165  0.0734
 2754TIP3    H129753   5.316   0.409   3.635  1.0319 -0.8408 -0.8648
 2754TIP3    H229754   5.204   0.424   3.535 -0.6697 -0.9200  0.9573
 2755TIP3   OH229755   5.594   4.209   1.464  0.2503  0.0857 -0.4747
 2755TIP3    H129756   5.499   4.216   1.459  0.3123  1.3009 -0.2737
 2755TIP3    H229757   5.621   4.192   1.374 -0.0981  0.7036 -0.7026
 2756TIP3   OH229758   4.049   0.652   5.459 -0.1518  0.1223  0.6968
 2756TIP3    H129759   4.046   0.562   5.428  1.1373  0.6759 -1.1729
 2756TIP3    H229760   3.958   0.679   5.465 -0.4919 -0.6756 -0.6556
 2757TIP3   OH229761   2.565   4.412  16.598  0.4864 -0.1840 -0.0898
 2757TIP3    H129762   2.533   4.359  16.525 -0.0010  1.3163 -1.0137
 2757TIP3    H229763   2.651   4.376  16.618  0.5516 -0.7490 -1.2955
 2758TIP3   OH229764   0.483   5.395   2.689  1.0836  0.2045 -0.1035
 2758TIP3    H129765   0.453   5.387   2.780 -0.6827 -0.7011 -0.7274
 2758TIP3    H229766   0.538   5.474   2.689  0.3814  0.7410  1.5604
 2759TIP3   OH229767   0.339   6.567   1.321  0.2701  0.1629  0.1431
 2759TIP3    H129768   0.297   6.499   1.268  0.8336 -0.9191  1.0451
 2759TIP3    H229769   0.343   6.643   1.263  1.6195 -1.2140 -1.6938
 2760TIP3   OH229770   1.001   4.908  14.586  0.0274  0.0459  0.1953
 2760TIP3    H129771   0.914   4.888  14.621 -0.2124  1.4346  0.4587
 2760TIP3    H229772   0.986   4.922  14.492 -0.0542  0.3338  0.2488
 2761TIP3   OH229773   2.307   2.901   0.216 -0.5453  0.1710  0.3101
 2761TIP3    H129774   2.399   2.896   0.242 -0.4989 -0.9988 -0.0111
 2761TIP3    H229775   2.263   2.834   0.269 -0.9001 -0.4612 -0.7397
 2762TIP3   OH229776   2.015   6.143  15.852  0.1497 -0.0753 -0.7377
 2762TIP3    H129777   2.012   6.180  15.940  2.7298  0.5238 -0.8334
 2762TIP3    H229778   1.954   6.069  15.855 -1.6245  1.3502  0.7975
 2763TIP3   OH229779   1.063   4.608   5.110  0.0733  0.0842 -0.2792
 2763TIP3    H129780   1.033   4.605   5.201  0.4741  0.9277 -0.1147
 2763TIP3    H229781   1.062   4.701   5.087  2.1498  0.1314 -0.3829
 2764TIP3   OH229782   3.216   2.214   1.744  1.2319 -0.2884 -0.0952
 2764TIP3    H129783   3.198   2.170   1.827  1.6220 -0.3319 -0.0337
 2764TIP3    H229784   3.233   2.142   1.682  2.2642 -0.2118  0.0979
 2765TIP3   OH229785   1.316   5.188  11.936  0.8803 -0.4422  0.1395
 2765TIP3    H129786   1.238   5.169  11.988  1.4388 -1.4625  0.6153
 2765TIP3    H229787   1.316   5.122  11.867  0.6300  0.3591 -0.6619
 2766TIP3   OH229788   0.901   2.911  15.016 -0.1756 -0.2983  0.1767
 2766TIP3    H129789   0.936   2.911  14.927 -1.3568  1.3728 -0.3427
 2766TIP3    H229790   0.956   2.973  15.063  1.8110 -2.7274  1.2799
 2767TIP3   OH229791   6.711   5.452   4.447  0.7882  0.0182  0.2033
 2767TIP3    H129792   6.772   5.395   4.494 -0.1442 -1.5461 -0.3933
 2767TIP3    H229793   6.766   5.505   4.390  1.9083  1.5336  2.5209
 2768TIP3   OH229794   6.465   0.086   5.449  0.1617 -0.1927  0.2134
 2768TIP3    H129795   6.391   0.049   5.401 -1.1122 -1.2906  2.8324
 2768TIP3    H229796   6.440   0.177   5.466 -0.6222 -0.5587  1.0832
 2769TIP3   OH229797   1.582   5.374  15.216 -0.7829 -0.1338 -0.2781
 2769TIP3    H129798   1.665   5.422  15.224  0.1030 -1.8230  1.6094
 2769TIP3    H229799   1.523   5.435  15.172  0.9833  1.7439 -0.1876
 2770TIP3   OH229800   1.878   4.597   0.855 -0.0955  0.6657 -0.5373
 2770TIP3    H129801   1.812   4.533   0.828  1.8194 -0.8540 -1.9419
 2770TIP3    H229802   1.883   4.588   0.950 -0.4235 -0.7534 -0.6305
 2771TIP3   OH229803   4.814   3.220   1.461 -0.6556 -0.1612  0.2464
 2771TIP3    H129804   4.734   3.271   1.468 -1.5966 -1.5880  0.3373
 2771TIP3    H229805   4.820   3.196   1.369 -0.2143  0.1156  0.2006
 2772TIP3   OH229806   0.770   2.615   3.908  0.1617  0.0373  0.6163
 2772TIP3    H129807   0.836   2.674   3.870 -1.0400  1.6806  0.9581
 2772TIP3    H229808   0.786   2.531   3.865  1.6972  0.6901 -0.2006
 2773TIP3   OH229809   3.377   0.542  16.043 -0.3818 -0.3708  0.2691
 2773TIP3    H129810   3.356   0.481  15.973 -1.2114  0.6565 -0.4108
 2773TIP3    H229811   3.299   0.541  16.100 -1.2831  1.5068 -0.8417
 2774TIP3   OH229812   3.839   4.084   3.632  0.0115  0.0589  0.2513
 2774TIP3    H129813   3.841   4.143   3.707  0.8374  1.3540 -0.7511
 2774TIP3    H229814   3.863   4.139   3.557  0.9643 -1.5775 -0.7044
 2775TIP3   OH229815   4.187   4.555  12.931 -0.0526 -0.1638  0.2603
 2775TIP3    H129816   4.158   4.589  12.846  1.6902  1.8636  0.3869
 2775TIP3    H229817   4.111   4.507  12.964 -1.8454  1.5330 -1.1147
 2776TIP3   OH229818   5.078   3.627  17.079 -0.4475 -0.2182 -0.4297
 2776TIP3    H129819   5.161   3.637  17.126 -0.5908  0.1383 -0.2495
 2776TIP3    H229820   5.018   3.594  17.145 -0.0749 -1.9978 -0.9290
 2777TIP3   OH229821   0.593   0.700   0.364  0.1121  0.1331 -0.4744
 2777TIP3    H129822   0.505   0.668   0.342  0.0898  1.3511 -2.3832
 2777TIP3    H229823   0.652   0.631   0.333 -0.1292 -0.6909  0.8156
 2778TIP3   OH229824   6.155   0.013  14.664  0.4366  0.1410 -0.2988
 2778TIP3    H129825   6.165   0.069  14.740  1.4988  0.4442 -0.6454
 2778TIP3    H229826   6.242   0.010  14.624 -0.3343  0.9149 -2.1493
 2779TIP3   OH229827   6.627   3.122  14.219 -0.1175  0.1229  0.1329
 2779TIP3    H129828   6.571   3.073  14.159  1.1687 -1.1498 -0.0961
 2779TIP3    H229829   6.671   3.186  14.163  1.4281 -1.3659 -0.4388
 2780TIP3   OH229830   4.619   2.373   3.885 -0.1962  0.0958 -0.3764
 2780TIP3    H129831   4.540   2.424   3.901 -0.6089 -0.1080 -1.6202
 2780TIP3    H229832   4.635   2.325   3.966 -0.4019  1.3875  0.4492
 2781TIP3   OH229833   0.955   0.061   5.110 -0.0791  0.3730 -0.0607
 2781TIP3    H129834   0.968  -0.021   5.062  2.3894 -1.0846  2.7074
 2781TIP3    H229835   0.861   0.077   5.107 -0.9903 -3.6835  0.8360
 2782TIP3   OH229836   1.272   4.985   3.798  0.2598  0.2362  0.3591
 2782TIP3    H129837   1.294   4.953   3.711 -0.3627 -3.3141  1.3751
 2782TIP3    H229838   1.277   4.908   3.855 -0.3615  2.1905  3.3189
 2783TIP3   OH229839   6.625   4.326   4.663 -0.6056  0.0100 -0.3267
 2783TIP3    H129840   6.650   4.251   4.609 -1.9871 -1.6264  1.1887
 2783TIP3    H229841   6.631   4.294   4.753 -2.7676  1.1763  0.3052
 2784TIP3   OH229842   2.055   6.641   3.430  0.0970 -0.2563  0.0810
 2784TIP3    H129843   2.018   6.725   3.458  0.6942  0.4867 -1.2565
 2784TIP3    H229844   2.149   6.650   3.446 -0.0644 -1.6186  2.1814
 2785TIP3   OH229845   2.508   4.123   4.719 -0.5162 -0.4250 -0.3859
 2785TIP3    H129846   2.489   4.183   4.647 -2.8782 -1.7977 -0.9754
 2785TIP3    H229847   2.603   4.109   4.713 -0.3453  1.0318 -1.9510
 2786TIP3   OH229848   2.525   4.336   5.231  0.0404  0.1406  0.6472
 2786TIP3    H129849   2.481   4.280   5.295  1.3301 -1.0058  0.5935
 2786TIP3    H229850   2.593   4.381   5.282  0.8892 -0.5626  0.1534
 2787TIP3   OH229851   6.158   6.100  13.103  0.2764  0.0062 -0.0172
 2787TIP3    H129852   6.095   6.083  13.033  0.5038 -0.0950 -0.1954
 2787TIP3    H229853   6.242   6.070  13.069  0.4332  0.1864  0.2036
 2788TIP3   OH229854   2.348   3.370   3.103  0.2923  0.3252  0.3882
 2788TIP3    H129855   2.331   3.443   3.044  0.9783 -0.4619 -0.8231
 2788TIP3    H229856   2.358   3.294   3.046  0.9914 -0.4702  1.5133
 2789TIP3   OH229857   3.461   5.922   2.035 -0.2125 -0.0099 -0.4886
 2789TIP3    H129858   3.456   6.016   2.017 -1.0033  0.2444  0.9488
 2789TIP3    H229859   3.469   5.916   2.130  1.3612 -1.3664 -0.6591
 2790TIP3   OH229860   2.573   1.245   2.855  0.2817  0.0629  0.7485
 2790TIP3    H129861   2.540   1.159   2.881 -3.4068  0.7790 -0.8875
 2790TIP3    H229862   2.628   1.228   2.779 -0.7574 -0.8994  0.1668
 2791TIP3   OH229863   5.135   2.584  11.280 -0.3780  0.6232 -0.1402
 2791TIP3    H129864   5.071   2.610  11.214 -2.1511 -0.3507  1.1350
 2791TIP3    H229865   5.129   2.652  11.348 -0.1680  0.4420  0.0629
 2792TIP3   OH229866   0.323   4.930  16.222  0.0016 -0.7472 -0.5285
 2792TIP3    H129867   0.399   4.886  16.184  0.4694  0.2792 -0.8378
 2792TIP3    H229868   0.251   4.908  16.164 -0.2303 -2.7074  0.4149
 2793TIP3   OH229869   5.162   4.072   1.875 -0.1757 -0.2864 -0.0629
 2793TIP3    H129870   5.251   4.085   1.907 -0.0073 -0.6702 -0.3636
 2793TIP3    H229871   5.131   4.160   1.853 -0.3508  0.0115  1.2776
 2794TIP3   OH229872   6.154   5.621   2.632  0.0072 -0.6219  0.2038
 2794TIP3    H129873   6.169   5.583   2.719 -0.5406 -0.3838  0.4097
 2794TIP3    H229874   6.167   5.715   2.645 -0.3639 -0.5527  0.1012
 2795TIP3   OH229875   3.981   3.985   4.265  1.0164 -0.3479  0.4238
 2795TIP3    H129876   3.938   4.054   4.315  0.7616  0.6520 -1.1095
 2795TIP3    H229877   4.069   3.979   4.303  0.4731 -0.4424  1.7202
 2796TIP3   OH229878   3.770   4.684  13.532 -0.3598  0.2686  0.7033
 2796TIP3    H129879   3.767   4.630  13.452 -0.0765 -0.0617  0.9115
 2796TIP3    H229880   3.712   4.639  13.593  0.6509 -0.3792  1.2209
 2797TIP3   OH229881   5.146   3.742   4.843  0.0600 -0.1926 -0.3122
 2797TIP3    H129882   5.208   3.670   4.855  1.3143  0.9484  0.3766
 2797TIP3    H229883   5.120   3.766   4.932 -0.1662  0.3636 -0.5223
 2798TIP3   OH229884   6.284   1.120   0.865 -0.0582  0.3218  0.5600
 2798TIP3    H129885   6.366   1.162   0.890  0.9403 -0.9645 -0.4272
 2798TIP3    H229886   6.287   1.115   0.769  0.8976 -3.7274  0.5972
 2799TIP3   OH229887   5.957   0.803  16.827 -0.4519 -0.5574 -0.2934
 2799TIP3    H129888   6.035   0.857  16.841 -1.1582  0.6929 -0.9336
 2799TIP3    H229889   5.888   0.847  16.877 -1.7835  1.0204 -3.2005
 2800TIP3   OH229890   4.453   4.289  14.876  0.0380 -0.8458  0.2987
 2800TIP3    H129891   4.381   4.228  14.857  0.2019 -0.4051 -2.0080
 2800TIP3    H229892   4.525   4.260  14.820  0.1412  1.3654 -0.8481
 2801TIP3   OH229893   6.107   1.976  11.750  0.4923  0.0959  0.5804
 2801TIP3    H129894   6.039   2.041  11.728 -0.3303 -1.0960 -0.5314
 2801TIP3    H229895   6.086   1.901  11.695  2.4743 -0.4739  0.5543
 2802TIP3   OH229896   3.402   4.180   4.552  0.2806 -0.3654  0.0263
 2802TIP3    H129897   3.429   4.246   4.616  1.2166 -1.5835  0.9217
 2802TIP3    H229898   3.410   4.097   4.598  0.5274 -1.2464 -1.5390
 2803TIP3   OH229899   3.781   5.497  11.611 -0.1967  0.6616  0.3667
 2803TIP3    H129900   3.731   5.462  11.684 -1.5151  0.3754 -0.6396
 2803TIP3    H229901   3.797   5.589  11.634 -0.7781  0.6249  0.9189
 2804TIP3   OH229902   0.273   2.996   6.059 -0.2098 -0.1900 -0.9146
 2804TIP3    H129903   0.282   2.950   5.975  0.5809 -0.1634 -0.8483
 2804TIP3    H229904   0.307   2.935   6.124  0.6077  0.3763 -0.7958
 2805TIP3   OH229905   0.058   4.539  13.151  0.5245 -0.5852  0.0121
 2805TIP3    H129906  -0.025   4.555  13.196  0.1893  0.4005 -0.8939
 2805TIP3    H229907   0.083   4.450  13.176 -0.0241 -0.3468  1.5022
 2806TIP3   OH229908   3.841   6.601   2.632  0.1246  0.3138 -0.2824
 2806TIP3    H129909   3.763   6.558   2.597  0.0907  0.8122 -0.8350
 2806TIP3    H229910   3.902   6.529   2.650 -0.2026 -0.0225 -0.4960
 2807TIP3   OH229911   3.821   1.357  12.840  0.0995  0.1581  0.1348
 2807TIP3    H129912   3.892   1.322  12.895 -0.5555 -1.4754 -0.0127
 2807TIP3    H229913   3.792   1.282  12.789 -0.8694  1.1261 -0.7601
 2808TIP3   OH229914   6.729   6.774   6.152 -0.4325 -0.0645 -0.0144
 2808TIP3    H129915   6.670   6.699   6.153 -2.7074  1.6112  0.2143
 2808TIP3    H229916   6.789   6.760   6.225 -0.4417 -1.8916 -0.3252
 2809TIP3   OH229917   3.452   1.081  14.320 -0.0428 -0.0075 -0.4982
 2809TIP3    H129918   3.399   1.084  14.399  0.8307  0.2819  0.0822
 2809TIP3    H229919   3.541   1.066  14.350  0.3676  0.5210 -1.3942
 2810TIP3   OH229920   6.645   4.499  11.777  0.3680 -0.2297 -0.2722
 2810TIP3    H129921   6.706   4.554  11.727  1.4384  0.5289  1.7281
 2810TIP3    H229922   6.608   4.559  11.842 -1.1445 -1.1206 -0.2755
 2811TIP3   OH229923   0.914   2.312  16.115  0.1510 -0.0569 -0.1619
 2811TIP3    H129924   0.883   2.385  16.167  0.8386 -0.8444  1.4080
 2811TIP3    H229925   1.009   2.315  16.122  0.2083 -0.8124 -0.4638
 2812TIP3   OH229926   5.475   2.990   1.886  0.0833  0.2626  0.2385
 2812TIP3    H129927   5.553   2.942   1.913  1.7523  3.3943  1.4638
 2812TIP3    H229928   5.428   3.008   1.967 -0.6386  0.4920 -0.2155
 2813TIP3   OH229929   6.031   4.595  15.632 -0.1988  0.2538 -0.3802
 2813TIP3    H129930   6.005   4.639  15.713  0.2214  0.5643 -0.4071
 2813TIP3    H229931   6.019   4.662  15.564 -0.1373  0.1350 -0.5096
 2814TIP3   OH229932   5.048   1.232   5.661  0.1904  0.4179  0.1526
 2814TIP3    H129933   5.142   1.253   5.664 -0.0045  1.2177  1.6839
 2814TIP3    H229934   5.033   1.181   5.740 -0.2319 -1.8644 -1.3105
 2815TIP3   OH229935   5.695   0.926   5.745 -0.8942 -0.3520  0.8584
 2815TIP3    H129936   5.704   0.836   5.714 -1.0884 -0.0209 -0.2071
 2815TIP3    H229937   5.605   0.932   5.777 -1.0108 -0.4354  0.5537
 2816TIP3   OH229938   4.996   5.373  14.125  0.1102 -0.3127  0.6297
 2816TIP3    H129939   5.032   5.307  14.067 -0.0491  1.0417 -1.0795
 2816TIP3    H229940   4.918   5.406  14.080 -0.5615  0.1519  2.0376
 2817TIP3   OH229941   0.523   5.040  12.293  0.0506 -0.0691  0.1059
 2817TIP3    H129942   0.549   4.949  12.308 -0.4245 -0.1864  0.2616
 2817TIP3    H229943   0.575   5.068  12.218 -0.4883 -0.7775 -0.5463
 2818TIP3   OH229944   3.643   3.635  14.624  0.3676  0.1411 -0.1187
 2818TIP3    H129945   3.584   3.627  14.698  1.0698  0.9394  0.5423
 2818TIP3    H229946   3.596   3.595  14.551  0.4554 -2.5299  1.1642
 2819TIP3   OH229947   4.550   1.463  11.359  0.1299 -0.0435 -0.2755
 2819TIP3    H129948   4.520   1.541  11.404  2.0436  0.3753  0.3816
 2819TIP3    H229949   4.532   1.479  11.267  0.4634  1.1585 -0.1427
 2820TIP3   OH229950   0.959   5.321  11.379  0.4399 -0.0140  1.0706
 2820TIP3    H129951   0.981   5.384  11.448 -1.8194 -0.1855  2.0486
 2820TIP3    H229952   0.879   5.279  11.411 -1.1301  0.4176 -1.9814
 2821TIP3   OH229953   2.071   0.632  10.857 -0.0584  0.2332 -0.2005
 2821TIP3    H129954   2.021   0.699  10.902 -0.4683 -0.1480 -0.0789
 2821TIP3    H229955   2.121   0.588  10.926  1.8705  1.7794 -0.5294
 2822TIP3   OH229956   4.127   1.334   2.464  0.2734 -0.2426  0.4399
 2822TIP3    H129957   4.056   1.307   2.523 -0.6329  0.7321 -0.1703
 2822TIP3    H229958   4.191   1.263   2.470 -0.4496 -0.8402  1.4997
 2823TIP3   OH229959   3.439   0.462  16.879 -0.7407  0.2698  0.3648
 2823TIP3    H129960   3.399   0.396  16.935  0.1839  0.7341  1.6224
 2823TIP3    H229961   3.372   0.531  16.872 -1.6481 -0.6963 -0.8340
 2824TIP3   OH229962   3.337   2.781  11.417  0.0163  0.3669  0.1849
 2824TIP3    H129963   3.375   2.790  11.330 -1.5709  1.3290 -0.4567
 2824TIP3    H229964   3.272   2.851  11.422 -1.6705 -1.1691  1.1877
 2825TIP3   OH229965   1.345   1.501   6.319 -0.1681  0.0043  0.0303
 2825TIP3    H129966   1.347   1.518   6.225 -1.9718  1.5099  0.1978
 2825TIP3    H229967   1.425   1.541   6.352  0.7617 -1.0298 -0.9062
 2826TIP3   OH229968   4.769   0.578   3.327  0.8007  0.1039  0.5183
 2826TIP3    H129969   4.734   0.618   3.247  1.8012 -0.5077 -0.2445
 2826TIP3    H229970   4.709   0.606   3.396 -1.3907 -1.0978 -0.7758
 2827TIP3   OH229971   6.793   3.453  11.917  0.2703  0.0960 -0.3047
 2827TIP3    H129972   6.750   3.501  11.988 -0.0647 -0.8774  0.1629
 2827TIP3    H229973   6.795   3.362  11.947  0.3046 -0.2974 -1.4572
 2828TIP3   OH229974   6.628   1.961   1.504  0.1364 -0.2094  0.0431
 2828TIP3    H129975   6.556   1.980   1.445 -0.2139  0.2300  0.6062
 2828TIP3    H229976   6.699   2.019   1.475 -0.9290  2.1102  1.7634
 2829TIP3   OH229977   1.911   5.762  12.419  0.5482 -0.0350  0.3495
 2829TIP3    H129978   1.948   5.675  12.405  1.6889  0.6748 -1.4357
 2829TIP3    H229979   1.948   5.816  12.349 -2.0085  1.3310 -0.1045
 2830TIP3   OH229980   5.220   0.393  14.941 -0.1526 -0.7922  0.2797
 2830TIP3    H129981   5.146   0.432  14.987 -0.0655  1.6288 -1.4399
 2830TIP3    H229982   5.284   0.374  15.010 -1.3019 -0.4075  1.5002
 2831TIP3   OH229983   3.640   6.701   5.247  0.3915 -0.0989 -0.0250
 2831TIP3    H129984   3.672   6.611   5.253  3.2590  0.8918  2.3349
 2831TIP3    H229985   3.683   6.737   5.169  0.1758 -0.4560 -0.3091
 2832TIP3   OH229986   5.797   0.184  17.133  0.3868 -0.2201 -0.6489
 2832TIP3    H129987   5.724   0.123  17.139 -1.8496  2.2735 -0.4737
 2832TIP3    H229988   5.767   0.251  17.070  0.6662  3.0413  2.3422
 2833TIP3   OH229989   4.466   2.223  15.899 -0.6367  0.1333 -0.1301
 2833TIP3    H129990   4.466   2.139  15.945 -0.6886  0.0779 -0.2301
 2833TIP3    H229991   4.389   2.269  15.931  0.0183  0.6215  0.7853
 2834TIP3   OH229992   5.623   5.045  11.020  0.6036 -0.5076  0.2288
 2834TIP3    H129993   5.609   4.951  11.026 -2.5729 -0.1816 -0.5996
 2834TIP3    H229994   5.666   5.058  10.936  1.4147 -1.1923  0.5163
 2835TIP3   OH229995   5.117   0.879   0.568  0.5089  0.2523  0.2200
 2835TIP3    H129996   5.175   0.872   0.644  1.4127 -0.0750 -0.5002
 2835TIP3    H229997   5.164   0.935   0.507  0.9180 -1.5156 -1.1410
 2836TIP3   OH229998   4.685   6.517  13.976 -0.0934  0.4280  0.5724
 2836TIP3    H129999   4.727   6.602  13.991 -1.4261  0.9169  1.7368
 2836TIP3    H230000   4.694   6.471  14.059 -0.1235 -0.2337  0.2132
 2837TIP3   OH230001   4.987   4.545   0.132 -0.1579  0.6482 -0.2278
 2837TIP3    H130002   4.983   4.625   0.184 -1.8876  0.5194 -0.1044
 2837TIP3    H230003   4.964   4.573   0.043 -3.0429  0.0445  0.2119
 2838TIP3   OH230004   6.386   6.080   4.843 -0.4429  0.1115 -0.2267
 2838TIP3    H130005   6.323   6.021   4.885 -0.5875  0.7330  0.4505
 2838TIP3    H230006   6.447   6.022   4.799 -0.7395 -0.5428  0.2053
 2839TIP3   OH230007   4.869   6.155   4.581 -0.0344  0.4793 -0.3804
 2839TIP3    H130008   4.954   6.113   4.590 -0.1149  0.7239  2.1110
 2839TIP3    H230009   4.806   6.088   4.608 -0.6491  0.4235 -1.8404
 2840TIP3   OH230010   3.704   4.087   2.252  0.2772 -0.2904  0.1292
 2840TIP3    H130011   3.709   4.012   2.194  0.2823  0.4412 -0.8386
 2840TIP3    H230012   3.792   4.094   2.290  1.8801  1.9889 -3.3955
 2841TIP3   OH230013   4.623   5.876  15.355 -0.2526  0.5806  0.7909
 2841TIP3    H130014   4.680   5.937  15.403  0.3964  0.3004  0.3954
 2841TIP3    H230015   4.674   5.795  15.351  0.7898  1.2346 -2.4239
 2842TIP3   OH230016   5.155   0.990   2.001  0.1103 -0.0153 -0.5868
 2842TIP3    H130017   5.203   1.053   2.055 -2.1908 -0.0543  1.6876
 2842TIP3    H230018   5.073   0.974   2.049 -1.1334 -1.7536 -3.0515
 2843TIP3   OH230019   5.472   1.183   4.878 -0.2595 -0.0991 -0.7206
 2843TIP3    H130020   5.398   1.203   4.821  0.6331  0.4792 -1.6960
 2843TIP3    H230021   5.508   1.268   4.902  0.5930 -0.3887 -0.9382
 2844TIP3   OH230022   0.556   3.416  10.890 -0.4711 -0.0956  0.2646
 2844TIP3    H130023   0.499   3.397  10.964 -0.5543 -1.3062 -0.0930
 2844TIP3    H230024   0.644   3.398  10.922 -0.3352  1.0358  0.5785
 2845TIP3   OH230025   5.116   1.691   1.434 -0.5614 -0.5309  0.3617
 2845TIP3    H130026   5.160   1.739   1.504  0.6846  0.4245 -1.0088
 2845TIP3    H230027   5.164   1.715   1.355  0.2643 -4.1758 -0.4408
 2846TIP3   OH230028   4.434   6.512  15.625 -0.5277  0.2034  0.1215
 2846TIP3    H130029   4.367   6.560  15.576  1.2622  0.4182 -2.3159
 2846TIP3    H230030   4.409   6.420  15.616 -1.2767  0.3694  0.4896
 2847TIP3   OH230031   5.356   6.236   1.194 -0.4953 -0.0962  0.1113
 2847TIP3    H130032   5.348   6.143   1.173 -1.1396  0.2235 -1.1320
 2847TIP3    H230033   5.409   6.238   1.274 -0.1340 -1.5007 -0.0722
 2848TIP3   OH230034   2.750   2.386  11.025 -0.6307  0.3936  0.0107
 2848TIP3    H130035   2.747   2.379  10.930 -1.1101 -1.7522  0.1220
 2848TIP3    H230036   2.794   2.305  11.054 -1.7123  0.3377  1.6423
 2849TIP3   OH230037   4.476   0.936   0.470 -0.0757 -0.1500  0.2059
 2849TIP3    H130038   4.430   0.985   0.402  0.6321  0.3295  0.0574
 2849TIP3    H230039   4.408   0.885   0.513 -0.2701 -2.0700 -2.1962
 2850TIP3   OH230040   4.423   5.615   2.328  0.4470 -0.3144  0.0309
 2850TIP3    H130041   4.418   5.542   2.267  1.1064 -0.2299 -0.1257
 2850TIP3    H230042   4.467   5.685   2.280  0.0752  0.0946  0.2733
 2851TIP3   OH230043   5.451   0.642   5.121 -0.3600 -0.4109  0.1893
 2851TIP3    H130044   5.400   0.714   5.157 -0.5715 -0.7665  0.6100
 2851TIP3    H230045   5.426   0.566   5.173  0.1561 -0.7101  0.0114
 2852TIP3   OH230046   0.541   6.808  11.419 -0.2235  0.0786 -0.0718
 2852TIP3    H130047   0.576   6.720  11.410  0.7555  0.3777  0.5935
 2852TIP3    H230048   0.614   6.865  11.392 -0.5163  0.7021  0.4374
 2853TIP3   OH230049   0.376   1.581   2.235  0.1761 -0.1178 -0.2133
 2853TIP3    H130050   0.285   1.570   2.206  0.6047 -0.3005 -1.5513
 2853TIP3    H230051   0.421   1.503   2.201  0.5270 -0.8653  1.8306
 2854TIP3   OH230052   6.040   4.227   2.331  0.1200  0.3595 -0.2110
 2854TIP3    H130053   6.131   4.240   2.356  0.7493  0.2336 -2.2676
 2854TIP3    H230054   5.996   4.308   2.355  0.5743  0.1541  1.4587
 2855TIP3   OH230055   6.421   2.930   4.562  0.1881 -0.0476  0.1190
 2855TIP3    H130056   6.337   2.975   4.554  0.0734 -0.5253 -2.1790
 2855TIP3    H230057   6.402   2.851   4.611 -0.3376  0.6734  1.1019
 2856TIP3   OH230058   5.392   3.385   1.056 -0.2720  0.0205  0.0858
 2856TIP3    H130059   5.323   3.428   1.007 -0.3942 -0.2907 -0.0200
 2856TIP3    H230060   5.446   3.456   1.090 -0.2217  0.2418 -0.4460
 2857TIP3   OH230061   4.447   1.980  11.316  0.5365 -0.3435  0.1577
 2857TIP3    H130062   4.528   1.955  11.360  0.8284  2.2270  1.2785
 2857TIP3    H230063   4.416   2.056  11.365 -1.7680 -0.3511 -1.1680
 2858TIP3   OH230064   0.509   0.068   3.210  0.1363 -0.7722  0.2898
 2858TIP3    H130065   0.599   0.058   3.180  0.4911  0.4599  0.8765
 2858TIP3    H230066   0.516   0.127   3.285 -1.2941  0.2572 -0.3600
 2859TIP3   OH230067   2.317   2.359  14.431 -0.5116 -0.3487  0.5807
 2859TIP3    H130068   2.284   2.270  14.436  0.1864 -0.6135  0.6448
 2859TIP3    H230069   2.385   2.356  14.363  0.4355 -0.1883  1.4860
 2860TIP3   OH230070   2.042   0.659   1.360  0.6852  0.1242 -0.0107
 2860TIP3    H130071   1.989   0.716   1.305  0.0129 -1.3852 -1.0250
 2860TIP3    H230072   2.128   0.660   1.318  0.4333 -0.2749 -0.5565
 2861TIP3   OH230073   0.443   0.364   1.954  0.5824  0.1958  0.4123
 2861TIP3    H130074   0.516   0.310   1.924  0.6067 -0.0788  0.9678
 2861TIP3    H230075   0.480   0.419   2.023  0.1608 -0.2613  1.0089
 2862TIP3   OH230076   3.101   5.757   1.636 -0.1868 -0.1291  0.4479
 2862TIP3    H130077   3.160   5.832   1.647 -0.0454 -0.0192 -0.9148
 2862TIP3    H230078   3.099   5.716   1.722  0.8487  0.6298  0.8590
 2863TIP3   OH230079   2.737   6.466  14.446 -0.2288 -0.0371  0.1803
 2863TIP3    H130080   2.766   6.379  14.470 -2.3299 -0.9431 -0.3328
 2863TIP3    H230081   2.718   6.510  14.529 -1.1623 -0.8216  0.3909
 2864TIP3   OH230082   6.218   0.025   0.563 -0.3740  0.6879 -0.2303
 2864TIP3    H130083   6.234  -0.069   0.552  0.2414  0.9348 -1.7206
 2864TIP3    H230084   6.141   0.043   0.509  0.0568  1.1836 -0.6986
 2865TIP3   OH230085   2.286   5.219  13.845  0.4464  0.1660  0.1428
 2865TIP3    H130086   2.200   5.261  13.844  0.7360  0.8558 -1.9284
 2865TIP3    H230087   2.278   5.149  13.910 -1.2820  0.9608  0.8598
 2866TIP3   OH230088   6.038   3.637   3.751  0.1992  0.1598  0.6348
 2866TIP3    H130089   5.943   3.644   3.755  0.1245  1.0494 -1.5305
 2866TIP3    H230090   6.067   3.719   3.711  1.8374 -0.2890  0.8279
 2867TIP3   OH230091   5.395   3.243  16.676  0.5645 -0.2794  0.2395
 2867TIP3    H130092   5.304   3.222  16.696  0.9879 -0.4111  2.2607
 2867TIP3    H230093   5.410   3.327  16.719  1.8865 -1.1374  1.5415
 2868TIP3   OH230094   4.137   2.620  13.167 -0.5020 -0.5443  0.5276
 2868TIP3    H130095   4.216   2.571  13.143 -0.3336  0.0807 -0.2477
 2868TIP3    H230096   4.122   2.598  13.259  1.0216 -0.0774  0.9203
 2869TIP3   OH230097   2.448   6.654   5.823  0.2440  0.1459  0.0790
 2869TIP3    H130098   2.538   6.664   5.793 -1.0439  3.7814 -3.5779
 2869TIP3    H230099   2.445   6.700   5.907  1.7185  0.1082  0.1808
 2870TIP3   OH230100   5.940   4.233   2.693  0.1865 -0.2773  0.2079
 2870TIP3    H130101   6.027   4.196   2.681  0.5151  0.6546 -0.4315
 2870TIP3    H230102   5.919   4.219   2.785  1.3703  0.2467  0.5650
 2871TIP3   OH230103   0.239   5.778  12.445  0.0653 -0.0492  0.4232
 2871TIP3    H130104   0.256   5.863  12.406  2.1400 -0.5316  0.1610
 2871TIP3    H230105   0.196   5.798  12.528 -2.6068  1.0612 -1.1088
 2872TIP3   OH230106   2.048   3.769   1.267 -0.3032 -0.2601 -0.2945
 2872TIP3    H130107   2.034   3.839   1.331 -1.2179  0.3584 -1.1366
 2872TIP3    H230108   2.012   3.690   1.309  1.7721 -0.5281  1.1376
 2873TIP3   OH230109   3.558   2.025  11.661  0.2575  0.2459  0.2641
 2873TIP3    H130110   3.557   2.121  11.667  1.9658  0.4613 -1.5401
 2873TIP3    H230111   3.642   2.005  11.620 -0.8454 -1.9260 -1.1258
 2874TIP3   OH230112   0.504   2.058  15.058  0.7455  0.1915  0.5147
 2874TIP3    H130113   0.461   1.973  15.064  2.8406 -0.9068  0.9404
 2874TIP3    H230114   0.442   2.120  15.098 -0.8331 -1.0890  0.1456
 2875TIP3   OH230115   1.736   1.433  16.215  0.4445  0.2826 -0.2187
 2875TIP3    H130116   1.814   1.391  16.180  0.5414 -1.6244  2.0611
 2875TIP3    H230117   1.663   1.382  16.181  0.4441 -0.4385  0.8215
 2876TIP3   OH230118   1.235   0.226   2.469 -0.5991 -0.0575 -0.3901
 2876TIP3    H130119   1.254   0.212   2.377  0.8021  1.9787 -0.4725
 2876TIP3    H230120   1.241   0.139   2.508  1.8334 -0.5703 -1.7238
 2877TIP3   OH230121   4.802   5.952   3.224 -0.0850 -0.2219 -0.7141
 2877TIP3    H130122   4.850   5.951   3.141  1.4921  0.6604  0.1444
 2877TIP3    H230123   4.760   6.038   3.226  0.3658 -0.0079 -0.3407
 2878TIP3   OH230124   4.412   0.350   2.080  0.0683  0.4108  0.0719
 2878TIP3    H130125   4.402   0.392   1.995  0.8828  0.2804 -0.0969
 2878TIP3    H230126   4.338   0.290   2.087 -0.3664  0.9089 -0.2550
 2879TIP3   OH230127   0.907   1.994   4.952  0.1940 -0.2660  0.2528
 2879TIP3    H130128   0.998   1.967   4.946  0.3842  0.4795 -0.3943
 2879TIP3    H230129   0.898   2.064   4.886 -0.1909  1.4496  2.0318
 2880TIP3   OH230130   3.794   4.205   0.334  0.1085 -0.1402  0.2069
 2880TIP3    H130131   3.802   4.269   0.405 -0.9371 -2.6065  2.7084
 2880TIP3    H230132   3.703   4.178   0.336  0.5472 -1.7988 -0.6796
 2881TIP3   OH230133   6.219   2.133  16.537  0.2031  0.0194  0.5084
 2881TIP3    H130134   6.248   2.046  16.510 -0.4492 -0.2413  0.6347
 2881TIP3    H230135   6.295   2.170  16.583  0.5404 -0.4130  0.3079
 2882TIP3   OH230136   5.963   2.785  11.652 -0.3242 -0.1059 -0.6309
 2882TIP3    H130137   5.898   2.784  11.582 -0.4720  0.5707 -0.5059
 2882TIP3    H230138   5.960   2.874  11.687  0.9860  0.0694 -0.9140
 2883TIP3   OH230139   3.445   1.640   2.606 -0.0802  0.6329  0.0219
 2883TIP3    H130140   3.527   1.591   2.599  0.4273  1.4647 -0.0451
 2883TIP3    H230141   3.414   1.651   2.516 -1.6754 -1.9368  0.1745
 2884TIP3   OH230142   6.837   4.462  12.163  0.0364  0.4452  0.3427
 2884TIP3    H130143   6.868   4.526  12.100  0.6786  0.3352  0.5304
 2884TIP3    H230144   6.751   4.492  12.189 -0.0053  0.7822 -0.1844
 2885TIP3   OH230145   1.745   4.704  12.815 -0.2404 -0.4028  0.0832
 2885TIP3    H130146   1.670   4.725  12.760 -0.7424  1.5308  1.4033
 2885TIP3    H230147   1.715   4.723  12.904  2.2018  1.8339  0.5457
 2886TIP3   OH230148   5.476   4.232  12.425 -0.5739 -0.2029 -0.1199
 2886TIP3    H130149   5.561   4.277  12.422 -1.1109  0.9964  1.5451
 2886TIP3    H230150   5.413   4.301  12.443 -2.2158 -0.7615 -3.1594
 2887TIP3   OH230151   6.376   4.855   4.282  1.2003  0.5192  0.2580
 2887TIP3    H130152   6.416   4.816   4.360  1.1692  2.2134  1.1862
 2887TIP3    H230153   6.289   4.883   4.312  1.2142  1.2450 -0.3458
 2888TIP3   OH230154   3.979   6.474  15.693 -0.0483 -0.4910 -0.1577
 2888TIP3    H130155   3.999   6.559  15.732  1.7228 -0.6601 -0.6248
 2888TIP3    H230156   3.963   6.417  15.768 -0.4729  0.0599  0.1822
 2889TIP3   OH230157   4.846   1.443  15.736  0.3740  0.2641  0.5341
 2889TIP3    H130158   4.785   1.387  15.687  1.0057  0.7081 -0.8086
 2889TIP3    H230159   4.789   1.503  15.785 -0.2812 -0.4723  0.7009
 2890TIP3   OH230160   5.859   2.510   5.916  0.4995  0.5393 -0.3655
 2890TIP3    H130161   5.860   2.423   5.957 -1.0527  1.5141  1.9753
 2890TIP3    H230162   5.801   2.562   5.972 -1.8119  2.0838 -3.8722
 2891TIP3   OH230163   1.022   6.289  16.681  0.3425 -0.5613 -0.1288
 2891TIP3    H130164   1.085   6.248  16.740 -1.5704 -1.1739  1.6033
 2891TIP3    H230165   0.937   6.263  16.716 -0.9490 -1.7730 -3.6892
 2892TIP3   OH230166   0.429   5.890  14.150 -0.1470  0.1867 -0.3749
 2892TIP3    H130167   0.492   5.851  14.090  0.2377  0.5668 -0.2231
 2892TIP3    H230168   0.476   5.899  14.232 -0.7426 -0.5426  0.0630
 2893TIP3   OH230169   6.039   6.357   0.223  0.9855 -0.2413 -0.0185
 2893TIP3    H130170   5.972   6.422   0.202 -0.1354 -0.4901  2.4413
 2893TIP3    H230171   6.112   6.408   0.258 -0.3649 -0.2146  3.0916
 2894TIP3   OH230172   0.334   5.755   1.754  0.0953 -0.6983  0.1662
 2894TIP3    H130173   0.394   5.694   1.796 -0.5638 -0.9602  0.7484
 2894TIP3    H230174   0.267   5.699   1.714  0.4569 -0.4318 -0.8522
 2895TIP3   OH230175   0.038   6.655  12.187 -0.2564  0.2318 -0.6485
 2895TIP3    H130176   0.098   6.598  12.234 -1.5877 -0.0823  0.7584
 2895TIP3    H230177   0.074   6.743  12.197  0.7409 -0.1174 -1.1127
 2896TIP3   OH230178   5.981   0.646   5.176  0.1394  0.1156  0.1577
 2896TIP3    H130179   5.927   0.722   5.199 -1.0482 -0.0122 -2.0065
 2896TIP3    H230180   5.959   0.627   5.085  1.9670 -1.5570 -0.0029
 2897TIP3   OH230181   0.224   1.921  11.517  0.1457 -0.2396 -0.1051
 2897TIP3    H130182   0.204   1.959  11.431  1.3770 -0.8598 -0.6817
 2897TIP3    H230183   0.153   1.859  11.533 -2.0439  2.3109  0.9449
 2898TIP3   OH230184   1.273   3.951  11.117  0.3582 -0.1087  0.1268
 2898TIP3    H130185   1.237   3.873  11.160 -0.8776  0.3146 -0.0918
 2898TIP3    H230186   1.367   3.938  11.119  0.1649 -2.9141 -2.2761
 2899TIP3   OH230187   4.733   4.615  14.763 -0.7035 -0.3270 -0.3531
 2899TIP3    H130188   4.784   4.550  14.812 -1.6096 -1.3725 -0.7689
 2899TIP3    H230189   4.795   4.687  14.748 -0.0117 -0.5665  1.1182
 2900TIP3   OH230190   0.276   6.274   4.945  0.5427 -0.6106  0.3420
 2900TIP3    H130191   0.355   6.236   4.907  1.6247  0.2538  1.6444
 2900TIP3    H230192   0.265   6.228   5.028  1.2322  1.0616  1.4118
 2901TIP3   OH230193   4.991   3.974  13.207  0.1906 -0.0973 -0.0438
 2901TIP3    H130194   4.995   4.057  13.255  1.1265 -0.7126  0.9893
 2901TIP3    H230195   4.904   3.973  13.168  0.1722  1.3815 -0.0928
 2902TIP3   OH230196   6.076   1.145   0.245  0.5307  0.2549 -0.1769
 2902TIP3    H130197   6.100   1.069   0.298 -1.5329 -0.0614  0.4136
 2902TIP3    H230198   6.071   1.111   0.156 -1.0354 -0.5458  0.1628
 2903TIP3   OH230199   1.219   2.255   4.563  0.0167 -0.4909 -0.0183
 2903TIP3    H130200   1.227   2.310   4.485  2.4329  0.3556  0.7348
 2903TIP3    H230201   1.132   2.276   4.599 -0.0663  1.0505 -1.0526
 2904TIP3   OH230202   5.494   0.922   4.752 -0.2209  0.1496  0.3931
 2904TIP3    H130203   5.545   0.877   4.819 -0.1644  0.4816  0.5734
 2904TIP3    H230204   5.490   1.013   4.781 -4.4297 -0.4957  2.6460
 2905TIP3   OH230205   3.532   5.047   6.336 -0.8027 -0.3553 -0.1802
 2905TIP3    H130206   3.487   5.105   6.274 -0.6301  1.0944  1.0068
 2905TIP3    H230207   3.622   5.045   6.304 -1.0726 -0.9811 -0.9319
 2906TIP3   OH230208   3.157   2.754   6.487 -0.4515 -0.1575 -0.4705
 2906TIP3    H130209   3.155   2.829   6.546 -0.9920 -1.1661  0.8227
 2906TIP3    H230210   3.159   2.678   6.544 -0.2775 -1.1554 -1.7578
 2907TIP3   OH230211   4.936   6.687  14.108 -0.8836 -0.1120 -0.1600
 2907TIP3    H130212   4.898   6.658  14.191 -0.8870  0.3212 -0.0092
 2907TIP3    H230213   4.893   6.770  14.089  0.0998  0.4648  0.0898
 2908TIP3   OH230214   3.587   0.346  11.287  0.1169  0.2850 -0.1107
 2908TIP3    H130215   3.590   0.287  11.362  1.7438 -0.2982 -0.5997
 2908TIP3    H230216   3.500   0.332  11.249 -0.2051 -0.4226  0.8574
 2909TIP3   OH230217   3.965   3.025  14.155  0.0828 -0.2571 -0.3896
 2909TIP3    H130218   3.879   3.030  14.113 -0.0246  0.1545 -0.1260
 2909TIP3    H230219   4.017   2.969  14.097 -0.0692  0.2848 -1.0663
 2910TIP3   OH230220   0.683   4.277  13.658  0.5682  0.2849 -0.4407
 2910TIP3    H130221   0.608   4.217  13.665  0.0556  1.0590  1.1897
 2910TIP3    H230222   0.668   4.324  13.576 -0.5691  0.1796 -0.3183
 2911TIP3   OH230223   0.102   6.778   2.468 -0.4393 -0.4260  0.5480
 2911TIP3    H130224   0.157   6.812   2.397 -1.0437  1.0309  0.7463
 2911TIP3    H230225   0.158   6.715   2.514  0.3253 -0.5698 -0.5388
 2912TIP3   OH230226   5.252   2.101  15.807 -0.3196  0.3087  0.0790
 2912TIP3    H130227   5.320   2.168  15.814 -0.6740  0.6493  0.2894
 2912TIP3    H230228   5.223   2.086  15.897  0.8595 -1.2954  0.2331
 2913TIP3   OH230229   3.280   6.677   0.944  0.1783 -0.1892 -0.0321
 2913TIP3    H130230   3.226   6.750   0.914  2.5878  1.4043 -0.7353
 2913TIP3    H230231   3.251   6.661   1.034 -0.0348  2.0500  0.3592
 2914TIP3   OH230232   3.499   0.783  13.084 -0.1836  0.3925 -0.2537
 2914TIP3    H130233   3.507   0.698  13.126  2.3172  1.2574  1.2650
 2914TIP3    H230234   3.567   0.784  13.017  0.2139  1.3843  0.1423
 2915TIP3   OH230235   3.202   2.268   2.205 -0.3286  0.1683  0.2731
 2915TIP3    H130236   3.111   2.275   2.177 -0.6525 -0.6752  1.0787
 2915TIP3    H230237   3.210   2.180   2.242  0.6183  0.4916  0.8926
 2916TIP3   OH230238   3.953   5.846  13.157 -0.1483  0.2959 -0.0167
 2916TIP3    H130239   3.879   5.794  13.187 -0.1693  1.2337  1.6737
 2916TIP3    H230240   4.029   5.808  13.202 -0.2946  2.2527  2.0382
 2917TIP3   OH230241   5.448   5.813  14.762  0.3429 -0.2162 -0.2525
 2917TIP3    H130242   5.471   5.844  14.674 -1.0376 -0.7392 -0.8341
 2917TIP3    H230243   5.530   5.783  14.800  0.9680  0.0571 -1.3511
 2918TIP3   OH230244   1.000   2.668   1.051  0.3474  0.1131 -0.4358
 2918TIP3    H130245   1.041   2.644   0.968  1.0457 -0.7352  0.1334
 2918TIP3    H230246   1.011   2.591   1.107 -1.1701  0.2229  0.0730
 2919TIP3   OH230247   4.100   5.092  11.806 -0.2131 -0.0360  0.9618
 2919TIP3    H130248   4.044   5.169  11.798  2.3360  2.0295  1.5544
 2919TIP3    H230249   4.170   5.119  11.865  0.7044 -2.9010  1.3401
 2920TIP3   OH230250   1.887   5.822  16.477  0.1171 -0.0304  0.1011
 2920TIP3    H130251   1.853   5.784  16.558 -1.5660  0.8401 -0.1481
 2920TIP3    H230252   1.924   5.906  16.503 -1.1227  0.6013 -0.1126
 2921TIP3   OH230253   3.110   1.162  15.841 -0.0484 -0.6019 -0.0586
 2921TIP3    H130254   3.044   1.150  15.772  0.5036 -1.9691 -0.3820
 2921TIP3    H230255   3.149   1.247  15.823 -3.3925  1.5247  1.6075
 2922TIP3   OH230256   5.193   1.608   0.774  0.3884 -0.3118 -0.2979
 2922TIP3    H130257   5.189   1.616   0.678 -1.5083 -0.2494 -0.2441
 2922TIP3    H230258   5.111   1.564   0.798  0.6679  0.0002  1.3362
 2923TIP3   OH230259   3.822   1.015   3.058 -0.0196  0.0429  0.1376
 2923TIP3    H130260   3.735   1.056   3.060  0.6196  1.5514 -1.2355
 2923TIP3    H230261   3.819   0.954   2.985  0.2072  0.4601 -0.2283
 2924TIP3   OH230262   5.823   4.035  14.914  0.0514  0.0417 -0.0105
 2924TIP3    H130263   5.838   3.979  14.838 -0.9624 -1.5126  0.8890
 2924TIP3    H230264   5.879   3.999  14.982 -2.2643 -1.4137  1.2654
 2925TIP3   OH230265   5.591   2.343   4.821 -0.4150  0.2560 -0.6989
 2925TIP3    H130266   5.595   2.253   4.854 -1.0658  1.4397  3.0302
 2925TIP3    H230267   5.681   2.361   4.791  0.5535 -0.6857  1.4225
 2926TIP3   OH230268   5.223   3.297   0.657 -0.1369  0.0255  0.5718
 2926TIP3    H130269   5.319   3.301   0.664 -0.2101  2.3084  0.9218
 2926TIP3    H230270   5.191   3.328   0.741 -1.2327 -1.2573  0.6653
 2927TIP3   OH230271   1.878   6.708   4.228 -0.2877 -0.4003  0.2409
 2927TIP3    H130272   1.917   6.728   4.313  0.0464  0.8294 -0.1825
 2927TIP3    H230273   1.835   6.624   4.240 -1.2813  0.3083  1.9817
 2928TIP3   OH230274   1.556   0.193   4.399  0.1197 -0.4838  0.5944
 2928TIP3    H130275   1.623   0.182   4.467 -0.0210 -1.2104  0.6157
 2928TIP3    H230276   1.473   0.179   4.444  0.0249 -0.9308  0.2841
 2929TIP3   OH230277   2.447   3.875   3.032 -0.3566  0.4463  0.2508
 2929TIP3    H130278   2.402   3.945   3.078 -0.0764  0.2472  0.8426
 2929TIP3    H230279   2.390   3.798   3.043 -1.6350  0.9757 -2.0280
 2930TIP3   OH230280   4.359   6.624   6.230  0.1474 -0.2731  0.1869
 2930TIP3    H130281   4.450   6.596   6.233  0.3406  0.0145 -1.7388
 2930TIP3    H230282   4.347   6.658   6.141 -2.3138 -1.9218 -0.2179
 2931TIP3   OH230283   0.537   2.832   4.593 -0.6507 -0.0657 -0.0632
 2931TIP3    H130284   0.587   2.805   4.516  1.1038 -0.2902  1.0968
 2931TIP3    H230285   0.586   2.796   4.667 -1.5194  1.3012  1.2393
 2932TIP3   OH230286   2.342   2.400  15.358  0.3721  0.1534  0.2793
 2932TIP3    H130287   2.420   2.389  15.303  1.4993 -1.1259  2.0118
 2932TIP3    H230288   2.279   2.337  15.325  0.0353  1.1694 -1.1167
 2933TIP3   OH230289   2.237   3.034   3.852  0.5993  0.4698 -0.0490
 2933TIP3    H130290   2.255   3.127   3.833  0.2206  0.3828 -0.8900
 2933TIP3    H230291   2.304   2.987   3.803 -0.8709  0.2057 -1.9427
 2934TIP3   OH230292   1.860   2.333  16.644 -0.1874 -0.2701 -0.0883
 2934TIP3    H130293   1.855   2.348  16.550 -1.7354 -0.5442 -0.0740
 2934TIP3    H230294   1.908   2.408  16.678 -1.0577  0.6796 -0.9111
 2935TIP3   OH230295   5.861   3.723   0.879 -0.2660  0.6255 -0.5148
 2935TIP3    H130296   5.944   3.737   0.834  0.3991 -1.4588 -0.0617
 2935TIP3    H230297   5.815   3.660   0.824  0.8849 -2.5828  1.9091
 2936TIP3   OH230298   4.554   4.277   0.013  0.2483  0.3111 -0.5413
 2936TIP3    H130299   4.508   4.361   0.009  0.6571  0.6567  1.3856
 2936TIP3    H230300   4.633   4.294   0.062 -0.1487 -1.4009  0.7991
 2937TIP3   OH230301   2.959   1.244   5.594  0.7068 -0.3016  0.2113
 2937TIP3    H130302   2.975   1.151   5.607  1.5609 -0.1500  0.2814
 2937TIP3    H230303   3.031   1.288   5.639  1.3964  0.3318 -1.3955
 2938TIP3   OH230304   1.279   5.579  13.925 -0.7111 -0.1892  0.4518
 2938TIP3    H130305   1.294   5.488  13.951 -2.0372 -0.5238  0.1264
 2938TIP3    H230306   1.360   5.606  13.883 -0.0433 -0.9891  1.1898
 2939TIP3   OH230307   4.570   2.516   2.745  0.0187 -0.6536 -0.1829
 2939TIP3    H130308   4.538   2.605   2.729 -0.6384 -1.0259 -0.9646
 2939TIP3    H230309   4.579   2.511   2.841 -1.5654 -0.2919  0.0086
 2940TIP3   OH230310   5.041   0.140   0.346 -0.1203  0.7688 -0.0123
 2940TIP3    H130311   5.060   0.148   0.439  0.6479  0.7753 -0.1677
 2940TIP3    H230312   5.115   0.182   0.302 -0.9877  1.7210 -0.6100
 2941TIP3   OH230313   4.968   6.641   6.472  0.2640 -0.1000  0.2644
 2941TIP3    H130314   4.982   6.618   6.564 -0.5701 -0.5688  0.2905
 2941TIP3    H230315   4.928   6.728   6.474  0.8151  0.1525  0.3139
 2942TIP3   OH230316   2.637   2.761   3.942 -0.8602  0.2889  0.1764
 2942TIP3    H130317   2.575   2.745   3.871 -0.0283 -1.2495 -0.2534
 2942TIP3    H230318   2.605   2.710   4.015 -0.2789 -0.2776  0.0448
 2943TIP3   OH230319   0.241   3.490  15.574 -0.6402  0.5438  0.2582
 2943TIP3    H130320   0.255   3.549  15.500 -0.2702  0.2355  0.0779
 2943TIP3    H230321   0.250   3.402  15.536  0.2237  0.3898  0.7930
 2944TIP3   OH230322   4.112   5.196  12.344  0.1821  0.0870 -0.0057
 2944TIP3    H130323   4.091   5.147  12.264 -1.9642  0.0887  0.4922
 2944TIP3    H230324   4.083   5.286  12.325 -0.2606  0.1044  0.7361
 2945TIP3   OH230325   4.252   0.091  12.013  0.1429 -0.1261  0.1235
 2945TIP3    H130326   4.335   0.097  12.061 -0.4385 -2.0189  1.4758
 2945TIP3    H230327   4.203   0.022  12.058 -2.1082  0.8093 -0.7566
 2946TIP3   OH230328   4.363   5.063   1.882  0.5511  0.3024 -0.2895
 2946TIP3    H130329   4.371   5.128   1.812  0.1173  0.3275 -0.3192
 2946TIP3    H230330   4.303   4.997   1.847  1.7578 -0.6543 -0.6523
 2947TIP3   OH230331   2.426   1.831   2.057  0.1909  0.8651 -0.0996
 2947TIP3    H130332   2.496   1.822   1.992 -0.1122 -2.9278 -0.1275
 2947TIP3    H230333   2.358   1.771   2.026 -1.1826  1.0894  2.2725
 2948TIP3   OH230334   6.074   5.304  12.233  0.3458 -0.3878  0.0229
 2948TIP3    H130335   6.011   5.250  12.280  1.5728 -0.7349  1.3492
 2948TIP3    H230336   6.031   5.324  12.150 -1.0381 -1.5373  0.4156
 2949TIP3   OH230337   5.593   0.059  11.915 -0.1663 -0.4344  0.5137
 2949TIP3    H130338   5.563  -0.021  11.958 -1.7491  0.8328  1.9152
 2949TIP3    H230339   5.686   0.065  11.937 -0.2729 -1.3432  1.2844
 2950TIP3   OH230340   0.192   3.328   4.572  0.0222 -0.2761 -0.0941
 2950TIP3    H130341   0.204   3.389   4.499  2.5079  1.5588  1.6917
 2950TIP3    H230342   0.240   3.249   4.545  1.4235  0.5994 -0.2889
 2951TIP3   OH230343   3.932   2.128  12.531  0.1198 -0.0413  0.1345
 2951TIP3    H130344   3.943   2.141  12.625 -0.0205  0.5301  0.0765
 2951TIP3    H230345   3.855   2.071  12.524 -0.1866  0.3368  0.3552
 2952TIP3   OH230346   0.214   1.973   4.735  0.2460 -0.2610 -0.1332
 2952TIP3    H130347   0.195   2.062   4.767  0.6549 -0.2871  0.1932
 2952TIP3    H230348   0.164   1.916   4.793 -1.1011 -0.1920 -1.1847
 2953TIP3   OH230349   0.537   1.819   4.917 -0.4217 -0.0412  0.0669
 2953TIP3    H130350   0.550   1.759   4.844  0.6198 -0.2302  0.3907
 2953TIP3    H230351   0.539   1.763   4.995 -1.3879  0.1759  0.2722
 2954TIP3   OH230352   0.058   2.521   5.840 -1.0455 -0.1933 -0.3052
 2954TIP3    H130353  -0.007   2.451   5.829  0.0416 -0.9466 -2.3890
 2954TIP3    H230354   0.141   2.481   5.816 -0.1561  1.4276 -0.0611
 2955TIP3   OH230355   5.872   2.559   0.400  0.1432 -0.3282  0.1280
 2955TIP3    H130356   5.808   2.489   0.389  1.3312 -1.2444 -1.2532
 2955TIP3    H230357   5.957   2.516   0.389  0.8983  1.3599 -1.0516
 2956TIP3   OH230358   5.956   1.637   1.680 -0.2225  0.6348  0.3138
 2956TIP3    H130359   6.033   1.680   1.716 -0.5013  0.6949  0.8591
 2956TIP3    H230360   5.985   1.548   1.661 -0.0068  0.6717  0.4681
 2957TIP3   OH230361   0.113   6.354  16.170 -0.5540  0.6413 -0.0771
 2957TIP3    H130362   0.029   6.309  16.180  0.8258 -2.0421  0.4532
 2957TIP3    H230363   0.167   6.319  16.240  1.4764  1.1177 -1.3149
 2958TIP3   OH230364   3.765   5.857   1.228 -0.0604  0.3646 -0.1756
 2958TIP3    H130365   3.710   5.933   1.210 -0.6697  0.0135  0.1703
 2958TIP3    H230366   3.798   5.872   1.317 -0.7378 -0.0926  0.1668
 2959TIP3   OH230367   0.775   3.077   4.784 -0.2330  0.1671 -0.2700
 2959TIP3    H130368   0.766   3.063   4.878 -1.4287 -2.4197 -0.6835
 2959TIP3    H230369   0.685   3.093   4.754  0.0147  0.0362 -1.0882
 2960TIP3   OH230370   3.745   2.323   1.737  0.2393 -0.2556 -0.2918
 2960TIP3    H130371   3.722   2.371   1.817  0.9066 -0.3424 -0.0388
 2960TIP3    H230372   3.673   2.261   1.725 -0.1064  0.0872 -0.0281
 2961TIP3   OH230373   3.144   3.429   0.577  0.2482 -0.2440  0.0342
 2961TIP3    H130374   3.183   3.394   0.656 -0.1989  0.3457  0.5231
 2961TIP3    H230375   3.180   3.375   0.506  1.4172 -0.1282  0.5272
 2962TIP3   OH230376   4.204   6.716   0.121  0.2135  0.0106 -0.1960
 2962TIP3    H130377   4.201   6.646   0.186  0.2839 -1.2827 -1.5288
 2962TIP3    H230378   4.154   6.787   0.160 -1.3995 -1.4139  0.4946
 2963TIP3   OH230379   3.177   5.114   3.136 -0.3732  0.4489  0.2013
 2963TIP3    H130380   3.199   5.112   3.042  1.8329  1.1343  0.6332
 2963TIP3    H230381   3.171   5.022   3.161  1.9468  0.1562 -0.0654
 2964TIP3   OH230382   0.429   5.568   2.154 -0.2010  0.1155 -0.3949
 2964TIP3    H130383   0.413   5.661   2.173  2.0756  0.4423  0.2424
 2964TIP3    H230384   0.443   5.528   2.240 -1.1915 -0.8392 -0.6644
 2965TIP3   OH230385   5.435   6.701   5.024 -0.2422  0.2645  0.7562
 2965TIP3    H130386   5.508   6.654   5.065  0.5839  1.9395  1.2883
 2965TIP3    H230387   5.430   6.665   4.935  0.6166 -0.5317  1.0205
 2966TIP3   OH230388   4.231   1.873   1.357  0.0399 -0.4266 -0.6861
 2966TIP3    H130389   4.192   1.881   1.269  0.7880 -1.3972 -1.1354
 2966TIP3    H230390   4.222   1.960   1.395  0.7152  0.3444 -2.1680
 2967TIP3   OH230391   3.828   3.014   4.982  0.0658  0.2196  0.1436
 2967TIP3    H130392   3.868   2.938   5.024  0.4036  0.5068  0.3586
 2967TIP3    H230393   3.864   3.014   4.893 -1.2110 -0.8025 -0.4022
 2968TIP3   OH230394   3.705   6.717  11.203 -0.4216  0.5191  0.6084
 2968TIP3    H130395   3.760   6.743  11.129 -0.4299  1.8361  1.0401
 2968TIP3    H230396   3.630   6.775  11.199 -1.5305 -0.8851  0.3636
 2969TIP3   OH230397   6.188   5.701   3.568  0.0121 -0.3048 -0.6275
 2969TIP3    H130398   6.270   5.713   3.614  0.5472  1.0516 -1.8609
 2969TIP3    H230399   6.213   5.662   3.484 -0.6250 -0.0316 -0.9497
 2970TIP3   OH230400   3.668   1.393   0.852  0.5375  0.1646 -0.9726
 2970TIP3    H130401   3.694   1.483   0.871  1.7244 -0.1632 -0.9699
 2970TIP3    H230402   3.583   1.384   0.895  0.3858  1.2840 -0.9983
 2971TIP3   OH230403   3.851   3.118  12.318 -0.4931 -0.0990  0.0288
 2971TIP3    H130404   3.795   3.072  12.381  0.3606 -1.3228 -0.0732
 2971TIP3    H230405   3.790   3.167  12.263 -1.3033  0.4547  1.3538
 2972TIP3   OH230406   4.174   0.091  15.663 -0.1464  0.2796 -0.1762
 2972TIP3    H130407   4.132   0.106  15.578  1.0536  0.4600 -0.7604
 2972TIP3    H230408   4.163   0.173  15.710  0.2558  0.6061 -0.6417
 2973TIP3   OH230409   0.841   3.881   1.862 -0.7992 -0.5825  0.4406
 2973TIP3    H130410   0.920   3.900   1.913 -2.5988  1.6914  2.6688
 2973TIP3    H230411   0.838   3.950   1.796 -1.1228 -0.4012  0.6425
 2974TIP3   OH230412   6.709   4.530  14.516  0.2076 -0.4033 -0.0054
 2974TIP3    H130413   6.744   4.599  14.572  1.6634 -0.8206 -0.3452
 2974TIP3    H230414   6.650   4.480  14.572 -1.2253  1.3412  0.1237
 2975TIP3   OH230415   0.824   6.443   5.791  0.2873 -0.0543 -0.3018
 2975TIP3    H130416   0.825   6.381   5.718  0.3000  2.3126 -2.4461
 2975TIP3    H230417   0.846   6.390   5.868 -1.7187 -3.0871 -1.6087
 2976TIP3   OH230418   2.224   3.512  15.754 -0.3496 -0.1180  0.7247
 2976TIP3    H130419   2.153   3.556  15.707 -0.9429 -0.3709  1.3778
 2976TIP3    H230420   2.299   3.572  15.744 -0.7705  0.3685  0.4144
 2977TIP3   OH230421   3.856   5.997  15.936 -0.0351  0.0599  0.4429
 2977TIP3    H130422   3.763   5.988  15.959 -0.3885  1.5160 -0.2506
 2977TIP3    H230423   3.865   5.946  15.855 -0.8630  1.8526 -0.8520
 2978TIP3   OH230424   4.020   6.556   0.566 -0.5025 -0.8618  0.1081
 2978TIP3    H130425   3.925   6.551   0.576 -0.3193 -1.3080  1.9687
 2978TIP3    H230426   4.052   6.572   0.654  1.1400 -0.2348 -0.5683
 2979TIP3   OH230427   1.599   4.694   1.994  0.3897  0.0473 -0.0480
 2979TIP3    H130428   1.677   4.640   2.000 -0.3132 -1.2233 -1.5148
 2979TIP3    H230429   1.627   4.772   1.946  0.8407 -0.2402 -0.2533
 2980TIP3   OH230430   1.771   0.581   0.871 -1.1379  0.4340 -0.0417
 2980TIP3    H130431   1.861   0.587   0.842 -1.5078  0.7962 -1.1554
 2980TIP3    H230432   1.763   0.492   0.906 -0.5792  0.1123 -0.7201
 2981TIP3   OH230433   3.407   4.078   5.815  0.1367 -0.2297  0.0329
 2981TIP3    H130434   3.378   4.147   5.875  1.3838 -1.0830  1.7295
 2981TIP3    H230435   3.354   4.002   5.838 -0.6173 -0.0915 -1.2110
 2982TIP3   OH230436   2.123   6.439   1.840 -0.2982  0.2901 -0.2612
 2982TIP3    H130437   2.103   6.346   1.829  0.8934 -0.2022  1.2512
 2982TIP3    H230438   2.039   6.484   1.830 -1.3522 -1.1989  1.3833
 2983TIP3   OH230439   3.169   1.972   2.242 -0.3573  0.0802 -0.0935
 2983TIP3    H130440   3.207   1.970   2.329 -0.9308 -1.6877  0.1557
 2983TIP3    H230441   3.095   1.911   2.246 -1.2953  1.0527 -1.4255
 2984TIP3   OH230442   2.632   1.059   0.468 -0.7812  0.6331 -0.5477
 2984TIP3    H130443   2.697   1.070   0.398 -0.1887 -3.3765 -0.8955
 2984TIP3    H230444   2.554   1.104   0.436  0.3488  1.3393 -2.4662
 2985TIP3   OH230445   4.010   3.907  12.413 -0.1242 -0.2089 -0.0221
 2985TIP3    H130446   4.005   3.907  12.508 -1.6156  2.5324  0.0113
 2985TIP3    H230447   4.076   3.973  12.392 -0.9126  0.3533 -0.8491
 2986TIP3   OH230448   4.363   2.446  11.468  0.5039  0.7768 -0.5849
 2986TIP3    H130449   4.335   2.434  11.558  1.0279  0.8526 -0.4059
 2986TIP3    H230450   4.290   2.490  11.425 -0.5976 -1.1185 -0.7415
 2987TIP3   OH230451   1.302   3.905  13.934 -0.1864  0.1476  0.2648
 2987TIP3    H130452   1.212   3.907  13.967 -0.0802 -0.5402  0.6147
 2987TIP3    H230453   1.345   3.979  13.976 -0.7150  0.7863 -0.2954
 2988TIP3   OH230454   3.442   6.161  16.129 -0.2706 -0.2318 -0.4452
 2988TIP3    H130455   3.501   6.086  16.122 -0.3113 -0.3838  0.6517
 2988TIP3    H230456   3.449   6.205  16.045  0.2952 -1.0716 -0.8491
 2989TIP3   OH230457   2.241   5.611   2.832  0.1889  0.0361  0.1992
 2989TIP3    H130458   2.308   5.632   2.767  0.2934  0.3027  0.3903
 2989TIP3    H230459   2.242   5.516   2.839  1.3583  0.0915  1.0508
 2990TIP3   OH230460   4.536   2.102   3.298 -0.1152  0.2795 -0.1799
 2990TIP3    H130461   4.567   2.189   3.274 -0.2281  0.1969 -0.6253
 2990TIP3    H230462   4.491   2.069   3.220  0.9552 -0.6578 -0.4258
 2991TIP3   OH230463   0.362   0.866  13.777 -0.7141 -0.1765  0.1417
 2991TIP3    H130464   0.268   0.873  13.793 -0.8460  0.5443 -0.8522
 2991TIP3    H230465   0.385   0.946  13.729  0.6928  0.3523  1.6066
 2992TIP3   OH230466   4.672   0.710  12.139 -0.4202 -0.0142  0.6226
 2992TIP3    H130467   4.684   0.729  12.046 -2.5957 -2.7489 -0.3473
 2992TIP3    H230468   4.593   0.759  12.163  1.0198  1.9959  1.5800
 2993TIP3   OH230469   1.349   1.032  11.311  0.5699  0.0427 -0.0645
 2993TIP3    H130470   1.340   0.937  11.303  1.1956 -0.0650  0.4501
 2993TIP3    H230471   1.344   1.064  11.221  0.2300 -0.4612 -0.2325
 2994TIP3   OH230472   5.421   4.337   1.702 -0.0745 -0.8551 -0.2709
 2994TIP3    H130473   5.500   4.375   1.663  0.3197 -1.2281  0.1602
 2994TIP3    H230474   5.386   4.281   1.633  0.5348 -1.3922 -0.1526
 2995TIP3   OH230475   1.621   1.050   1.098 -0.1039  0.4088 -0.6938
 2995TIP3    H130476   1.576   0.993   1.160  0.4899  0.1410 -0.5013
 2995TIP3    H230477   1.618   1.003   1.015  0.9807 -0.2364 -0.3884
 2996TIP3   OH230478   0.439   5.464   1.444 -0.3650  0.4833  0.3140
 2996TIP3    H130479   0.504   5.460   1.374  0.9937 -1.4632  1.5763
 2996TIP3    H230480   0.453   5.550   1.484  1.4046  0.1699  0.4650
 2997TIP3   OH230481   3.888   0.154   1.294  0.1306  0.3085 -0.0496
 2997TIP3    H130482   3.831   0.218   1.337  0.0219  1.2129 -1.4913
 2997TIP3    H230483   3.861   0.155   1.202  0.7095 -1.1998 -0.2662
 2998TIP3   OH230484   5.409   0.599   4.836 -0.1597 -0.2482  0.2211
 2998TIP3    H130485   5.503   0.600   4.820  0.4039 -1.5764  2.8277
 2998TIP3    H230486   5.397   0.658   4.911 -1.4322  0.0479 -0.1906
 2999TIP3   OH230487   4.579   0.390   4.924 -0.6894 -0.0032  0.4086
 2999TIP3    H130488   4.650   0.329   4.943 -1.0036 -0.4861  0.0720
 2999TIP3    H230489   4.509   0.365   4.985 -1.3824 -0.9969 -0.7370
 3000TIP3   OH230490   4.167   4.168   4.858  0.2796 -0.4839 -0.3079
 3000TIP3    H130491   4.258   4.182   4.885  0.3696 -1.7257  0.1036
 3000TIP3    H230492   4.115   4.191   4.936  0.3305 -0.9877 -0.1217
 3001TIP3   OH230493   0.419   1.588   3.740  0.5319 -0.1212  0.3221
 3001TIP3    H130494   0.507   1.587   3.778  0.7122  0.4976 -0.0618
 3001TIP3    H230495   0.403   1.680   3.718  0.3067 -0.4048 -0.7873
 3002TIP3   OH230496   6.806   5.396  13.372  0.2754 -0.9360 -0.2568
 3002TIP3    H130497   6.897   5.425  13.386 -0.0711  1.0377 -1.6276
 3002TIP3    H230498   6.756   5.477  13.365 -1.4986 -1.9778 -0.3075
 3003TIP3   OH230499   0.432   6.734  13.422  0.1984  0.4086  0.2279
 3003TIP3    H130500   0.456   6.726  13.330  0.1755  1.6424  0.0951
 3003TIP3    H230501   0.478   6.662  13.465  2.8356  1.6766 -0.2783
 3004TIP3   OH230502   2.907   5.146  17.022  0.5059  0.0680 -0.5084
 3004TIP3    H130503   2.922   5.059  17.058  1.0581  0.7088  0.8552
 3004TIP3    H230504   2.909   5.204  17.097 -1.9936  1.0443 -1.1043
 3005TIP3   OH230505   4.531   5.380  15.883 -0.2235 -0.3722 -0.8968
 3005TIP3    H130506   4.457   5.362  15.941  0.2328  0.8353  0.1004
 3005TIP3    H230507   4.491   5.420  15.805 -0.6793 -0.3836 -0.6736
 3006TIP3   OH230508   6.175   5.514   6.059 -0.0314 -0.5943 -0.6934
 3006TIP3    H130509   6.259   5.506   6.103  0.0100 -0.7977 -0.8068
 3006TIP3    H230510   6.153   5.424   6.034 -0.8791 -0.7216  0.4435
 3007TIP3   OH230511   3.718   0.887  13.332 -0.0023 -0.6018  0.3951
 3007TIP3    H130512   3.645   0.888  13.270 -0.3150 -0.6584  0.7562
 3007TIP3    H230513   3.792   0.852  13.282 -0.3447 -1.0002  0.1631
 3008TIP3   OH230514   0.536   1.442   1.903 -0.0755 -0.1737 -0.4136
 3008TIP3    H130515   0.510   1.469   1.815  2.2058  1.0785 -0.7900
 3008TIP3    H230516   0.568   1.522   1.945  0.0544 -0.9785  1.1284
 3009TIP3   OH230517   5.545   4.490   4.559 -0.2415 -0.1331 -0.1968
 3009TIP3    H130518   5.549   4.572   4.608  1.2243 -0.1567 -0.2530
 3009TIP3    H230519   5.557   4.422   4.625 -2.2797 -0.3864 -0.0186
 3010TIP3   OH230520   2.854   0.730  14.616  0.0705 -0.4780  0.4593
 3010TIP3    H130521   2.903   0.657  14.577 -0.1373 -0.3849  0.0156
 3010TIP3    H230522   2.777   0.689  14.654 -0.5466 -0.3884 -0.6446
 3011TIP3   OH230523   2.409   4.581  16.763  0.6701 -0.4756 -0.1115
 3011TIP3    H130524   2.467   4.565  16.689  0.7875  1.1438 -0.4057
 3011TIP3    H230525   2.444   4.527  16.834  2.2694  0.1085 -0.4149
 3012TIP3   OH230526   4.720   1.690  14.490  0.4324  0.0820  0.0358
 3012TIP3    H130527   4.745   1.598  14.494 -0.3018 -0.0894  1.1097
 3012TIP3    H230528   4.769   1.732  14.560  1.3190  0.6664 -0.9095
 3013TIP3   OH230529   3.514   0.846  15.352  0.2803  0.7453 -0.3510
 3013TIP3    H130530   3.439   0.880  15.303 -0.0099  0.5641 -0.0396
 3013TIP3    H230531   3.554   0.922  15.392 -0.5388  0.6978  0.5834
 3014TIP3   OH230532   1.723   1.262   3.997  0.1375 -1.1655  0.6835
 3014TIP3    H130533   1.694   1.253   3.906 -0.2687  2.5870  0.2947
 3014TIP3    H230534   1.644   1.245   4.048 -1.5314  2.9152 -0.1214
 3015TIP3   OH230535   3.390   6.135  10.828  0.1446  0.8479  0.3991
 3015TIP3    H130536   3.332   6.069  10.792  1.3790  0.6961 -1.4377
 3015TIP3    H230537   3.334   6.212  10.842 -0.1916  1.6108 -3.7684
 3016TIP3   OH230538   0.606   4.218  11.353 -0.5867 -0.5170  0.1581
 3016TIP3    H130539   0.534   4.241  11.412 -1.5847 -0.1048 -1.1810
 3016TIP3    H230540   0.651   4.146  11.397 -0.8474  0.2710  1.7665
 3017TIP3   OH230541   2.379   4.725   0.655 -0.3406 -0.2808  0.3687
 3017TIP3    H130542   2.359   4.702   0.746 -1.7300  1.7048  0.6128
 3017TIP3    H230543   2.337   4.656   0.603 -1.6130 -0.1386  1.1692
 3018TIP3   OH230544   4.793   0.436  13.671  0.3033 -0.3835  0.3881
 3018TIP3    H130545   4.866   0.434  13.733  0.6023  1.2700  0.1288
 3018TIP3    H230546   4.734   0.504  13.705 -0.7497 -1.1632  0.1773
 3019TIP3   OH230547   6.768   5.603  11.714  0.3334  0.4304  0.8677
 3019TIP3    H130548   6.818   5.594  11.796  0.7847 -1.7277  0.4203
 3019TIP3    H230549   6.828   5.647  11.654  0.8682 -0.0905  1.0126
 3020TIP3   OH230550   3.491   6.325  11.078 -0.1482  0.2890 -0.3278
 3020TIP3    H130551   3.489   6.387  11.005 -0.8051 -0.7056 -1.1892
 3020TIP3    H230552   3.399   6.307  11.097 -0.0460  1.6431  1.7547
 3021TIP3   OH230553   0.568   1.672   4.003 -0.1469 -0.5427  0.0050
 3021TIP3    H130554   0.515   1.627   4.069 -1.4883  0.0176 -0.6509
 3021TIP3    H230555   0.656   1.636   4.014 -0.2797 -0.2993  2.2301
 3022TIP3   OH230556   5.333   1.282   5.768  0.1318  0.7120  0.3558
 3022TIP3    H130557   5.319   1.365   5.814  0.2938  0.4685  0.8608
 3022TIP3    H230558   5.405   1.299   5.708  0.9264  0.6483  1.2593
 3023TIP3   OH230559   3.477   0.355   6.081 -0.0586  0.7525  0.2919
 3023TIP3    H130560   3.426   0.275   6.093  0.1088  0.7639  1.1069
 3023TIP3    H230561   3.424   0.424   6.121 -0.1858  1.0525 -0.3735
 3024TIP3   OH230562   0.047   1.614   3.020 -0.1264  0.2248  1.0310
 3024TIP3    H130563   0.060   1.697   2.975 -0.5260 -0.1783  0.1584
 3024TIP3    H230564   0.127   1.602   3.071  0.5838  0.3997 -0.0185
 3025TIP3   OH230565   5.203   3.779   1.324  0.2965 -0.4136  0.3391
 3025TIP3    H130566   5.296   3.768   1.345 -0.2022 -0.3055  2.8999
 3025TIP3    H230567   5.176   3.693   1.292  1.2486 -0.4578 -0.4119
 3026TIP3   OH230568   3.794   3.809  13.086  0.6016 -0.1146  0.2522
 3026TIP3    H130569   3.754   3.828  13.001  1.5090 -0.0184 -0.1740
 3026TIP3    H230570   3.873   3.863  13.087  0.9700 -0.6564  0.8513
 3027TIP3   OH230571   4.134   6.458  15.173 -0.0540 -0.1457  0.1058
 3027TIP3    H130572   4.072   6.435  15.104 -0.1693  0.1147  0.1210
 3027TIP3    H230573   4.094   6.425  15.253 -0.7620  1.0773  0.2796
 3028TIP3   OH230574   0.903   6.767   5.428  0.5269 -0.3207  0.2284
 3028TIP3    H130575   0.870   6.852   5.399  0.5698 -0.1635  0.6387
 3028TIP3    H230576   0.989   6.759   5.386  0.8119  0.1343  0.7210
 3029TIP3   OH230577   3.326   2.855  11.730 -0.3468  0.2875  0.0287
 3029TIP3    H130578   3.244   2.844  11.683 -0.6645 -0.2479  0.6829
 3029TIP3    H230579   3.305   2.832  11.821  0.3445  0.8967  0.3583
 3030TIP3   OH230580   0.245   1.589   5.007 -0.0239  0.0080  0.2407
 3030TIP3    H130581   0.319   1.646   4.988  2.2662 -2.7001  0.3816
 3030TIP3    H230582   0.239   1.588   5.103 -0.3735  0.3844  0.2226
 3031TIP3   OH230583   2.704   0.644   5.022  0.5433  0.7021  0.2291
 3031TIP3    H130584   2.637   0.708   5.048  1.7870  3.4686 -2.6782
 3031TIP3    H230585   2.783   0.674   5.066  0.5517 -0.7723  1.2840
 3032TIP3   OH230586   5.641   0.720  16.878  0.5043 -0.0080 -0.3645
 3032TIP3    H130587   5.682   0.794  16.924  1.3372 -1.7863  1.9398
 3032TIP3    H230588   5.627   0.654  16.946 -2.5431 -1.0637 -1.8572
 3033TIP3   OH230589   3.209   3.737   4.881  0.2342  0.1854  0.1462
 3033TIP3    H130590   3.271   3.779   4.821 -0.8429  0.2881 -0.9326
 3033TIP3    H230591   3.141   3.803   4.896 -1.4643 -1.0796 -1.5550
 3034TIP3   OH230592   2.700   0.490  15.408 -0.3028 -0.1693 -0.4767
 3034TIP3    H130593   2.611   0.469  15.436 -0.5524 -0.7850 -1.6568
 3034TIP3    H230594   2.751   0.412  15.429  0.0249  0.2806  0.4352
 3035TIP3   OH230595   4.478   4.167   4.526 -0.1196 -0.2402  0.2983
 3035TIP3    H130596   4.514   4.186   4.439  1.4768  1.0558  1.1802
 3035TIP3    H230597   4.483   4.251   4.572 -2.9043 -0.3759  1.0264
 3036TIP3   OH230598   3.261   4.261  11.027  0.4250 -0.9482 -0.0191
 3036TIP3    H130599   3.220   4.193  11.079  0.1031 -0.7123  0.0351
 3036TIP3    H230600   3.202   4.275  10.953  0.2819 -0.4413  0.1850
 3037TIP3   OH230601   5.031   2.625   6.755  0.1931  0.2723 -0.3023
 3037TIP3    H130602   5.122   2.638   6.726  1.0144  0.4553  2.1099
 3037TIP3    H230603   5.018   2.691   6.823 -1.6348 -0.0123 -0.3361
 3038TIP3   OH230604   4.867   6.222  14.685 -0.0934  0.1223  1.0717
 3038TIP3    H130605   4.913   6.277  14.621  1.8880 -0.6570  1.7519
 3038TIP3    H230606   4.821   6.157  14.631  0.2795  0.4148  0.3851
 3039TIP3   OH230607   0.467   0.430   6.112 -0.0588  0.0236  0.3568
 3039TIP3    H130608   0.516   0.382   6.179 -1.1802 -0.9554  0.5207
 3039TIP3    H230609   0.464   0.520   6.144  0.3138 -0.2235  1.0996
 3040TIP3   OH230610   1.667   0.917  12.605  0.3984  0.0006 -0.1120
 3040TIP3    H130611   1.730   0.893  12.673 -0.6889 -2.1358  0.2414
 3040TIP3    H230612   1.581   0.900  12.644 -0.3149  0.6007 -1.3572
 3041TIP3   OH230613   3.957   3.642  11.875  0.6741  0.1048 -0.1067
 3041TIP3    H130614   3.985   3.659  11.965  1.7378  0.6607 -0.5241
 3041TIP3    H230615   3.888   3.706  11.859 -0.1442 -0.5693  0.5779
 3042TIP3   OH230616   0.264   2.458  12.652 -0.4476 -0.2328 -0.4313
 3042TIP3    H130617   0.336   2.438  12.593  0.1786 -1.9761  0.8164
 3042TIP3    H230618   0.301   2.519  12.715  1.0705 -3.3882  2.0377
 3043TIP3   OH230619   5.130   1.957   2.346 -0.1241 -0.5213  0.7057
 3043TIP3    H130620   5.061   1.910   2.393  0.6620  0.5275  3.0297
 3043TIP3    H230621   5.084   2.003   2.276 -1.2541 -2.5997 -0.0104
 3044TIP3   OH230622   3.923   6.779  15.067 -0.3835  0.3859  0.4258
 3044TIP3    H130623   3.873   6.709  15.109 -0.5888  0.2155 -0.0973
 3044TIP3    H230624   3.857   6.846  15.045 -0.7319 -0.6210 -1.9290
 3045TIP3   OH230625   4.412   6.517   3.568  0.0875  0.1619  0.1542
 3045TIP3    H130626   4.452   6.499   3.483 -1.8273 -2.3602 -0.3227
 3045TIP3    H230627   4.333   6.566   3.547 -1.8309 -2.7641  0.0932
 3046TIP3   OH230628   2.558   6.750   1.753  0.2249  0.4902 -0.4195
 3046TIP3    H130629   2.588   6.667   1.791 -1.8764 -0.0100  0.3078
 3046TIP3    H230630   2.485   6.725   1.696 -1.3806  1.9146  0.8870
 3047TIP3   OH230631   4.682   2.519   1.090  0.2002 -0.5526 -0.2208
 3047TIP3    H130632   4.726   2.601   1.069 -1.3612  0.0971 -1.1143
 3047TIP3    H230633   4.753   2.454   1.094  1.2943  0.5465 -1.0363
 3048TIP3   OH230634   6.442   2.236  10.945 -0.2519 -0.5192 -0.8844
 3048TIP3    H130635   6.420   2.143  10.935  0.3079 -0.7117 -0.3802
 3048TIP3    H230636   6.357   2.280  10.950 -0.6554 -1.4194  2.6088
 3049TIP3   OH230637   1.632   5.584   1.878  0.1545 -0.0058  0.1077
 3049TIP3    H130638   1.620   5.623   1.964 -0.5238 -0.5953  0.2955
 3049TIP3    H230639   1.629   5.659   1.817 -1.0772  0.2593  0.4621
 3050TIP3   OH230640   6.233   5.155  12.580  0.4957  0.8103 -0.4034
 3050TIP3    H130641   6.318   5.179  12.542  1.9295 -1.2625  1.2433
 3050TIP3    H230642   6.229   5.203  12.663  2.2812 -2.3320  1.7289
 3051TIP3   OH230643   0.650   6.158  14.319 -0.3972  0.2933  0.1266
 3051TIP3    H130644   0.650   6.123  14.230  1.0187  0.5567 -0.0008
 3051TIP3    H230645   0.698   6.094  14.370 -0.6143  0.4799  0.5711
 3052TIP3   OH230646   4.134   0.642  13.681  0.3154 -0.5939 -0.5419
 3052TIP3    H130647   4.053   0.680  13.715  0.2534  0.1388 -1.4630
 3052TIP3    H230648   4.121   0.548  13.688  0.1530 -0.4755  1.0588
 3053TIP3   OH230649   1.717   0.991  10.601 -0.3801  0.3993 -0.1389
 3053TIP3    H130650   1.639   1.001  10.547  0.6479 -0.7300 -1.9109
 3053TIP3    H230651   1.764   1.074  10.591 -0.9017  0.7475  0.2366
 3054TIP3   OH230652   3.358   5.706  15.456  0.1281 -0.8293 -0.0548
 3054TIP3    H130653   3.371   5.634  15.395 -0.8598 -0.5966 -0.5592
 3054TIP3    H230654   3.378   5.785  15.405  1.1692 -0.7316  0.4828
 3055TIP3   OH230655   3.866   4.301  15.052  0.1604 -0.5928  0.1167
 3055TIP3    H130656   3.877   4.280  14.959  0.5396 -0.6572  0.1736
 3055TIP3    H230657   3.772   4.309  15.064  0.0896  4.1307 -1.3695
 3056TIP3   OH230658   3.040   0.693   3.210 -0.1429  0.1403  0.5989
 3056TIP3    H130659   3.080   0.769   3.253 -0.6159  0.0974  1.1179
 3056TIP3    H230660   2.967   0.730   3.159 -0.0280  0.1006  0.4034
 3057TIP3   OH230661   0.106   1.458  11.193 -0.1544 -0.3113  0.0270
 3057TIP3    H130662   0.131   1.472  11.285  1.0972  1.0287 -0.4746
 3057TIP3    H230663   0.080   1.545  11.162  1.6774 -0.2335 -1.4924
 3058TIP3   OH230664   2.296   2.063   6.354  0.5068 -0.5686  0.1842
 3058TIP3    H130665   2.240   2.135   6.324  1.1148 -0.7163 -1.3840
 3058TIP3    H230666   2.378   2.105   6.377  0.7670 -0.7171 -0.4591
 3059TIP3   OH230667   1.190   0.450   1.698  0.0522 -0.6910  0.0815
 3059TIP3    H130668   1.264   0.397   1.729  0.7968  0.5521  0.4978
 3059TIP3    H230669   1.224   0.539   1.698 -0.7401 -0.3570 -1.9171
 3060TIP3   OH230670   1.492   5.293   3.488 -0.1279  0.0676  0.4082
 3060TIP3    H130671   1.491   5.367   3.428 -0.3390  0.0214  0.3519
 3060TIP3    H230672   1.548   5.228   3.445  0.9022  0.5848  0.9462
 3061TIP3   OH230673   0.474   1.249   2.440  0.1387 -0.0172 -0.1578
 3061TIP3    H130674   0.445   1.304   2.367  2.1291  1.7657  0.2865
 3061TIP3    H230675   0.477   1.309   2.515  1.1009 -1.0618  0.6575
 3062TIP3   OH230676   2.962   2.364   1.253  0.5159  0.4790  0.4364
 3062TIP3    H130677   3.024   2.422   1.209  0.0607  0.9206  0.3772
 3062TIP3    H230678   2.994   2.359   1.343  0.4988  0.9092  0.4683
 3063TIP3   OH230679   3.816   2.140   3.335  0.4044 -0.5040  1.3388
 3063TIP3    H130680   3.791   2.081   3.264 -0.3395 -0.7348  1.7729
 3063TIP3    H230681   3.909   2.158   3.321  0.2785 -0.5708  0.3312
 3064TIP3   OH230682   1.895   2.961  11.095  0.0349 -0.0266  0.6280
 3064TIP3    H130683   1.815   2.997  11.057  0.4325  0.2132 -0.0078
 3064TIP3    H230684   1.888   2.980  11.188  0.5256  2.3415  0.2614
 3065TIP3   OH230685   2.979   5.409  14.280 -0.2052  0.0137 -0.2392
 3065TIP3    H130686   3.063   5.455  14.271  1.1546 -2.0990  0.8403
 3065TIP3    H230687   2.928   5.464  14.339  1.8734 -0.4183  2.1187
 3066TIP3   OH230688   1.052   1.208  12.036 -0.2646  0.8290 -0.0584
 3066TIP3    H130689   1.082   1.195  12.126  0.7480 -0.6850 -0.5883
 3066TIP3    H230690   1.045   1.120  11.999  0.0049  1.4427 -1.6732
 3067TIP3   OH230691   1.623   5.921  16.179 -0.2471  0.2989 -0.5068
 3067TIP3    H130692   1.532   5.909  16.204 -0.0773 -0.4843 -0.2484
 3067TIP3    H230693   1.660   5.975  16.249 -0.6760  1.2001 -0.9645
 3068TIP3   OH230694   6.091   0.599   1.124  0.5793  0.1374 -0.3894
 3068TIP3    H130695   6.067   0.692   1.118  0.0159  0.0106 -0.1043
 3068TIP3    H230696   6.074   0.565   1.036  0.6930  0.2801 -0.4682
 3069TIP3   OH230697   6.660   2.988   4.755  0.2386  0.4061  0.4721
 3069TIP3    H130698   6.706   3.069   4.733 -0.5487  0.5720 -0.6154
 3069TIP3    H230699   6.596   2.976   4.685 -1.4975  0.2717  2.0164
 3070TIP3   OH230700   1.166   6.215  12.274 -0.2692  0.2321 -0.5069
 3070TIP3    H130701   1.101   6.256  12.217 -0.1105  0.6092 -0.4179
 3070TIP3    H230702   1.127   6.131  12.297 -1.1501  0.8446  0.3037
 3071TIP3   OH230703   6.538   2.126  12.544  0.2915  0.1235 -0.7206
 3071TIP3    H130704   6.585   2.053  12.504 -0.6438  0.0642 -1.7721
 3071TIP3    H230705   6.448   2.116  12.513 -0.3871  0.3455  1.0753
 3072TIP3   OH230706   0.737   4.955  15.034 -0.8784  0.4704 -0.3316
 3072TIP3    H130707   0.769   4.964  15.124 -2.7429  2.7325  0.2201
 3072TIP3    H230708   0.773   4.872  15.003 -0.8386 -0.7879  2.7867
 3073TIP3   OH230709   4.501   5.691   0.748  0.3241 -0.1899 -0.1671
 3073TIP3    H130710   4.424   5.645   0.781  0.2110  0.0464 -0.0986
 3073TIP3    H230711   4.530   5.745   0.822  1.3459 -1.2608  0.2527
 3074TIP3   OH230712   4.082   3.480   5.851 -0.2239  0.2602 -0.2248
 3074TIP3    H130713   4.006   3.534   5.874 -0.7664 -0.7768  0.5293
 3074TIP3    H230714   4.116   3.449   5.935  1.2149  0.9138 -0.5361
 3075TIP3   OH230715   4.985   0.998   1.091 -0.4445  0.3905 -0.1031
 3075TIP3    H130716   4.977   0.915   1.044  1.1454 -0.1558  0.4883
 3075TIP3    H230717   4.981   1.065   1.023  0.1929 -0.2941 -0.8487
 3076TIP3   OH230718   1.433   2.088   3.981  0.5034  0.3304  0.2201
 3076TIP3    H130719   1.346   2.054   3.962  0.7890  0.2256 -0.9587
 3076TIP3    H230720   1.493   2.029   3.935  1.1056  1.2209 -0.1744
 3077TIP3   OH230721   5.016   5.440   3.959  0.6317 -0.0401 -0.1883
 3077TIP3    H130722   4.964   5.516   3.985 -0.0574 -0.4650 -0.2822
 3077TIP3    H230723   5.032   5.452   3.865 -0.5022 -0.5826 -0.4728
 3078TIP3   OH230724   0.145   1.257   1.977  0.0246  0.0087 -0.0881
 3078TIP3    H130725   0.237   1.239   1.958  0.2055  0.3854  0.4046
 3078TIP3    H230726   0.127   1.341   1.934  0.4987  0.9784  1.5142
 3079TIP3   OH230727   4.744   5.116   5.860 -0.1711 -0.0295 -0.5706
 3079TIP3    H130728   4.706   5.200   5.887  1.5562  0.5136  0.3394
 3079TIP3    H230729   4.776   5.077   5.941  0.8889 -0.5893 -1.2428
 3080TIP3   OH230730   0.223   5.970   0.860  0.0392  0.4536 -0.7111
 3080TIP3    H130731   0.248   6.062   0.868 -1.8881  0.9793  0.0011
 3080TIP3    H230732   0.246   5.932   0.945  0.1659  0.4601 -0.7422
 3081TIP3   OH230733   2.218   1.300  11.736 -0.0162 -0.1768  0.4696
 3081TIP3    H130734   2.124   1.284  11.734  0.0568 -0.6326 -0.9924
 3081TIP3    H230735   2.236   1.332  11.824 -1.6556  0.6270  0.5501
 3082TIP3   OH230736   6.749   6.252   5.373 -0.3785 -0.2040  0.0617
 3082TIP3    H130737   6.661   6.289   5.371 -0.6822 -0.9270 -0.7203
 3082TIP3    H230738   6.807   6.328   5.368 -0.9826  0.2079 -1.2523
 3083TIP3   OH230739   2.227   2.555   2.269  0.1102  0.3299  0.6112
 3083TIP3    H130740   2.193   2.581   2.183  0.4328  0.5223  0.5399
 3083TIP3    H230741   2.322   2.560   2.260  0.1300  1.4701  1.3252
 3084TIP3   OH230742   0.514   5.594   1.879 -0.3237 -0.2709  0.2073
 3084TIP3    H130743   0.609   5.594   1.889 -0.0975 -2.0640 -1.3323
 3084TIP3    H230744   0.480   5.570   1.965  0.6269  0.0750  0.6881
 3085TIP3   OH230745   0.194   3.020  12.374 -0.2801 -0.1364 -0.5758
 3085TIP3    H130746   0.240   2.945  12.411  1.8646  1.1019 -0.5887
 3085TIP3    H230747   0.102   3.007  12.400  0.4548 -1.4109  1.6368
 3086TIP3   OH230748   4.468   5.061  14.403  0.2699 -0.0901  0.0153
 3086TIP3    H130749   4.540   5.031  14.459 -0.3031  2.2558  2.2449
 3086TIP3    H230750   4.395   5.075  14.464 -1.2099  0.2379 -1.7435
 3087TIP3   OH230751   2.529   6.418  13.487 -0.2855  0.0287 -0.4590
 3087TIP3    H130752   2.506   6.333  13.450  0.9082 -0.1584 -0.8079
 3087TIP3    H230753   2.589   6.398  13.559  0.4833  0.6030 -0.9313
 3088TIP3   OH230754   4.773   4.787   1.373  0.3564  0.3112  0.0475
 3088TIP3    H130755   4.760   4.880   1.390  1.0865  0.1863  1.4223
 3088TIP3    H230756   4.868   4.775   1.380  0.3160 -0.4411 -0.6397
 3089TIP3   OH230757   4.441   3.693   4.017  0.1350 -0.3344  0.4449
 3089TIP3    H130758   4.425   3.754   4.089  3.0081  2.4890 -1.0630
 3089TIP3    H230759   4.380   3.721   3.948  1.3847  0.9336 -0.2107
 3090TIP3   OH230760   4.418   3.464   4.398  0.1162 -0.5190  0.2362
 3090TIP3    H130761   4.402   3.371   4.417 -0.6026 -0.1215  1.8024
 3090TIP3    H230762   4.337   3.494   4.357  1.4778 -1.2480 -3.2641
 3091TIP3   OH230763   3.937   1.522  17.038 -0.1478 -0.3059 -0.3991
 3091TIP3    H130764   3.922   1.545  17.130 -1.5626 -3.0256  0.1643
 3091TIP3    H230765   4.028   1.495  17.035 -0.7292 -2.7257  0.9234
 3092TIP3   OH230766   0.575   6.597  15.379  0.1544  0.0990  0.2863
 3092TIP3    H130767   0.504   6.537  15.402  0.3523 -0.3733 -0.2994
 3092TIP3    H230768   0.655   6.548  15.398  0.3638  1.0917  2.1614
 3093TIP3   OH230769   1.243   2.557  13.153  1.0322  0.3040 -0.0955
 3093TIP3    H130770   1.278   2.472  13.128 -0.7396 -0.3814 -0.4228
 3093TIP3    H230771   1.279   2.573  13.241  0.8368 -1.1391  0.2780
 3094TIP3   OH230772   4.217   5.978  17.149  0.4080  0.0137 -0.0147
 3094TIP3    H130773   4.130   5.962  17.186  1.1862 -0.4003  1.7423
 3094TIP3    H230774   4.200   6.010  17.060 -1.6130  2.0228  0.9913
 3095TIP3   OH230775   4.757   3.092   3.542  0.1771 -0.0201  0.0003
 3095TIP3    H130776   4.785   3.126   3.457 -0.2899 -0.9179 -0.5324
 3095TIP3    H230777   4.740   2.999   3.526 -0.2528 -0.1283  0.9972
 3096TIP3   OH230778   4.209   0.030  17.055  0.1699 -0.1637  0.7232
 3096TIP3    H130779   4.289   0.081  17.041 -0.4941  0.9058  0.6896
 3096TIP3    H230780   4.222  -0.013  17.140  1.2582 -0.9524  0.1713
 3097TIP3   OH230781   4.963   5.917  14.654  0.3559  0.4565 -0.1761
 3097TIP3    H130782   5.014   5.896  14.733  0.2372  1.4338  0.1811
 3097TIP3    H230783   5.028   5.947  14.591  0.2947  1.2213  0.1103
 3098TIP3   OH230784   5.105   5.419   3.507 -0.2811 -0.1340  0.1868
 3098TIP3    H130785   5.147   5.342   3.544 -2.7850 -1.1585  1.1123
 3098TIP3    H230786   5.135   5.422   3.417  0.4920 -1.7183  0.3599
 3099TIP3   OH230787   3.617   4.083  14.248  0.4614  0.3597  0.5962
 3099TIP3    H130788   3.615   4.012  14.313  0.3727  1.2880  1.6391
 3099TIP3    H230789   3.564   4.152  14.287  1.3285  1.3601  0.0335
 3100TIP3   OH230790   6.814   5.875  13.519  0.0418  0.6831 -0.1546
 3100TIP3    H130791   6.844   5.838  13.436 -2.5777 -1.5433 -0.2178
 3100TIP3    H230792   6.885   5.854  13.580  0.7619 -0.1639 -1.2271
 3101TIP3   OH230793   6.496   5.662   5.541  0.2478 -0.5737  0.2262
 3101TIP3    H130794   6.509   5.752   5.571 -0.3542 -0.5395  0.3921
 3101TIP3    H230795   6.502   5.609   5.620 -0.4658 -0.5709  0.2832
 3102TIP3   OH230796   3.232   0.129  13.939 -0.3076 -0.3265  0.4081
 3102TIP3    H130797   3.165   0.148  13.873 -0.4636 -0.4788  0.5201
 3102TIP3    H230798   3.301   0.193  13.923  0.6694 -1.6984 -1.3177
 3103TIP3   OH230799   0.312   3.190   3.739  0.0428 -0.0100 -0.2765
 3103TIP3    H130800   0.351   3.132   3.674  2.0144  0.4988  0.4049
 3103TIP3    H230801   0.347   3.161   3.823  1.5363  2.4197  0.0413
 3104TIP3   OH230802   6.789   3.583  16.854  0.3185  0.0925 -0.5091
 3104TIP3    H130803   6.856   3.634  16.808 -2.2852  2.5043 -1.8927
 3104TIP3    H230804   6.791   3.497  16.811  1.4220  0.6297 -1.5960
 3105TIP3   OH230805   1.694   5.130  15.469 -0.6060 -0.2840 -0.8690
 3105TIP3    H130806   1.730   5.041  15.473 -1.2830 -0.5605 -0.8986
 3105TIP3    H230807   1.653   5.136  15.383  2.1888  1.1489 -2.2391
 3106TIP3   OH230808   2.060   5.827   5.776 -0.7949  0.4048 -0.3014
 3106TIP3    H130809   2.000   5.806   5.847  0.1049  0.7365  0.5937
 3106TIP3    H230810   2.137   5.864   5.820 -0.1516  0.4846 -1.4412
 3107TIP3   OH230811   3.512   4.446  16.758 -0.2219  0.2138 -0.4384
 3107TIP3    H130812   3.505   4.355  16.730 -0.9193  0.8877 -2.7592
 3107TIP3    H230813   3.556   4.490  16.685 -0.0445  1.7544  0.5513
 3108TIP3   OH230814   1.028   2.695  12.438 -0.0042  0.0142 -0.0604
 3108TIP3    H130815   1.104   2.743  12.471  1.9845 -1.8483 -1.6152
 3108TIP3    H230816   1.039   2.607  12.473 -2.0235 -0.0903  0.4348
 3109TIP3   OH230817   4.434   5.582  14.689 -0.1850 -0.0885 -0.3569
 3109TIP3    H130818   4.413   5.500  14.733  1.7070  0.1734  1.1811
 3109TIP3    H230819   4.364   5.594  14.626 -1.0733 -2.3480  0.0984
 3110TIP3   OH230820   1.148   0.960   1.317 -0.7494  0.4660  0.1344
 3110TIP3    H130821   1.163   1.043   1.362 -1.6767 -0.0148  1.3853
 3110TIP3    H230822   1.123   0.985   1.228  0.2691  1.4658  0.0965
 3111TIP3   OH230823   4.791   0.552  14.748 -0.1907  0.3940  0.1924
 3111TIP3    H130824   4.771   0.609  14.673 -1.0804 -0.1220  0.0139
 3111TIP3    H230825   4.885   0.562  14.762 -0.2733  1.6237 -0.0562
 3112TIP3   OH230826   1.876   3.976  15.503  0.3216  0.0417 -0.6532
 3112TIP3    H130827   1.945   3.963  15.438  2.0286 -0.9038  1.2239
 3112TIP3    H230828   1.916   3.949  15.586 -1.2127  2.6041  1.0644
 3113TIP3   OH230829   0.791   2.120  17.034 -0.9053  0.5350 -0.4721
 3113TIP3    H130830   0.767   2.057  16.966  1.2980 -2.6692  1.4247
 3113TIP3    H230831   0.883   2.139  17.017 -0.1103 -0.8713  1.8771
 3114TIP3   OH230832   3.421   3.347  10.715  0.2407  0.4458  0.1944
 3114TIP3    H130833   3.458   3.270  10.758 -1.4717 -0.2467  0.5053
 3114TIP3    H230834   3.416   3.322  10.622 -2.0318 -0.6258  0.5288
 3115TIP3   OH230835   5.387   0.922   4.093  0.0774  0.4236  0.7296
 3115TIP3    H130836   5.416   0.988   4.029  1.2589 -0.4178  0.3608
 3115TIP3    H230837   5.303   0.892   4.059 -0.4799  1.7127  0.8977
 3116TIP3   OH230838   4.157   0.497   1.353  0.1846 -0.2884  0.3399
 3116TIP3    H130839   4.250   0.484   1.369  0.2619 -0.5530 -0.2890
 3116TIP3    H230840   4.140   0.451   1.271 -0.4512 -0.0367  0.3221
 3117TIP3   OH230841   5.568   6.448   1.956  0.6032  0.2869  0.3512
 3117TIP3    H130842   5.629   6.385   1.995  0.7645 -0.8410 -1.5898
 3117TIP3    H230843   5.606   6.533   1.977  2.7794 -0.3729 -0.6167
 3118TIP3   OH230844   0.554   3.516  11.433 -0.0138  0.3038  0.0169
 3118TIP3    H130845   0.551   3.456  11.507  0.2161 -0.8079 -0.8550
 3118TIP3    H230846   0.462   3.532  11.412 -0.1176  1.5889  1.2649
 3119TIP3   OH230847   3.159   3.103   0.490  0.1659  0.9714 -0.1644
 3119TIP3    H130848   3.079   3.091   0.438 -0.5514  0.4284  1.0385
 3119TIP3    H230849   3.229   3.110   0.424 -0.6289 -0.2673 -1.1967
 3120TIP3   OH230850   2.798   1.283  15.332 -0.0150 -0.1516 -0.4249
 3120TIP3    H130851   2.830   1.223  15.264 -1.2078 -1.2894 -0.0255
 3120TIP3    H230852   2.832   1.248  15.414 -1.0998 -0.5838 -0.1404
 3121TIP3   OH230853   2.890   4.946  14.600 -0.3089 -0.2059 -0.2887
 3121TIP3    H130854   2.977   4.957  14.560 -0.3940  2.0307  0.0264
 3121TIP3    H230855   2.833   4.923  14.527 -0.1173  1.9856 -1.2012
 3122TIP3   OH230856   2.427   3.051   2.420  0.1155  0.3056  0.1506
 3122TIP3    H130857   2.405   2.977   2.477 -0.0261  1.1297  1.2157
 3122TIP3    H230858   2.342   3.086   2.393  0.1714 -0.7528 -1.5314
 3123TIP3   OH230859   4.205   5.394  14.353 -0.0652 -0.0686  0.4889
 3123TIP3    H130860   4.166   5.308  14.340 -0.5851 -0.3289  3.2140
 3123TIP3    H230861   4.295   5.377  14.378  0.2833  0.2817 -0.4783
 3124TIP3   OH230862   5.628   1.662  15.179 -0.1739  0.6500 -0.2176
 3124TIP3    H130863   5.666   1.625  15.259  0.8075  3.4877  0.7797
 3124TIP3    H230864   5.700   1.664  15.117 -0.7478 -0.8714 -0.9793
 3125TIP3   OH230865   1.305   3.654  15.240  0.4591  0.2893  0.0476
 3125TIP3    H130866   1.386   3.695  15.211  1.4217  0.1540  2.3721
 3125TIP3    H230867   1.320   3.560  15.228  0.0850  0.3252 -0.7991
 3126TIP3   OH230868   3.423   4.253  13.102  0.0603 -0.8677  0.6932
 3126TIP3    H130869   3.420   4.231  13.196  0.2828 -0.3561  0.8222
 3126TIP3    H230870   3.515   4.273  13.085 -0.3470  1.3595  0.9113
 3127TIP3   OH230871   1.966   4.985  12.862 -0.1242 -0.0572  0.1481
 3127TIP3    H130872   1.899   4.949  12.804 -1.5035  0.8531  1.0900
 3127TIP3    H230873   2.030   4.915  12.872 -0.9294 -0.9616 -0.8089
 3128TIP3   OH230874   0.434   6.026  11.811 -0.0427 -0.0194  0.2743
 3128TIP3    H130875   0.463   6.070  11.730  0.1678 -0.0947  0.3085
 3128TIP3    H230876   0.461   5.935  11.799 -0.0783 -0.0459  0.3994
 3129TIP3   OH230877   1.499   4.135  14.935 -0.1204 -0.3970  0.8628
 3129TIP3    H130878   1.512   4.227  14.959  0.4583 -0.7288  1.8695
 3129TIP3    H230879   1.404   4.125  14.930 -0.1861  0.5528 -0.5150
 3130TIP3   OH230880   3.397   1.905  14.384 -0.6734 -0.1133 -0.5751
 3130TIP3    H130881   3.406   1.812  14.364  1.3468 -0.4327  1.3665
 3130TIP3    H230882   3.436   1.915  14.471  0.5225  2.7748 -1.2997
 3131TIP3   OH230883   6.140   3.648   2.593  1.0063 -0.2285  0.0415
 3131TIP3    H130884   6.167   3.599   2.515 -1.7846 -0.7101 -0.7370
 3131TIP3    H230885   6.079   3.714   2.559  1.3005  0.9027  1.6190
 3132TIP3   OH230886   5.687   0.483  14.974  0.1999 -0.3291 -0.7002
 3132TIP3    H130887   5.742   0.509  15.048  1.5222 -2.6767 -0.7697
 3132TIP3    H230888   5.736   0.511  14.897 -0.6168  1.0446 -0.7626
 3133TIP3   OH230889   0.830   1.382   5.759  0.1685  1.3139 -0.2067
 3133TIP3    H130890   0.873   1.297   5.764 -0.1900  1.2003  2.6658
 3133TIP3    H230891   0.890   1.436   5.706  1.6262 -0.0323 -0.0019
 3134TIP3   OH230892   2.291   5.495  12.659 -0.2200  0.5365 -0.0058
 3134TIP3    H130893   2.364   5.554  12.641  0.3585 -0.2641 -0.3267
 3134TIP3    H230894   2.274   5.451  12.575  0.4962 -1.0067  0.6149
 3135TIP3   OH230895   5.431   0.359  16.737 -0.4593  0.3642 -0.0329
 3135TIP3    H130896   5.380   0.278  16.744  0.4714 -0.1897  0.6926
 3135TIP3    H230897   5.439   0.376  16.644 -1.7476  0.3302 -0.1624
 3136TIP3   OH230898   4.981   5.376   6.124  0.3649 -0.1165 -0.0571
 3136TIP3    H130899   4.944   5.463   6.107 -2.1429 -1.2452 -0.7188
 3136TIP3    H230900   4.981   5.333   6.039  3.6828 -0.1190 -0.1992
 3137TIP3   OH230901   5.451   5.951  13.074 -0.8212  0.2875 -0.3518
 3137TIP3    H130902   5.358   5.935  13.089 -0.7123  0.6245  0.8069
 3137TIP3    H230903   5.463   5.936  12.980 -1.7165 -1.3145 -0.2556
 3138TIP3   OH230904   6.637   3.591  12.123 -0.2444  0.0495 -0.2552
 3138TIP3    H130905   6.639   3.562  12.214  0.4091  0.2219 -0.2058
 3138TIP3    H230906   6.559   3.550  12.086 -0.6140  0.1209  0.4284
 3139TIP3   OH230907   5.980   4.880   5.392 -0.4977 -0.2006  0.7861
 3139TIP3    H130908   6.022   4.805   5.350 -1.4509  0.4734 -1.5614
 3139TIP3    H230909   6.017   4.956   5.346  0.8554  0.8828  3.4623
 3140TIP3   OH230910   4.144   3.986   0.067 -0.3096  0.0142 -0.1522
 3140TIP3    H130911   4.103   4.030  -0.007  0.1207  0.3722 -0.1843
 3140TIP3    H230912   4.099   4.021   0.144 -0.0348  0.4442 -0.1840
 3141TIP3   OH230913   4.364   1.694  11.789 -0.2908  0.8302 -0.3175
 3141TIP3    H130914   4.384   1.651  11.872  0.3596 -0.8100 -1.2807
 3141TIP3    H230915   4.293   1.641  11.751 -0.0535  1.1000 -1.1610
 3142TIP3   OH230916   0.697   1.312  10.347 -0.3717  0.5908  0.6123
 3142TIP3    H130917   0.781   1.266  10.349 -0.4825  0.1658 -1.8892
 3142TIP3    H230918   0.678   1.330  10.439  1.6184 -0.8155  1.3726
 3143TIP3   OH230919   4.160   1.898  13.344 -0.2845 -0.2746  0.3376
 3143TIP3    H130920   4.170   1.812  13.384  3.5184 -0.2534 -0.2070
 3143TIP3    H230921   4.164   1.960  13.417  1.9370 -0.4301  0.4021
 3144TIP3   OH230922   4.358   5.221  15.067 -0.2676 -0.6015 -0.1419
 3144TIP3    H130923   4.437   5.169  15.082 -0.9065 -0.9732  2.5420
 3144TIP3    H230924   4.286   5.157  15.070 -0.8051 -0.0314 -0.6135
 3145TIP3   OH230925   1.052   4.864  16.330  0.2441  0.3342 -0.0810
 3145TIP3    H130926   1.012   4.901  16.408 -0.2484 -0.7518  0.1986
 3145TIP3    H230927   1.146   4.870  16.346  0.2335 -3.0923  2.2626
 3146TIP3   OH230928   1.113   6.763  11.064  0.1291 -0.4326 -0.1547
 3146TIP3    H130929   1.127   6.857  11.077 -0.6541 -0.6605  3.3487
 3146TIP3    H230930   1.201   6.726  11.056  0.4393  0.5434 -1.7226
 3147TIP3   OH230931   0.691   0.117   0.606  0.1322  0.3992  1.0732
 3147TIP3    H130932   0.675   0.096   0.698 -1.9828  2.6575  1.3361
 3147TIP3    H230933   0.702   0.212   0.606  2.3037  0.2127 -0.7834
 3148TIP3   OH230934   6.668   2.326   0.514 -0.2643  0.4397  0.0590
 3148TIP3    H130935   6.704   2.259   0.572  0.6653  1.0064  0.1438
 3148TIP3    H230936   6.601   2.369   0.567  0.8457  1.2145  0.8761
 3149TIP3   OH230937   0.628   2.718  13.089  0.3096 -0.0170  0.4665
 3149TIP3    H130938   0.631   2.680  13.001 -2.2819  0.2188  0.2019
 3149TIP3    H230939   0.617   2.643  13.147  3.3785 -0.3134  0.8245
 3150TIP3   OH230940   1.527   4.471  14.088  0.2440 -0.1493  0.1580
 3150TIP3    H130941   1.554   4.552  14.132 -1.2849 -0.4618  1.8087
 3150TIP3    H230942   1.449   4.496  14.038 -0.3461 -0.6147  0.8288
 3151TIP3   OH230943   0.266   3.701   0.760  0.1163  0.1441 -0.5551
 3151TIP3    H130944   0.181   3.720   0.721 -0.1912  0.4716  0.2528
 3151TIP3    H230945   0.273   3.606   0.759 -0.2161  0.1210 -0.7187
 3152TIP3   OH230946   0.592   6.200   5.081 -0.0913  0.0392 -0.1291
 3152TIP3    H130947   0.555   6.112   5.081 -2.8531  1.0852  1.0366
 3152TIP3    H230948   0.621   6.214   5.171 -1.4250  0.9319  0.1956
 3153TIP3   OH230949   4.260   4.053  15.700  0.0853 -0.0558 -0.1438
 3153TIP3    H130950   4.271   4.059  15.605  1.1705 -0.7171 -0.0865
 3153TIP3    H230951   4.262   3.959  15.718  3.2804  0.0697  0.8295
 3154TIP3   OH230952   2.011   4.464   5.165  0.4415  0.2728 -0.0503
 3154TIP3    H130953   2.085   4.405   5.149  0.5810 -0.2279  2.0810
 3154TIP3    H230954   2.036   4.512   5.244 -0.7743  1.3536 -0.2960
 3155TIP3   OH230955   5.997   3.565   1.467  0.3734 -0.5920  0.0832
 3155TIP3    H130956   6.017   3.659   1.465  0.4023 -0.4896  2.3701
 3155TIP3    H230957   5.908   3.560   1.503  0.7392 -1.4406  0.9203
 3156TIP3   OH230958   6.136   5.134  14.849 -0.2031 -0.4586  0.3042
 3156TIP3    H130959   6.099   5.077  14.916  0.6189 -2.6760 -1.0244
 3156TIP3    H230960   6.075   5.125  14.775  0.6032 -0.6472 -0.3512
 3157TIP3   OH230961   5.017   0.939  12.528  0.3673  0.0779 -0.1052
 3157TIP3    H130962   5.038   0.850  12.555  1.3697 -0.3924 -2.1818
 3157TIP3    H230963   4.992   0.930  12.436 -1.8251  1.6590  0.2671
 3158TIP3   OH230964   5.123   6.627  11.174 -0.3340 -0.1905  0.1780
 3158TIP3    H130965   5.086   6.630  11.086  0.3594 -0.4750 -0.1340
 3158TIP3    H230966   5.106   6.538  11.204  0.8072 -0.6010 -0.3044
 3159TIP3   OH230967   5.325   5.217  15.408 -0.5960 -0.4164 -0.0370
 3159TIP3    H130968   5.277   5.160  15.468  0.3109 -0.0946  1.0364
 3159TIP3    H230969   5.415   5.186  15.414 -0.1892  0.7804  0.1552
 3160TIP3   OH230970   3.047   1.138  12.299 -0.3866 -0.0479 -0.2840
 3160TIP3    H130971   2.993   1.157  12.376 -0.9630  1.4923 -1.0311
 3160TIP3    H230972   3.021   1.204  12.234  1.2752 -0.2569 -1.2158
 3161TIP3   OH230973   5.979   1.974   1.803  0.2536 -0.3576  0.0772
 3161TIP3    H130974   6.014   2.058   1.774 -1.5158 -0.2381 -1.9345
 3161TIP3    H230975   6.051   1.913   1.793  0.9139  0.5104 -0.5855
 3162TIP3   OH230976   6.347   0.079  16.763 -0.1430 -0.8847 -0.5999
 3162TIP3    H130977   6.429   0.030  16.766 -0.8737 -2.1215  0.1382
 3162TIP3    H230978   6.318   0.072  16.672  0.4077 -0.6903 -0.7951
 3163TIP3   OH230979   3.512   6.273  11.495 -0.4211 -0.3379 -0.4062
 3163TIP3    H130980   3.569   6.288  11.419 -0.2442 -1.0284 -0.4197
 3163TIP3    H230981   3.505   6.178  11.501  0.9349 -0.3834  1.4393
 3164TIP3   OH230982   5.218   0.779   4.466 -0.3623 -0.0530 -0.0273
 3164TIP3    H130983   5.146   0.801   4.407 -0.7162 -3.1383 -0.9042
 3164TIP3    H230984   5.179   0.782   4.553 -0.3192  2.6392 -0.0007
 3165TIP3   OH230985   6.480   5.929  13.781  0.0838  0.2652 -0.1213
 3165TIP3    H130986   6.558   5.975  13.747 -1.5937  0.8057 -3.7002
 3165TIP3    H230987   6.477   5.848  13.732 -1.4344  0.1003  0.1947
 3166TIP3   OH230988   0.761   2.304  14.000 -0.7039 -0.0502 -0.3511
 3166TIP3    H130989   0.761   2.292  14.095 -0.6009 -0.4922 -0.4018
 3166TIP3    H230990   0.776   2.398  13.987  0.2325 -0.1269  0.0570
 3167TIP3   OH230991   0.919   0.861   3.485 -0.1120  0.4105 -0.1711
 3167TIP3    H130992   0.882   0.917   3.554 -1.1749  0.4587 -0.7660
 3167TIP3    H230993   0.970   0.795   3.533  0.2543  1.2152  0.5940
 3168TIP3   OH230994   2.103   1.194   0.685 -0.3632 -0.0695  1.0211
 3168TIP3    H130995   2.112   1.181   0.590  0.5928  0.9784  0.9478
 3168TIP3    H230996   2.053   1.118   0.715 -2.4292  0.5230 -0.6153
 3169TIP3   OH230997   4.972   1.790  13.795  0.3577 -0.3180  0.2935
 3169TIP3    H130998   5.044   1.799  13.857  0.9835  2.5212 -0.6880
 3169TIP3    H230999   4.946   1.880  13.776 -2.5167 -1.2062 -0.5039
 3170TIP3   OH231000   6.435   2.440   1.900  0.0037 -0.3715  0.2360
 3170TIP3    H131001   6.510   2.384   1.918  0.8226  0.7915  0.5180
 3170TIP3    H231002   6.362   2.397   1.944  0.9165 -0.3965  1.8079
 3171TIP3   OH231003   3.252   5.037  11.875  0.2100 -0.3725 -0.8645
 3171TIP3    H131004   3.242   5.083  11.958 -2.0186  0.4402 -1.5130
 3171TIP3    H231005   3.168   4.996  11.860  0.3451  0.0217 -3.0156
 3172TIP3   OH231006   3.804   5.074   3.843 -0.3845 -0.4536 -0.0543
 3172TIP3    H131007   3.753   5.152   3.864 -0.4659 -0.6305  0.4124
 3172TIP3    H231008   3.895   5.103   3.843 -0.4944  0.0319 -1.5947
 3173TIP3   OH231009   1.786   4.037   4.012  0.2038 -0.0894 -0.0273
 3173TIP3    H131010   1.873   4.060   3.981  0.8972 -0.1432  1.7213
 3173TIP3    H231011   1.731   4.038   3.934  2.1408 -1.9912 -1.5525
 3174TIP3   OH231012   0.826   4.257  16.641  0.0799 -0.6569  0.5947
 3174TIP3    H131013   0.892   4.318  16.609  0.1476 -1.0610 -0.0624
 3174TIP3    H231014   0.819   4.191  16.572  0.2124 -1.5501  1.4030
 3175TIP3   OH231015   0.430   0.056   1.335  0.0328  0.0981 -0.6758
 3175TIP3    H131016   0.468  -0.022   1.295  0.4873 -1.0506  1.8067
 3175TIP3    H231017   0.499   0.090   1.392 -1.8196 -0.9277  2.4664
 3176TIP3   OH231018   1.411   2.296  17.113 -0.5739  0.4672  0.5276
 3176TIP3    H131019   1.339   2.308  17.174 -1.7928 -1.0762 -0.5398
 3176TIP3    H231020   1.485   2.269  17.167 -1.2026  0.6220  1.4691
 3177TIP3   OH231021   6.106   1.979  14.956 -1.1038  0.6907  0.1524
 3177TIP3    H131022   6.064   1.925  14.889 -0.0826 -1.1912  0.9277
 3177TIP3    H231023   6.108   1.923  15.034  3.2021  0.3090  0.0511
 3178TIP3   OH231024   0.030   5.017  16.208 -0.4513 -0.2475  0.7995
 3178TIP3    H131025   0.079   5.087  16.250  1.5800 -1.1754  0.0973
 3178TIP3    H231026   0.008   5.050  16.122 -0.9703  0.1267  1.0715
 3179TIP3   OH231027   2.410   5.163  17.041 -0.1752  0.5958 -0.7060
 3179TIP3    H131028   2.381   5.118  16.963 -2.4489  0.3023  0.2204
 3179TIP3    H231029   2.503   5.140  17.050 -0.7605 -2.3496 -1.3037
 3180TIP3   OH231030   0.610   2.249  13.389 -0.2108 -0.4034  0.2039
 3180TIP3    H131031   0.654   2.189  13.329 -1.3660 -1.9596  0.8484
 3180TIP3    H231032   0.654   2.235  13.473 -0.7960 -0.7104  0.4619
 3181TIP3   OH231033   6.496   6.222   4.460  0.2415  0.6454  0.1456
 3181TIP3    H131034   6.448   6.281   4.520  0.9142  1.7008 -0.3364
 3181TIP3    H231035   6.430   6.158   4.433 -0.4556  1.0359  0.8598
 3182TIP3   OH231036   3.832   5.679   5.240 -0.0345 -0.5371  0.5325
 3182TIP3    H131037   3.839   5.647   5.150  0.2804 -0.0186  0.3681
 3182TIP3    H231038   3.804   5.603   5.290  1.1782 -1.2019  0.2402
 3183TIP3   OH231039   6.504   0.995   4.981 -0.6639  0.0144 -0.6696
 3183TIP3    H131040   6.460   0.929   5.034 -1.2656 -1.0790 -2.4099
 3183TIP3    H231041   6.442   1.069   4.979 -0.2275  0.4504  0.8421
 3184TIP3   OH231042   6.175   0.971   5.122 -0.1304 -0.7696  0.4305
 3184TIP3    H131043   6.107   0.942   5.060  0.5600 -0.7877 -0.3335
 3184TIP3    H231044   6.209   1.052   5.084  0.5486 -0.9734  0.5917
 3185TIP3   OH231045   0.129   0.924   3.411  0.0310 -0.4864  0.0345
 3185TIP3    H131046   0.200   0.904   3.350  0.3522 -1.0745  0.5900
 3185TIP3    H231047   0.049   0.899   3.364  0.3923 -3.2772  0.6873
 3186TIP3   OH231048   0.177   0.318  12.655  0.2768  0.2324 -0.3241
 3186TIP3    H131049   0.188   0.368  12.735 -0.9582  0.2639 -0.1637
 3186TIP3    H231050   0.085   0.294  12.653  0.9116 -2.5783 -0.0887
 3187TIP3   OH231051   3.509   6.270   4.170 -0.1042 -0.3366  0.0812
 3187TIP3    H131052   3.479   6.216   4.243 -0.3950 -0.7648 -0.3523
 3187TIP3    H231053   3.604   6.259   4.170 -0.0671 -0.0475  0.6181
 3188TIP3   OH231054   3.888   4.616   1.199 -0.6820 -0.2587 -0.1766
 3188TIP3    H131055   3.891   4.710   1.183  0.7007 -0.1682  0.5029
 3188TIP3    H231056   3.795   4.598   1.215 -0.8401  1.1796  0.7596
 3189TIP3   OH231057   2.593   2.597  11.121 -0.0878  0.5780  0.5822
 3189TIP3    H131058   2.523   2.619  11.060 -0.3958  2.7120  1.6147
 3189TIP3    H231059   2.639   2.525  11.079 -1.1838  0.9710 -1.4432
 3190TIP3   OH231060   6.748   4.971   2.346 -0.0067 -0.8246 -0.8879
 3190TIP3    H131061   6.825   5.003   2.299 -0.7518 -1.7280 -2.8468
 3190TIP3    H231062   6.741   5.029   2.422  1.8691  0.0596 -1.3222
 3191TIP3   OH231063   5.106   3.692   5.615  0.2032 -0.1442  0.2819
 3191TIP3    H131064   5.071   3.759   5.557  1.7150  1.6400  1.2983
 3191TIP3    H231065   5.092   3.728   5.703  2.1695 -0.5257  0.8058
 3192TIP3   OH231066   5.122   4.642   1.223 -0.0887  0.7243  0.0777
 3192TIP3    H131067   5.147   4.729   1.190  0.4378  1.0846  1.3649
 3192TIP3    H231068   5.203   4.592   1.222 -0.5872 -0.1068 -1.6262
 3193TIP3   OH231069   4.706   2.393  15.491  0.1909 -0.1907 -0.0320
 3193TIP3    H131070   4.658   2.330  15.545  2.3392 -1.1478  0.8489
 3193TIP3    H231071   4.727   2.465  15.551 -3.3149  2.1730 -1.2942
 3194TIP3   OH231072   1.320   4.188  14.589  0.0032 -0.1132  0.3726
 3194TIP3    H131073   1.226   4.175  14.604 -0.0774  1.6434  1.7146
 3194TIP3    H231074   1.357   4.198  14.676  0.8421  2.7433 -0.2074
 3195TIP3   OH231075   1.038   6.665  16.553  0.5568 -0.2775 -0.3173
 3195TIP3    H131076   1.028   6.719  16.631 -0.7574 -0.0238 -0.6362
 3195TIP3    H231077   1.076   6.583  16.585 -0.0745 -0.2266  0.6220
 3196TIP3   OH231078   3.236   2.424   5.636  0.6597 -0.4572 -0.2503
 3196TIP3    H131079   3.277   2.401   5.719  0.8414  1.3283  0.2099
 3196TIP3    H231080   3.151   2.379   5.637  1.6007 -2.2928 -0.1629
 3197TIP3   OH231081   3.940   0.052  16.335 -0.2800  0.0188 -0.3707
 3197TIP3    H131082   4.034   0.040  16.323 -0.3005  1.3662 -2.3346
 3197TIP3    H231083   3.932   0.107  16.413  0.5921  0.3199 -0.4833
 3198TIP3   OH231084   3.493   4.218  13.360  0.5238  0.4902 -0.5321
 3198TIP3    H131085   3.545   4.140  13.377  1.3109  1.3497  1.2713
 3198TIP3    H231086   3.428   4.220  13.430  0.0265  1.0487 -0.9975
 3199TIP3   OH231087   0.821   5.950   3.623 -0.0732 -0.6938 -0.1053
 3199TIP3    H131088   0.869   5.960   3.705  0.1854 -0.8686 -0.2322
 3199TIP3    H231089   0.878   5.991   3.557 -0.0898 -0.9172 -0.2597
 3200TIP3   OH231090   2.215   0.777   5.402 -0.7400  0.4273 -0.4429
 3200TIP3    H131091   2.140   0.728   5.368 -0.4566 -0.8186  0.6195
 3200TIP3    H231092   2.176   0.851   5.449 -1.4064 -0.6829  0.8486
 3201TIP3   OH231093   0.939   0.637   5.144 -0.4336  0.1604  0.1606
 3201TIP3    H131094   0.861   0.583   5.158 -1.0537  0.2304 -2.5455
 3201TIP3    H231095   1.006   0.575   5.117 -0.7873  0.5380 -1.6900
 3202TIP3   OH231096   0.900   5.270  14.989 -0.2347  0.8965  0.0372
 3202TIP3    H131097   0.973   5.241  15.044 -1.1070  0.4878  1.0019
 3202TIP3    H231098   0.933   5.263  14.899  0.2691 -1.1828  0.3362
 3203TIP3   OH231099   4.589   6.732  14.398  0.0129 -0.3699 -0.7765
 3203TIP3    H131100   4.545   6.697  14.321 -0.7267 -0.2973 -0.4016
 3203TIP3    H231101   4.518   6.745  14.462  0.5928 -0.3018 -0.1379
 3204TIP3   OH231102   6.765   0.378   5.133 -0.1901 -0.4076  0.3624
 3204TIP3    H131103   6.785   0.402   5.043  0.5434 -0.4868  0.4969
 3204TIP3    H231104   6.670   0.374   5.136 -0.2011 -2.0935 -0.8499
 3205TIP3   OH231105   6.618   1.900  11.145 -0.1444  0.1408 -0.0200
 3205TIP3    H131106   6.579   1.908  11.058  0.2583  0.4998 -0.1713
 3205TIP3    H231107   6.598   1.811  11.172 -0.8492  0.2361 -0.2023
 3206TIP3   OH231108   0.757   2.135  13.159 -0.2517 -0.3813 -0.2745
 3206TIP3    H131109   0.781   2.213  13.109 -1.7273  0.7563  0.7332
 3206TIP3    H231110   0.841   2.096  13.184  0.5170 -0.0681 -2.1894
 3207TIP3   OH231111   0.087   3.127   5.016  0.1918  0.9318  0.1763
 3207TIP3    H131112   0.023   3.057   5.012  1.2203 -0.1373  1.4706
 3207TIP3    H231113   0.066   3.183   4.941 -1.2835 -0.1917 -0.2995
 3208TIP3   OH231114   5.476   0.629  16.244  0.4353  0.0553  0.3820
 3208TIP3    H131115   5.410   0.576  16.199 -1.7088  2.3777  0.5642
 3208TIP3    H231116   5.558   0.606  16.202 -0.4680 -2.7507 -0.0819
 3209TIP3   OH231117   1.866   2.616  12.852 -0.1016  0.2815  0.4666
 3209TIP3    H131118   1.866   2.567  12.770 -0.6233 -0.6869  1.0328
 3209TIP3    H231119   1.802   2.685  12.839 -0.7239 -0.3165  0.3065
 3210TIP3   OH231120   6.830   4.569  12.502  0.2232 -0.0334 -0.6536
 3210TIP3    H131121   6.766   4.566  12.573  2.1671  2.4070  1.4154
 3210TIP3    H231122   6.875   4.484  12.507 -0.5060 -0.3892  0.1948
 3211TIP3   OH231123   3.100   6.299  14.496 -0.3353 -0.2583  0.5545
 3211TIP3    H131124   3.015   6.256  14.484 -1.5384  1.8505  1.0879
 3211TIP3    H231125   3.083   6.391  14.479  1.7893  0.2679  1.0195
 3212TIP3   OH231126   0.826   6.704  14.873 -0.1576 -0.4079 -0.8555
 3212TIP3    H131127   0.898   6.737  14.926 -0.3250 -0.3695 -0.6498
 3212TIP3    H231128   0.784   6.637  14.927 -1.3328  0.7698 -0.2608
 3213TIP3   OH231129   3.483   6.000  14.341  0.3788 -0.3844 -0.3320
 3213TIP3    H131130   3.459   6.036  14.255 -1.6772 -0.9838 -0.0652
 3213TIP3    H231131   3.468   6.073  14.401 -2.2897 -1.1097  0.0059
 3214TIP3   OH231132   2.134   4.133   2.249 -0.6381 -0.1307 -0.1041
 3214TIP3    H131133   2.166   4.175   2.328  0.0913  2.2356 -1.5473
 3214TIP3    H231134   2.055   4.086   2.276  0.5380 -0.8343  2.3043
 3215TIP3   OH231135   3.370   3.272   1.416 -0.9847  0.6448  0.2473
 3215TIP3    H131136   3.315   3.268   1.495 -3.1990 -1.0530 -1.2376
 3215TIP3    H231137   3.366   3.183   1.381  2.8473  0.4183  0.0225
 3216TIP3   OH231138   4.086   2.666   4.326 -0.2774  0.6714 -0.3588
 3216TIP3    H131139   4.037   2.639   4.249  0.4606  0.9077 -0.9257
 3216TIP3    H231140   4.026   2.722   4.375 -1.6281 -1.4413  0.5322
 3217TIP3   OH231141   3.269   3.323   3.352 -0.2059 -0.2818 -0.0991
 3217TIP3    H131142   3.357   3.285   3.360 -0.8009 -2.0473 -1.2436
 3217TIP3    H231143   3.282   3.417   3.367  2.1208 -0.2587 -1.6334
 3218TIP3   OH231144   3.268   1.372   4.415  0.1752 -0.2050 -0.8041
 3218TIP3    H131145   3.307   1.435   4.475 -0.5446  1.4185 -1.9610
 3218TIP3    H231146   3.180   1.358   4.449 -0.4643  1.2170 -1.7602
 3219TIP3   OH231147   4.383   0.550  16.383  0.4917 -0.9975  0.9347
 3219TIP3    H131148   4.435   0.564  16.462  1.1064 -0.3299  0.4240
 3219TIP3    H231149   4.447   0.545  16.313 -0.0819 -1.0128  0.4036
 3220TIP3   OH231150   0.026   5.965   3.405  0.7823 -0.1351  0.1151
 3220TIP3    H131151   0.069   6.038   3.450  0.3796 -0.6200  1.3336
 3220TIP3    H231152   0.098   5.915   3.366  1.0800  0.7481 -0.4966
 3221TIP3   OH231153   3.242   4.302  17.115  0.2720 -0.2990  0.0037
 3221TIP3    H131154   3.199   4.363  17.175 -0.2344  0.6827 -1.3340
 3221TIP3    H231155   3.336   4.311  17.134  0.0927 -0.3146  0.9316
 3222TIP3   OH231156   3.313   5.130   5.326  0.4317  0.3297 -0.3836
 3222TIP3    H131157   3.353   5.213   5.298  0.1598  0.0705 -1.6323
 3222TIP3    H231158   3.370   5.098   5.395  2.1301  0.2215 -1.7463
 3223TIP3   OH231159   1.395   3.142   2.265 -0.1791 -0.0012 -0.1205
 3223TIP3    H131160   1.382   3.163   2.358 -0.1593  1.6463 -0.4569
 3223TIP3    H231161   1.424   3.224   2.226  0.1437 -0.7580 -1.5389
 3224TIP3   OH231162   6.052   2.185   4.915 -0.0301 -0.1727  0.1188
 3224TIP3    H131163   6.036   2.216   4.826  4.1192  0.1656 -0.6847
 3224TIP3    H231164   6.107   2.107   4.904  1.1300  0.2547  2.3633
 3225TIP3   OH231165   1.135   6.397   5.768  0.2629  0.3584 -0.1282
 3225TIP3    H131166   1.173   6.437   5.846  0.3112 -0.2548  0.1689
 3225TIP3    H231167   1.089   6.469   5.724  2.2772  1.2810 -0.8565
 3226TIP3   OH231168   5.551   5.444   3.460 -0.0377  0.1185  0.1606
 3226TIP3    H131169   5.571   5.538   3.458  2.6131 -0.2565  2.5001
 3226TIP3    H231170   5.628   5.402   3.421 -1.6626 -1.1351 -1.8932
 3227TIP3   OH231171   0.189   6.551  15.987  0.1262  0.2752 -0.2421
 3227TIP3    H131172   0.138   6.492  15.931 -0.4500 -0.3496  0.8976
 3227TIP3    H231173   0.188   6.508  16.073 -0.8037  2.2019  0.7756
 3228TIP3   OH231174   4.212   2.143  15.033  0.2229  0.1001  0.0813
 3228TIP3    H131175   4.289   2.117  15.085  0.4928  0.1798 -0.2778
 3228TIP3    H231176   4.150   2.072  15.045  0.0347  0.4104  1.0370
 3229TIP3   OH231177   6.064   3.778  13.002 -0.3686 -1.3922 -0.4742
 3229TIP3    H131178   6.136   3.737  13.049  0.2092 -0.6176 -0.6489
 3229TIP3    H231179   5.985   3.739  13.039  0.0935 -1.2756  0.6651
 3230TIP3   OH231180   6.577   1.000  11.432 -0.3687 -0.6481  0.9821
 3230TIP3    H131181   6.659   0.996  11.481 -0.9356 -0.8243  1.9522
 3230TIP3    H231182   6.556   0.909  11.411  0.9386 -0.4446 -1.4812
 3231TIP3   OH231183   4.558   4.721   2.000 -0.1975 -0.1322  0.4892
 3231TIP3    H131184   4.523   4.764   1.922  0.1173  0.0739  0.4585
 3231TIP3    H231185   4.553   4.787   2.069 -1.1955 -0.5571  0.8472
 3232TIP3   OH231186   2.261   0.005  17.120  0.1723  0.3205  0.0466
 3232TIP3    H131187   2.317   0.077  17.091  0.0980 -0.2984 -1.7722
 3232TIP3    H231188   2.320  -0.052  17.170  0.7163  0.6356 -0.2201
 3233TIP3   OH231189   0.633   2.690   2.208  0.5533  0.0618  0.0642
 3233TIP3    H131190   0.565   2.652   2.152  0.1361 -0.1256  0.6906
 3233TIP3    H231191   0.598   2.775   2.235  1.1617  0.5852 -0.7169
 3234TIP3   OH231192   2.830   3.491   2.906 -0.3105  0.6648  0.0747
 3234TIP3    H131193   2.850   3.574   2.862  1.5240  0.9614  1.3749
 3234TIP3    H231194   2.763   3.513   2.970 -2.2527  0.4308 -1.7635
 3235TIP3   OH231195   3.439   2.232   3.722  0.8957  0.0376  0.2164
 3235TIP3    H131196   3.517   2.177   3.722  2.1900  1.7648  0.3885
 3235TIP3    H231197   3.461   2.304   3.782  0.1061  1.8053 -1.5175
 3236TIP3   OH231198   0.341   3.723  12.496 -0.3300 -0.5211  0.6222
 3236TIP3    H131199   0.290   3.644  12.480  0.4738 -1.0398  0.5594
 3236TIP3    H231200   0.391   3.703  12.575 -0.4354  0.0839  0.8448
 3237TIP3   OH231201   3.775   4.026  15.048 -0.7228  0.1126  0.7595
 3237TIP3    H131202   3.725   4.059  14.972 -0.4994 -0.0450  0.5441
 3237TIP3    H231203   3.712   4.030  15.120 -1.1302 -0.3258  0.4345
 3238TIP3   OH231204   3.683   6.691  11.820  0.1917  0.4270  0.3103
 3238TIP3    H131205   3.769   6.715  11.784  0.2826 -1.1895 -0.6813
 3238TIP3    H231206   3.639   6.774  11.835  2.0258  1.3246  1.1126
 3239TIP3   OH231207   5.027   3.341   3.460  0.0357  0.5932 -0.0814
 3239TIP3    H131208   4.990   3.411   3.514 -0.9606 -0.1540  0.2207
 3239TIP3    H231209   5.025   3.376   3.371  0.1052  1.1792  0.1429
 3240TIP3   OH231210   1.011   3.808   1.190  0.6658  0.0193 -0.1545
 3240TIP3    H131211   0.997   3.898   1.220 -0.7876 -0.1952 -0.1121
 3240TIP3    H231212   0.930   3.785   1.146  0.1617 -1.9809  1.6483
 3241TIP3   OH231213   0.494   4.093  13.781 -0.1717  0.3835 -0.5316
 3241TIP3    H131214   0.481   4.110  13.874  0.4495  1.8261 -0.6745
 3241TIP3    H231215   0.412   4.054  13.751  0.5562 -2.7840  1.1559
 3242TIP3   OH231216   5.188   3.078   6.262 -0.1553 -0.7913 -0.0994
 3242TIP3    H131217   5.254   3.137   6.226 -1.9046  1.1709 -0.2898
 3242TIP3    H231218   5.164   3.021   6.190  0.0071 -0.2842 -0.5593
 3243TIP3   OH231219   2.834   1.244  16.308  0.3419  0.1370  0.1350
 3243TIP3    H131220   2.902   1.216  16.248  0.2810  0.5982 -0.1562
 3243TIP3    H231221   2.821   1.337  16.288 -1.5053 -0.3142 -0.9220
 3244TIP3   OH231222   1.616   4.537   6.599  0.0520  0.0153  0.4119
 3244TIP3    H131223   1.535   4.560   6.552 -0.1843 -0.8904  0.3701
 3244TIP3    H231224   1.686   4.558   6.537 -0.2916 -2.0664 -0.7641
 3245TIP3   OH231225   4.019   0.459   0.909 -0.2394  0.3898  0.4860
 3245TIP3    H131226   3.950   0.394   0.922  0.2690 -0.2521  0.0722
 3245TIP3    H231227   4.081   0.443   0.981 -0.4825  0.9197  0.8191
 3246TIP3   OH231228   3.965   1.783  11.311 -0.5355  0.1469 -0.5455
 3246TIP3    H131229   3.898   1.739  11.258 -1.7785  0.3038  0.8350
 3246TIP3    H231230   3.954   1.747  11.398  0.9738  0.4460 -0.2091
 3247TIP3   OH231231   5.163   0.555   0.018 -0.0719  0.1525  0.3444
 3247TIP3    H131232   5.072   0.530   0.001 -0.2944  1.5676 -0.7276
 3247TIP3    H231233   5.170   0.559   0.113 -0.5055 -2.0380  0.5337
 3248TIP3   OH231234   4.706   0.725  15.954  0.2618 -0.1363 -0.4286
 3248TIP3    H131235   4.627   0.778  15.944  1.5084  2.3237  1.5385
 3248TIP3    H231236   4.727   0.697  15.865 -1.3154  1.4468 -1.3824
 3249TIP3   OH231237   3.828   0.446  16.747 -0.0340 -0.8529 -0.1481
 3249TIP3    H131238   3.759   0.381  16.765 -0.6686 -0.0885  0.2064
 3249TIP3    H231239   3.891   0.433  16.818  0.5247 -1.9729 -0.8095
 3250TIP3   OH231240   2.880   2.813   3.322 -0.1099  0.3318  0.0956
 3250TIP3    H131241   2.802   2.820   3.267  0.1559 -0.0377 -0.3335
 3250TIP3    H231242   2.876   2.724   3.359 -1.0711  1.0618  1.8769
 3251TIP3   OH231243   5.801   6.334  12.007  0.2019  0.1624  1.0470
 3251TIP3    H131244   5.885   6.320  11.962 -1.2461  0.8824 -2.1820
 3251TIP3    H231245   5.816   6.412  12.060  1.2746  1.0974 -0.5272
 3252TIP3   OH231246   4.657   5.726   5.762 -0.6249  0.1436 -0.2726
 3252TIP3    H131247   4.725   5.722   5.695 -0.1184 -1.3713  0.2724
 3252TIP3    H231248   4.686   5.664   5.829 -2.5830 -0.6212 -0.0586
 3253TIP3   OH231249   0.874   0.448  11.849 -0.1649  0.1400 -0.3118
 3253TIP3    H131250   0.968   0.450  11.866 -0.3603 -0.4096  0.9491
 3253TIP3    H231251   0.844   0.536  11.873 -0.0258  0.2123 -0.4033
 3254TIP3   OH231252   1.563   3.324  13.240 -0.2209 -0.1261  0.1527
 3254TIP3    H131253   1.526   3.243  13.277  0.3132 -0.4507 -0.0098
 3254TIP3    H231254   1.494   3.358  13.184 -1.8101  1.3829  2.8076
 3255TIP3   OH231255   0.694   5.851   2.410 -0.2820  0.0140 -0.1830
 3255TIP3    H131256   0.780   5.873   2.377  0.3234 -0.3691  1.0533
 3255TIP3    H231257   0.634   5.910   2.365  0.7150  0.8067 -0.4906
 3256TIP3   OH231258   5.059   6.816  13.240  0.8640 -0.4314  0.1275
 3256TIP3    H131259   5.064   6.858  13.326 -0.3385 -0.7538  0.3677
 3256TIP3    H231260   5.079   6.724  13.257  0.1315 -0.5891  0.1417
 3257TIP3   OH231261   4.331   1.033  14.690 -0.0578 -0.9495 -0.6134
 3257TIP3    H131262   4.389   0.982  14.747  1.2415 -0.8712 -1.8071
 3257TIP3    H231263   4.243   1.010  14.719  0.4996 -3.0627 -0.4150
 3258TIP3   OH231264   2.043   2.891   1.197  0.3222  0.2405 -0.2077
 3258TIP3    H131265   1.980   2.844   1.252  2.1289  0.0970  1.9109
 3258TIP3    H231266   2.073   2.826   1.134 -2.4288  0.6355 -2.0916
 3259TIP3   OH231267   0.330   4.589  10.613 -0.6162  0.2080 -0.2361
 3259TIP3    H131268   0.308   4.682  10.611  3.1072  1.2279 -0.7961
 3259TIP3    H231269   0.315   4.563  10.704 -1.0360  1.5322  0.0963
 3260TIP3   OH231270   6.206   6.029  13.714  0.0912 -0.0929  0.3570
 3260TIP3    H131271   6.263   5.961  13.676 -0.6905 -0.5118 -0.0956
 3260TIP3    H231272   6.264   6.080  13.771  0.9689 -0.3708 -0.2639
 3261TIP3   OH231273   5.692   6.009   0.830 -0.2431  0.1017 -0.0858
 3261TIP3    H131274   5.606   6.050   0.822 -0.7100 -0.7991  0.2147
 3261TIP3    H231275   5.673   5.919   0.855  0.7708 -0.2731 -0.6431
 3262TIP3   OH231276   3.958   6.778   2.921 -0.0985 -0.7312 -0.0652
 3262TIP3    H131277   4.042   6.818   2.902 -0.2019 -0.3601  0.2444
 3262TIP3    H231278   3.963   6.691   2.881  0.9102 -1.1999  1.0089
 3263TIP3   OH231279   5.827   0.485  14.738 -0.2248  0.6495 -0.1171
 3263TIP3    H131280   5.888   0.555  14.713  1.7202 -1.1934 -0.7894
 3263TIP3    H231281   5.828   0.425  14.664 -1.0811 -0.6095  0.8526
 3264TIP3   OH231282   1.610   2.278   3.310  0.0975 -0.2205  0.2777
 3264TIP3    H131283   1.565   2.201   3.276 -1.0483  1.1079 -1.3548
 3264TIP3    H231284   1.688   2.286   3.254 -0.1141  0.1606  0.0385
 3265TIP3   OH231285   6.604   2.277  13.291 -0.5288 -0.9682  0.2306
 3265TIP3    H131286   6.642   2.198  13.330  2.1116  1.7441  3.8591
 3265TIP3    H231287   6.537   2.305  13.354  0.1140  0.7604  0.2147
 3266TIP3   OH231288   2.001   6.545  16.549 -0.4243 -0.5013 -0.5488
 3266TIP3    H131289   1.923   6.552  16.494 -0.2012  2.1118 -0.6691
 3266TIP3    H231290   2.012   6.632  16.586  1.6671 -1.1657  0.5579
 3267TIP3   OH231291   4.709   2.067   5.466  0.4944  0.4024  0.2620
 3267TIP3    H131292   4.654   2.016   5.407  1.4865  0.4530 -0.7217
 3267TIP3    H231293   4.668   2.056   5.552 -1.3409  0.8524 -0.5030
 3268TIP3   OH231294   0.007   4.860  13.765 -0.7615  1.3374 -0.3205
 3268TIP3    H131295  -0.081   4.867  13.729 -0.7165  0.9456 -0.5102
 3268TIP3    H231296   0.056   4.930  13.723 -1.1906  2.1103  0.4198
 3269TIP3   OH231297   5.195   1.984   2.633  0.0748  0.3413  0.0613
 3269TIP3    H131298   5.219   1.941   2.551 -0.2190 -1.1989  0.7412
 3269TIP3    H231299   5.270   2.039   2.654  0.4603  0.1826 -0.8590
 3270TIP3   OH231300   2.314   1.282   2.481  0.2197  0.5056  0.5163
 3270TIP3    H131301   2.400   1.272   2.439  0.3405  1.7076  0.4420
 3270TIP3    H231302   2.251   1.270   2.409  0.4163  2.1626  0.0222
 3271TIP3   OH231303   6.549   2.525   0.727  0.3690 -0.5467  1.1395
 3271TIP3    H131304   6.580   2.465   0.794 -1.1861 -1.8551  0.7504
 3271TIP3    H231305   6.511   2.598   0.777  2.1111  0.1030  1.6099
 3272TIP3   OH231306   6.060   5.202   2.009  0.1641  0.2788 -0.0423
 3272TIP3    H131307   5.978   5.230   2.049  0.8104 -0.2515  1.7399
 3272TIP3    H231308   6.032   5.152   1.931 -1.2544 -0.7559  1.0695
 3273TIP3   OH231309   4.670   6.616  16.994 -0.3010  0.1880 -0.0557
 3273TIP3    H131310   4.742   6.630  17.056 -1.5973 -0.3607  1.6776
 3273TIP3    H231311   4.696   6.663  16.915  2.3871 -0.8096  0.1425
 3274TIP3   OH231312   4.316   5.963  13.224  0.2667  0.0116 -0.1729
 3274TIP3    H131313   4.308   5.878  13.180  0.3841 -0.8692  1.4015
 3274TIP3    H231314   4.369   6.016  13.165 -0.0073 -0.9235 -1.3035
 3275TIP3   OH231315   2.114   3.862  16.234 -0.6616 -0.5016 -0.2366
 3275TIP3    H131316   2.160   3.940  16.266 -1.2296 -0.7304  1.2459
 3275TIP3    H231317   2.022   3.888  16.231 -0.8679 -1.1184  0.3517
 3276TIP3   OH231318   5.560   6.203  12.741 -0.5215 -0.2351 -0.5818
 3276TIP3    H131319   5.479   6.235  12.780 -0.2402  0.6121 -0.6622
 3276TIP3    H231320   5.601   6.282  12.703  0.4377 -0.6046 -0.3558
 3277TIP3   OH231321   4.203   3.813  16.868  0.2151  0.1617 -0.2323
 3277TIP3    H131322   4.296   3.822  16.890  0.8597 -1.9517 -1.7426
 3277TIP3    H231323   4.178   3.728  16.904 -1.5459  1.2539  1.2838
 3278TIP3   OH231324   4.678   2.528  11.224  0.1014 -0.1509  0.5002
 3278TIP3    H131325   4.627   2.448  11.233 -0.2788  0.1163  0.7672
 3278TIP3    H231326   4.690   2.539  11.130  0.3357 -0.6294  0.4711
 3279TIP3   OH231327   5.046   3.236   5.508 -0.1957 -0.0159 -0.5514
 3279TIP3    H131328   5.069   3.211   5.597 -1.1307  1.7963  0.2486
 3279TIP3    H231329   4.996   3.162   5.474  1.5948 -1.4458 -0.2223
 3280TIP3   OH231330   0.764   3.741   1.067  0.7021 -0.2479  0.3499
 3280TIP3    H131331   0.720   3.732   1.151  0.7613 -1.3015  0.2813
 3280TIP3    H231332   0.729   3.822   1.030 -0.0643 -0.2972  0.9423
 3281TIP3   OH231333   1.994   4.687   3.398  0.0364  0.7745 -0.1226
 3281TIP3    H131334   1.900   4.676   3.414  0.0336 -0.1793 -0.6721
 3281TIP3    H231335   2.005   4.780   3.379 -0.6393  1.0735  0.9149
 3282TIP3   OH231336   5.280   5.181  12.856  0.1309  0.0697  0.2237
 3282TIP3    H131337   5.242   5.177  12.944  1.2631  4.9392  1.2423
 3282TIP3    H231338   5.368   5.146  12.866 -0.1691 -0.5770  0.6838
 3283TIP3   OH231339   0.520   4.104  12.803  0.1951  0.3895 -0.0516
 3283TIP3    H131340   0.521   4.181  12.860  2.2018  1.0788 -0.8943
 3283TIP3    H231341   0.612   4.091  12.780 -0.4091 -0.5344 -2.2094
 3284TIP3   OH231342   6.253   4.151  11.102 -0.0364 -0.1154  0.4735
 3284TIP3    H131343   6.225   4.114  11.018 -1.4626  2.0554 -0.0816
 3284TIP3    H231344   6.230   4.084  11.166 -2.2701 -0.3835 -0.5100
 3285TIP3   OH231345   0.188   3.836  15.518  0.3416 -0.2460 -0.0459
 3285TIP3    H131346   0.281   3.814  15.524 -0.0367 -1.7073  1.0799
 3285TIP3    H231347   0.155   3.824  15.607 -0.8418  0.7320 -0.3262
 3286TIP3   OH231348   0.148   1.583   2.088  0.4856 -0.2634 -0.2182
 3286TIP3    H131349   0.192   1.624   2.013 -0.6641 -0.3726 -0.9876
 3286TIP3    H231350   0.075   1.535   2.049  0.7193 -1.5334  0.8459
 3287TIP3   OH231351   2.032   5.853  12.199  0.8367  0.3667 -0.1686
 3287TIP3    H131352   2.039   5.784  12.133 -2.9281  0.5118 -1.0020
 3287TIP3    H231353   1.974   5.918  12.158 -2.3161  0.1349  3.3892
 3288TIP3   OH231354   3.471   6.321   1.186  0.4906  0.2750 -0.1863
 3288TIP3    H131355   3.391   6.362   1.218 -0.1842 -0.5607 -0.7771
 3288TIP3    H231356   3.519   6.299   1.266  0.4339  1.3344  0.1605
 3289TIP3   OH231357   2.347   1.559   1.605  0.2209 -0.0234  0.3855
 3289TIP3    H131358   2.377   1.568   1.696  0.2005  0.2621  0.3665
 3289TIP3    H231359   2.396   1.485   1.571  1.4460  0.8692  0.1364
 3290TIP3   OH231360   6.433   1.408   2.356 -0.2756  0.3495 -0.1473
 3290TIP3    H131361   6.443   1.339   2.421  0.9985  1.9154  1.4224
 3290TIP3    H231362   6.339   1.410   2.338 -0.6508 -0.2473  1.5476
 3291TIP3   OH231363   4.954   3.039  12.493 -0.1409 -0.1056  0.0560
 3291TIP3    H131364   4.876   3.043  12.439  1.6487  0.2975 -2.6580
 3291TIP3    H231365   4.968   2.945  12.508 -0.9860 -0.1882  0.3635
 3292TIP3   OH231366   6.320   5.271  15.981 -0.3163 -0.0604 -0.1233
 3292TIP3    H131367   6.321   5.203  16.049  0.0109  0.8955  0.8579
 3292TIP3    H231368   6.409   5.271  15.945  0.4232  1.4571  1.5668
 3293TIP3   OH231369   1.273   3.953  15.011  0.5239 -0.0087 -0.0213
 3293TIP3    H131370   1.193   3.902  15.003 -0.9111  1.9392  0.9753
 3293TIP3    H231371   1.316   3.918  15.089 -0.6605  0.5289  0.9042
 3294TIP3   OH231372   5.465   3.399   2.673 -0.2669  0.1459 -0.2544
 3294TIP3    H131373   5.504   3.414   2.587  0.2233 -0.2039 -0.0987
 3294TIP3    H231374   5.377   3.437   2.667 -0.5665 -0.6620 -1.2008
 3295TIP3   OH231375   1.037   0.215  11.687  0.5965 -0.1821 -0.2471
 3295TIP3    H131376   1.001   0.275  11.621  0.8061  2.4566  1.8378
 3295TIP3    H231377   1.131   0.219  11.674  0.6816  0.8392  0.5243
 3296TIP3   OH231378   6.308   6.125  11.576 -0.1218  0.0256  0.0782
 3296TIP3    H131379   6.397   6.126  11.610 -0.4059  0.4150  0.8481
 3296TIP3    H231380   6.301   6.206  11.525 -0.2024  0.2901  0.4992
 3297TIP3   OH231381   1.002   0.555  13.360 -0.0648 -0.2712 -0.2588
 3297TIP3    H131382   0.984   0.633  13.309  1.2562 -0.0795 -0.4755
 3297TIP3    H231383   0.990   0.482  13.298 -2.5234 -0.3794  0.2600
 3298TIP3   OH231384   0.689   5.876   0.222 -0.3154  0.8208  0.0364
 3298TIP3    H131385   0.602   5.880   0.263  0.3901  0.6679  1.6146
 3298TIP3    H231386   0.714   5.968   0.210 -1.1731  0.8821 -1.5612
 3299TIP3   OH231387   1.564   3.605  11.755 -0.1176 -0.2978  0.2844
 3299TIP3    H131388   1.609   3.598  11.671 -1.4782 -0.4403 -0.4614
 3299TIP3    H231389   1.614   3.672  11.803  1.1187 -0.7528 -0.3167
 3300TIP3   OH231390   5.469   3.596   3.006 -0.5955 -0.1249  0.6350
 3300TIP3    H131391   5.544   3.654   3.021  0.8903 -2.0548  1.0577
 3300TIP3    H231392   5.506   3.508   3.008 -2.5361 -1.0737 -1.4308
 3301TIP3   OH231393   1.268   1.116  13.431  0.0144 -0.0283 -0.2453
 3301TIP3    H131394   1.257   1.028  13.395  2.3335  0.4987 -2.4844
 3301TIP3    H231395   1.359   1.118  13.462 -0.0339  1.5561 -0.1285
 3302TIP3   OH231396   3.345   3.159  11.699  0.4656  0.4008 -0.2707
 3302TIP3    H131397   3.266   3.117  11.666 -0.4710  0.9886  1.1577
 3302TIP3    H231398   3.405   3.086  11.716 -0.2372 -0.1542 -0.1338
 3303TIP3   OH231399   3.700   5.544   6.248 -0.0276 -0.4658 -0.2963
 3303TIP3    H131400   3.703   5.463   6.196  4.6778 -1.3282  0.8506
 3303TIP3    H231401   3.708   5.515   6.339  0.4360  1.2370  0.2505
 3304TIP3   OH231402   0.820   6.469  13.879  0.1754  0.3691  0.3374
 3304TIP3    H131403   0.873   6.433  13.808 -0.5173  2.8335 -1.5987
 3304TIP3    H231404   0.751   6.405  13.892  2.3570 -1.9178  1.4828
 3305TIP3   OH231405   0.654   3.147  16.114  0.2488 -0.3536 -0.7342
 3305TIP3    H131406   0.595   3.220  16.097 -0.6236 -1.1130 -1.0622
 3305TIP3    H231407   0.722   3.155  16.047  0.6276  0.6204 -0.2557
 3306TIP3   OH231408   3.381   3.978  16.458 -0.1686  0.2449 -0.1538
 3306TIP3    H131409   3.402   3.892  16.495  1.0111 -0.1069 -1.5527
 3306TIP3    H231410   3.286   3.976  16.447 -0.2042 -0.7462  0.1844
 3307TIP3   OH231411   6.494   2.258   5.776 -0.8176  0.6932 -0.5530
 3307TIP3    H131412   6.482   2.218   5.862 -2.8560  3.1090  0.4050
 3307TIP3    H231413   6.571   2.314   5.786 -0.2486 -0.0344 -0.7498
 3308TIP3   OH231414   4.433   0.605   5.262  0.4191  0.4439  0.0232
 3308TIP3    H131415   4.497   0.671   5.233  1.8345 -0.4098  1.0716
 3308TIP3    H231416   4.485   0.526   5.275 -1.2174 -0.8561 -1.0167
 3309TIP3   OH231417   4.965   4.027   0.281 -0.0042  0.2973  0.2949
 3309TIP3    H131418   4.923   4.110   0.303 -0.8409  0.1999 -0.8568
 3309TIP3    H231419   4.912   3.991   0.210  0.7205 -0.9234  0.3415
 3310TIP3   OH231420   2.496   6.729   2.173 -0.1865  0.6046  0.3793
 3310TIP3    H131421   2.523   6.648   2.216 -1.1479  0.1999  0.2437
 3310TIP3    H231422   2.453   6.700   2.093 -0.6726  1.2388  0.4059
 3311TIP3   OH231423   5.120   4.673   3.521  0.4826 -0.6581 -0.5091
 3311TIP3    H131424   5.053   4.727   3.563  0.2661  0.1251 -1.7944
 3311TIP3    H231425   5.076   4.635   3.444  1.0306 -1.5453 -0.4030
 3312TIP3   OH231426   4.897   1.109  12.145  0.5899 -0.4448 -0.9235
 3312TIP3    H131427   4.877   1.199  12.172  2.9448  0.0497 -0.5967
 3312TIP3    H231428   4.839   1.093  12.071 -0.2217  1.1853 -0.6820
 3313TIP3   OH231429   2.191   2.481  17.076  0.3451  0.4141  0.3152
 3313TIP3    H131430   2.146   2.416  17.021 -1.0893  0.6757  1.1349
 3313TIP3    H231431   2.166   2.457  17.165  1.0679  1.1705  0.7242
 3314TIP3   OH231432   6.816   2.967   6.564 -0.6657 -0.1581 -0.4170
 3314TIP3    H131433   6.837   3.045   6.616  3.0844 -0.9640 -0.3860
 3314TIP3    H231434   6.797   2.899   6.629 -0.4679 -0.0828 -0.2800
 3315TIP3   OH231435   5.307   0.456  15.584 -0.3807  0.3087  0.3587
 3315TIP3    H131436   5.349   0.392  15.641 -1.2406  0.3681  1.0832
 3315TIP3    H231437   5.288   0.531  15.641 -0.0532  0.9216 -0.3111
 3316TIP3   OH231438   4.968   5.766  11.212 -0.0275  0.0889  0.1070
 3316TIP3    H131439   4.963   5.860  11.232 -1.8131  0.3471 -1.2569
 3316TIP3    H231440   5.018   5.762  11.131 -0.9099 -0.0066 -0.4441
 3317TIP3   OH231441   2.102   3.191  15.560 -0.0174  0.3226  0.1150
 3317TIP3    H131442   2.179   3.212  15.507 -0.6381  2.9483  0.1191
 3317TIP3    H231443   2.137   3.165  15.645  0.8855 -0.0363 -0.3561
 3318TIP3   OH231444   0.268   4.537   5.852  0.0105  0.0498  0.1485
 3318TIP3    H131445   0.361   4.523   5.869  0.1245 -0.9873 -1.2300
 3318TIP3    H231446   0.237   4.584   5.930  1.6670  0.4082  0.6358
 3319TIP3   OH231447   4.054   6.520  13.295 -0.2739 -0.0161 -0.5302
 3319TIP3    H131448   4.042   6.558  13.208  0.3947 -0.1113 -0.6737
 3319TIP3    H231449   4.147   6.499  13.298 -0.7072 -2.1344 -0.6475
 3320TIP3   OH231450   2.437   1.363   2.080  0.4554 -0.0551 -0.7396
 3320TIP3    H131451   2.457   1.269   2.085  2.0912  0.2261 -1.3210
 3320TIP3    H231452   2.475   1.400   2.160  0.2809  0.1903 -0.7700
 3321TIP3   OH231453   3.368   3.699   0.856  0.4292 -0.1963  0.2473
 3321TIP3    H131454   3.322   3.616   0.843  0.0049  0.0429  0.1883
 3321TIP3    H231455   3.439   3.678   0.917  0.1845 -0.5515  0.4152
 3322TIP3   OH231456   6.698   0.562   4.225  0.0655 -0.0166  0.0665
 3322TIP3    H131457   6.703   0.471   4.197 -0.9462 -0.4087  1.1180
 3322TIP3    H231458   6.719   0.560   4.318 -1.5164  0.6014  0.4601
 3323TIP3   OH231459   5.662   3.677   3.219 -0.6792 -0.1413 -0.2973
 3323TIP3    H131460   5.744   3.726   3.211 -0.8736  0.0458 -1.1834
 3323TIP3    H231461   5.690   3.586   3.232 -0.3098 -0.2390 -1.6190
 3324TIP3   OH231462   4.213   6.484  14.419  0.2646  0.1088  0.3263
 3324TIP3    H131463   4.118   6.495  14.418  0.2528 -0.0237  0.0235
 3324TIP3    H231464   4.234   6.447  14.334  0.6530  0.6594  0.1803
 3325TIP3   OH231465   4.092   5.359   3.471  0.1086  0.2791  0.4307
 3325TIP3    H131466   4.009   5.406   3.476 -0.8721 -1.3692  0.3683
 3325TIP3    H231467   4.152   5.409   3.527 -0.8794  1.5527  0.3912
 3326TIP3   OH231468   2.402   5.650   3.108  0.4755  0.1137 -0.1566
 3326TIP3    H131469   2.358   5.694   3.036  0.4236  2.1176  1.0290
 3326TIP3    H231470   2.408   5.716   3.177  2.0317 -1.2140  1.0701
 3327TIP3   OH231471   3.007   0.702  15.504 -0.0607 -0.5783 -0.6073
 3327TIP3    H131472   2.948   0.717  15.430 -0.0437  1.2794 -0.2835
 3327TIP3    H231473   2.951   0.663  15.572 -0.9733  1.1293 -0.3126
 3328TIP3   OH231474   1.917   6.229  14.192  0.2760  0.5070  0.0569
 3328TIP3    H131475   1.972   6.192  14.123  0.4472 -0.5836  0.7465
 3328TIP3    H231476   1.971   6.298  14.231  0.5264  0.5261 -0.3166
 3329TIP3   OH231477   2.450   6.292   1.681  0.1763  0.0671  0.1932
 3329TIP3    H131478   2.431   6.212   1.730  0.1026 -0.2489 -0.3454
 3329TIP3    H231479   2.466   6.262   1.592  2.2702  0.4215  0.3986
 3330TIP3   OH231480   6.185   5.935  11.319 -0.5613 -0.0662 -0.2917
 3330TIP3    H131481   6.162   5.939  11.227 -1.4839 -0.2430 -0.0795
 3330TIP3    H231482   6.226   6.019  11.338 -0.3219 -0.0497 -0.8698
 3331TIP3   OH231483   3.234   4.928  15.819  0.0767 -0.6474  0.2281
 3331TIP3    H131484   3.169   4.977  15.869 -1.0755 -1.3166 -0.5781
 3331TIP3    H231485   3.317   4.971  15.839 -0.6476  0.4098  1.0473
 3332TIP3   OH231486   0.703   0.642   4.466 -0.4065  0.1342  0.1062
 3332TIP3    H131487   0.701   0.715   4.405 -0.7831 -0.4476 -0.5909
 3332TIP3    H231488   0.788   0.600   4.451 -0.1826  0.4309  0.5184
 3333TIP3   OH231489   0.483   2.873  10.524 -0.1360  0.0493  0.1396
 3333TIP3    H131490   0.542   2.946  10.544 -0.6511  0.6498 -0.4652
 3333TIP3    H231491   0.517   2.837  10.442 -0.5291  0.3244 -0.1499
 3334TIP3   OH231492   1.318   5.250  13.682  0.2241  0.0431  0.2420
 3334TIP3    H131493   1.295   5.256  13.589 -0.1556  0.2149  0.3443
 3334TIP3    H231494   1.396   5.195  13.684  1.4672  1.6879 -0.3665
 3335TIP3   OH231495   3.619   5.958   0.086  0.5769  0.0457  0.8290
 3335TIP3    H131496   3.526   5.947   0.066  0.1653  3.0810  0.6295
 3335TIP3    H231497   3.661   5.965   0.000  0.3442  2.5913  0.8572
 3336TIP3   OH231498   2.197   5.197   4.284  0.2173 -0.5250  0.2673
 3336TIP3    H131499   2.144   5.277   4.294 -0.3549 -0.7768 -0.5842
 3336TIP3    H231500   2.165   5.158   4.202  1.5927 -0.7947 -0.1617
 3337TIP3   OH231501   1.181   1.786   5.239 -0.7198 -0.0345 -1.2501
 3337TIP3    H131502   1.114   1.851   5.261 -0.7097 -0.5865  0.5098
 3337TIP3    H231503   1.264   1.827   5.263 -0.6983 -0.5975 -0.3149
 3338TIP3   OH231504   5.751   5.313   2.865 -0.3821  0.1950 -0.3315
 3338TIP3    H131505   5.695   5.390   2.879 -2.0207 -0.8145 -1.0155
 3338TIP3    H231506   5.739   5.292   2.772  2.6380  1.0132 -1.0350
 3339TIP3   OH231507   6.281   3.106  12.445  0.2816  0.9049  0.3469
 3339TIP3    H131508   6.314   3.026  12.403  1.3920  1.9141 -0.7559
 3339TIP3    H231509   6.254   3.162  12.373  0.3687  1.8922  1.0614
 3340TIP3   OH231510   4.817   3.018   6.964 -0.1909  0.1388  0.4995
 3340TIP3    H131511   4.851   2.930   6.980  0.1131  0.1854  0.1238
 3340TIP3    H231512   4.825   3.030   6.869  2.5917  1.7002  0.8304
 3341TIP3   OH231513   2.168   6.104   4.787 -0.3999  1.0434 -0.2006
 3341TIP3    H131514   2.137   6.192   4.808 -2.8813  0.1995  0.0020
 3341TIP3    H231515   2.122   6.046   4.849 -1.2416 -0.6551 -2.2722
 3342TIP3   OH231516   6.400   2.972   6.542 -0.1099 -0.0601  0.6837
 3342TIP3    H131517   6.436   2.953   6.455 -0.1346 -2.2245  1.0789
 3342TIP3    H231518   6.474   2.957   6.601 -0.6806 -0.9209  1.2021
 3343TIP3   OH231519   1.952   0.452   0.162  0.3959 -0.2503  0.2033
 3343TIP3    H131520   1.942   0.546   0.146 -0.8749 -0.2735  0.7326
 3343TIP3    H231521   1.991   0.419   0.082  0.8869  0.7320  0.0168
 3344TIP3   OH231522   6.201   5.753   2.137  0.0572  0.0857 -0.8362
 3344TIP3    H131523   6.214   5.781   2.227 -0.6283 -2.4043  0.1224
 3344TIP3    H231524   6.107   5.737   2.130  0.3924 -2.0047 -1.2163
 3345TIP3   OH231525   1.953   3.062  12.198 -0.6686 -0.4688  0.5695
 3345TIP3    H131526   1.966   3.146  12.243 -1.3696  0.8051 -1.4521
 3345TIP3    H231527   2.023   3.060  12.133 -1.3103 -0.9463 -0.1050
 3346TIP3   OH231528   0.442   4.470  13.481 -0.0240 -0.4395 -0.0316
 3346TIP3    H131529   0.385   4.450  13.555 -0.3582  0.0643 -0.1517
 3346TIP3    H231530   0.389   4.526  13.423  0.3857 -0.4554 -0.4288
 3347TIP3   OH231531   0.332   0.805  11.925 -0.0029  0.5764  0.0494
 3347TIP3    H131532   0.283   0.748  11.866 -3.4043  0.6427  2.4992
 3347TIP3    H231533   0.391   0.747  11.972 -0.1157 -0.1233 -0.6590
 3348TIP3   OH231534   3.266   1.140  16.401  0.5037 -0.2381  0.3532
 3348TIP3    H131535   3.270   1.233  16.381  1.3838 -0.0663  1.2485
 3348TIP3    H231536   3.267   1.097  16.316 -3.9977  0.6026 -0.3914
 3349TIP3   OH231537   5.135   3.589  15.548 -0.2760 -0.3589  0.8503
 3349TIP3    H131538   5.176   3.631  15.472 -1.4192 -0.7237 -0.0003
 3349TIP3    H231539   5.110   3.662  15.604 -1.7339  0.1151 -0.3462
 3350TIP3   OH231540   5.367   6.797   1.481 -0.1027  0.1165  0.0408
 3350TIP3    H131541   5.382   6.715   1.435  0.5818  0.1970  0.1090
 3350TIP3    H231542   5.332   6.856   1.414 -1.4263 -0.4690  0.1824
 3351TIP3   OH231543   4.204   5.497   4.151  0.1263 -0.5149  0.2598
 3351TIP3    H131544   4.283   5.543   4.181  1.1310 -1.8105 -0.3161
 3351TIP3    H231545   4.160   5.472   4.232  1.9975 -2.5886  0.7415
 3352TIP3   OH231546   0.316   1.415  12.875 -0.6338  0.1714  0.8409
 3352TIP3    H131547   0.318   1.427  12.970  1.6961 -0.4285  0.9330
 3352TIP3    H231548   0.372   1.339  12.859 -0.4608  0.6385 -1.0586
 3353TIP3   OH231549   5.882   1.895  15.627  0.3729 -0.0191 -0.2523
 3353TIP3    H131550   5.790   1.908  15.650  0.0143  0.3652 -1.8284
 3353TIP3    H231551   5.881   1.867  15.536  1.9366  2.1243 -1.0083
 3354TIP3   OH231552   1.061   6.831   3.483 -0.5579  0.0774  0.1724
 3354TIP3    H131553   1.085   6.913   3.439  0.5480 -0.5366 -0.4291
 3354TIP3    H231554   0.967   6.821   3.467 -0.5513  0.8497 -0.3866
 3355TIP3   OH231555   4.345   6.242   6.559 -0.3325  0.0223 -0.0061
 3355TIP3    H131556   4.412   6.201   6.614 -1.7864 -1.6859  0.5971
 3355TIP3    H231557   4.377   6.331   6.545  1.2679 -0.2294  1.6198
 3356TIP3   OH231558   6.701   3.241  11.091  0.5206 -0.4954  0.5128
 3356TIP3    H131559   6.625   3.196  11.130 -0.2410  1.2480  1.1430
 3356TIP3    H231560   6.662   3.302  11.028  1.4071  0.2826  0.7036
 3357TIP3   OH231561   4.731   2.837   6.126  0.7643  0.2961 -0.4276
 3357TIP3    H131562   4.733   2.914   6.182  3.0289 -0.1942  0.2503
 3357TIP3    H231563   4.703   2.766   6.183  1.0810  0.1664 -0.4332
 3358TIP3   OH231564   6.673   4.201  13.700  0.3004 -0.2335 -0.4304
 3358TIP3    H131565   6.597   4.202  13.758  1.0963  0.8184  0.6277
 3358TIP3    H231566   6.641   4.236  13.617 -0.5208 -0.4758 -0.2214
 3359TIP3   OH231567   0.001   0.809  15.196 -0.3355 -0.1379 -0.2891
 3359TIP3    H131568   0.002   0.727  15.147  1.0391 -0.7730  0.7603
 3359TIP3    H231569  -0.000   0.783  15.288  1.0242  0.9887  0.0869
 3360TIP3   OH231570   3.295   0.104  13.324  0.3873 -0.0309 -0.1695
 3360TIP3    H131571   3.368   0.046  13.347 -1.4292 -1.9193  1.2702
 3360TIP3    H231572   3.294   0.170  13.393  1.5335  0.8647 -0.9706
 3361TIP3   OH231573   6.188   2.711   4.372  0.5603 -0.1061 -0.0605
 3361TIP3    H131574   6.281   2.729   4.378  1.0488 -1.2421 -2.6461
 3361TIP3    H231575   6.171   2.644   4.439  1.4468  0.5271  0.8111
 3362TIP3   OH231576   2.530   0.921  13.814  0.0252 -0.8127 -0.1734
 3362TIP3    H131577   2.457   0.977  13.839  2.2217  2.4787 -0.4610
 3362TIP3    H231578   2.543   0.938  13.721  0.4198 -2.3517 -0.4347
 3363TIP3   OH231579   1.857   0.086   4.897 -0.2452  0.0555 -0.1952
 3363TIP3    H131580   1.915   0.153   4.933  0.3217 -1.2570  1.4940
 3363TIP3    H231581   1.908   0.046   4.827  0.5601 -0.4526  0.6507
 3364TIP3   OH231582   6.696   6.301   5.772  0.9474  0.4420  0.0804
 3364TIP3    H131583   6.609   6.336   5.752  1.5576  1.3536 -1.1317
 3364TIP3    H231584   6.716   6.334   5.859 -0.0654 -0.0928  0.5288
 3365TIP3   OH231585   4.291   0.122  12.762  0.1373  0.0250  0.0293
 3365TIP3    H131586   4.352   0.060  12.802  0.2750 -0.1312 -0.4167
 3365TIP3    H231587   4.321   0.208  12.792  0.4562 -0.0649 -0.0274
 3366TIP3   OH231588   5.786   6.421   4.654 -0.3561  0.3127 -0.0706
 3366TIP3    H131589   5.837   6.356   4.605 -1.2286 -0.0524 -0.5232
 3366TIP3    H231590   5.778   6.495   4.593  1.3123  1.2020  0.7317
 3367TIP3   OH231591   4.161   0.061   1.672  0.4349  0.3186 -0.3886
 3367TIP3    H131592   4.230  -0.003   1.688  0.4140 -0.1264 -1.9703
 3367TIP3    H231593   4.100   0.049   1.744  1.1240 -0.4815  0.0749
 3368TIP3   OH231594   6.840   4.803   1.458 -0.2845 -0.4534 -0.6124
 3368TIP3    H131595   6.813   4.754   1.381  0.2310  0.1264 -1.1694
 3368TIP3    H231596   6.936   4.795   1.460 -0.1854  0.6015 -0.7632
 3369TIP3   OH231597   0.828   4.369   4.644 -0.0606  0.7531 -0.4283
 3369TIP3    H131598   0.871   4.285   4.662  1.7874  1.6557 -0.2804
 3369TIP3    H231599   0.823   4.411   4.730 -0.8790  0.8352 -0.5150
 3370TIP3   OH231600   3.506   1.045  13.842  0.4495  0.4008 -0.2678
 3370TIP3    H131601   3.442   1.057  13.772  0.3208 -0.0287 -0.2317
 3370TIP3    H231602   3.542   1.132  13.857 -2.4625  1.4037  1.9569
 3371TIP3   OH231603   3.388   1.623   2.330 -0.2478 -0.3876  0.4190
 3371TIP3    H131604   3.304   1.669   2.334  0.4058  0.8045  1.1449
 3371TIP3    H231605   3.369   1.542   2.283 -1.6425  0.1936 -0.0738
 3372TIP3   OH231606   5.463   2.556   5.594 -0.5508  0.1807 -0.2363
 3372TIP3    H131607   5.547   2.579   5.634 -1.1548 -0.3882  1.4622
 3372TIP3    H231608   5.484   2.487   5.532  0.0574 -1.3555  1.5697
 3373TIP3   OH231609   3.970   1.996  13.146 -0.6863  0.0387 -0.0645
 3373TIP3    H131610   4.024   2.056  13.095 -1.1281  0.8930  0.4494
 3373TIP3    H231611   4.031   1.951  13.205 -0.2531 -0.5652 -0.9548
 3374TIP3   OH231612   6.090   5.676   0.204 -0.2906 -0.3331  0.2767
 3374TIP3    H131613   6.174   5.710   0.233  0.3228 -1.1311 -0.5317
 3374TIP3    H231614   6.048   5.750   0.159 -0.5710  0.4289  1.7478
 3375TIP3   OH231615   0.015   3.956  16.625  0.3973  0.1567  0.4025
 3375TIP3    H131616  -0.080   3.955  16.637  0.4307 -1.1432  0.6897
 3375TIP3    H231617   0.034   4.042  16.589 -0.8010  0.7113  1.0560
 3376TIP3   OH231618   3.083   0.663   4.149  0.2639  0.2625 -0.2649
 3376TIP3    H131619   3.029   0.706   4.215  0.6624  0.5409 -0.1136
 3376TIP3    H231620   3.149   0.728   4.126 -0.2577  0.4008 -1.4278
 3377TIP3   OH231621   1.386   2.773  16.826  0.0551 -0.1550  0.1358
 3377TIP3    H131622   1.420   2.820  16.749 -0.3224 -1.1723 -0.6730
 3377TIP3    H231623   1.327   2.836  16.868 -0.2289  0.2005 -0.7681
 3378TIP3   OH231624   4.359   2.904   4.429  0.4998 -0.1074  0.2845
 3378TIP3    H131625   4.442   2.944   4.404  0.3433 -0.2491 -0.5203
 3378TIP3    H231626   4.333   2.853   4.351  0.5841 -1.5802  1.1779
 3379TIP3   OH231627   2.588   4.341   2.721 -0.0972  0.2350 -0.2985
 3379TIP3    H131628   2.600   4.433   2.745 -1.2068  0.4873 -0.6348
 3379TIP3    H231629   2.501   4.319   2.756 -0.0798 -0.5169 -0.7115
 3380TIP3   OH231630   0.351   4.372   5.503  0.9810 -0.3582 -0.0370
 3380TIP3    H131631   0.315   4.436   5.442 -2.1035 -2.1289 -0.2784
 3380TIP3    H231632   0.336   4.410   5.589  1.2117  0.1805 -0.2291
 3381TIP3   OH231633   1.178   0.486   6.238 -0.5962 -0.0236 -0.0663
 3381TIP3    H131634   1.091   0.521   6.256 -0.9431 -1.0663  0.3907
 3381TIP3    H231635   1.218   0.476   6.325 -0.3410 -0.3155 -0.2156
 3382TIP3   OH231636   2.259   4.836   1.367  0.4311 -0.5158 -0.8655
 3382TIP3    H131637   2.193   4.793   1.422  0.0314 -0.1021 -1.0112
 3382TIP3    H231638   2.304   4.763   1.324 -0.7558 -0.8025 -1.7044
 3383TIP3   OH231639   5.937   0.094   5.907 -0.4090  0.5292  0.0430
 3383TIP3    H131640   5.848   0.126   5.893 -1.1756 -0.8660  1.5066
 3383TIP3    H231641   5.961   0.127   5.994 -0.1244 -0.4537  0.3464
 3384TIP3   OH231642   3.461   3.701  12.085 -0.2449 -0.2403 -0.4242
 3384TIP3    H131643   3.448   3.695  11.991 -1.0196  1.5619 -0.4774
 3384TIP3    H231644   3.545   3.746  12.095 -0.3405 -0.0955 -0.2637
 3385TIP3   OH231645   1.645   3.324  11.134 -0.0995 -0.2934 -0.7375
 3385TIP3    H131646   1.698   3.321  11.054  1.9106  0.9566  0.4525
 3385TIP3    H231647   1.646   3.234  11.166  1.0224 -0.3799 -0.9611
 3386TIP3   OH231648   0.111   5.802  12.703  0.1731  0.3396  0.0150
 3386TIP3    H131649   0.031   5.787  12.754  0.7096  0.2741  0.8551
 3386TIP3    H231650   0.163   5.862  12.756  1.1581 -0.4738 -0.0042
 3387TIP3   OH231651   0.561   6.163   1.539  0.3910  0.0362 -0.0211
 3387TIP3    H131652   0.559   6.257   1.520 -1.4468  0.2278  0.8936
 3387TIP3    H231653   0.518   6.123   1.463  1.9126 -0.1779 -0.8014
 3388TIP3   OH231654   1.874   1.681  13.278 -0.3834  0.3299  0.3951
 3388TIP3    H131655   1.930   1.757  13.259  0.0368  0.1763  0.9740
 3388TIP3    H231656   1.787   1.718  13.291 -0.2590  0.6711  0.2789
 3389TIP3   OH231657   3.282   1.060   2.644 -0.1243  0.1708 -0.1339
 3389TIP3    H131658   3.358   1.086   2.697  0.9796  0.1936 -1.6684
 3389TIP3    H231659   3.319   1.040   2.558 -1.8871  0.2606 -0.9415
 3390TIP3   OH231660   4.742   1.455  17.034 -0.5604 -0.4246  0.5532
 3390TIP3    H131661   4.679   1.435  17.102 -1.0897 -0.0768  0.1764
 3390TIP3    H231662   4.691   1.501  16.967 -0.5377 -2.6369 -1.0979
 3391TIP3   OH231663   3.168   3.246   5.025 -0.4781  0.8050 -0.1694
 3391TIP3    H131664   3.172   3.341   5.017  1.8115  0.9982  2.0166
 3391TIP3    H231665   3.174   3.230   5.119 -0.6451 -1.5057 -0.5011
 3392TIP3   OH231666   1.482   0.548   1.081  0.3211  0.2407 -0.1072
 3392TIP3    H131667   1.494   0.453   1.070  1.3553  0.4506 -0.8616
 3392TIP3    H231668   1.419   0.572   1.013  0.2794  0.1531 -0.1008
 3393TIP3   OH231669   0.966   1.116   1.694  0.3119  0.3831 -0.0457
 3393TIP3    H131670   0.914   1.040   1.669  2.0620 -1.1861  0.8395
 3393TIP3    H231671   0.918   1.191   1.659 -3.1292 -0.8336  1.6841
 3394TIP3   OH231672   4.753   4.010  13.076  0.4176  0.6750 -0.2119
 3394TIP3    H131673   4.696   4.086  13.076  0.6933  0.8948  0.7219
 3394TIP3    H231674   4.694   3.935  13.083  0.2006  0.8533 -0.1458
 3395TIP3   OH231675   0.397   4.327  15.057  0.3457  0.2223 -0.1888
 3395TIP3    H131676   0.332   4.309  15.124  0.2150  0.9199 -0.1247
 3395TIP3    H231677   0.464   4.379  15.101  1.3375 -1.0892 -0.0587
 3396TIP3   OH231678   2.938   0.223   4.510 -0.4498  0.1384 -0.2851
 3396TIP3    H131679   2.846   0.199   4.519 -0.0990 -0.7887  1.2680
 3396TIP3    H231680   2.986   0.144   4.536  0.7789  0.8637 -0.2622
 3397TIP3   OH231681   2.238   6.610   2.821  0.1127  0.0271 -0.1122
 3397TIP3    H131682   2.157   6.579   2.862 -0.8959  1.1283 -1.1731
 3397TIP3    H231683   2.218   6.614   2.728  1.9594 -1.2630 -0.6119
 3398TIP3   OH231684   5.899   4.218   0.682 -0.1356 -0.1545  0.3823
 3398TIP3    H131685   5.860   4.305   0.686  2.6782  1.2363  0.0387
 3398TIP3    H231686   5.888   4.190   0.591 -1.4247 -0.4242  0.5907
 3399TIP3   OH231687   4.553   0.545  10.851 -0.9770  0.0260 -0.0569
 3399TIP3    H131688   4.466   0.511  10.833 -0.9824 -0.8121  1.3559
 3399TIP3    H231689   4.611   0.470  10.838 -0.3559  0.7337 -1.6029
 3400TIP3   OH231690   1.625   4.389   5.966  0.4470 -0.4982  0.0010
 3400TIP3    H131691   1.627   4.346   6.052  0.8064 -1.5406 -0.5113
 3400TIP3    H231692   1.638   4.482   5.985  2.0282 -0.8814  0.9756
 3401TIP3   OH231693   0.621   5.601  12.103 -0.0773  0.2975  0.1832
 3401TIP3    H131694   0.582   5.522  12.066  0.6473  0.1710 -0.3312
 3401TIP3    H231695   0.660   5.646  12.028 -1.0965  1.5252  0.3408
 3402TIP3   OH231696   4.525   4.002   1.453  0.0267  0.0085  0.2306
 3402TIP3    H131697   4.594   4.023   1.390  0.8642 -0.7181  0.8841
 3402TIP3    H231698   4.460   3.953   1.402  0.7651 -0.7006 -0.0583
 3403TIP3   OH231699   4.394   2.930   6.052  0.2929  0.4840 -0.3814
 3403TIP3    H131700   4.469   2.935   5.993  0.7072  2.7287  0.2488
 3403TIP3    H231701   4.324   2.976   6.006  0.3165  1.3477  0.4322
 3404TIP3   OH231702   0.505   0.720  15.399 -0.0633 -0.0339 -0.5485
 3404TIP3    H131703   0.523   0.812  15.378  0.2656 -0.1407 -0.7366
 3404TIP3    H231704   0.479   0.681  15.315 -1.8314  0.2623 -0.1800
 3405TIP3   OH231705   0.923   2.219   2.800  0.4063  0.5236  0.4156
 3405TIP3    H131706   0.885   2.229   2.887 -0.7740 -0.4009  0.0431
 3405TIP3    H231707   0.944   2.126   2.794 -0.3792  0.3943 -0.5969
 3406TIP3   OH231708   5.162   4.661   2.020  0.5266 -0.1847 -0.0171
 3406TIP3    H131709   5.144   4.618   2.104 -0.5020 -0.1059 -0.1876
 3406TIP3    H231710   5.229   4.727   2.041  2.4899 -2.1034  0.1600
 3407TIP3   OH231711   5.721   2.923   6.056 -0.8559 -0.2973  0.7202
 3407TIP3    H131712   5.673   3.001   6.086 -0.1940  0.0171  0.9920
 3407TIP3    H231713   5.775   2.954   5.984 -0.4040 -0.4388  0.9883
 3408TIP3   OH231714   3.737   4.321   2.833 -0.3761 -0.3923  0.0332
 3408TIP3    H131715   3.809   4.310   2.771 -1.4074 -0.4366 -1.2070
 3408TIP3    H231716   3.757   4.402   2.880 -1.5985  2.1116 -3.3377
 3409TIP3   OH231717   5.022   1.333  16.228 -0.4021  0.8786  0.3951
 3409TIP3    H131718   5.098   1.291  16.269 -1.6415 -1.2940  0.6339
 3409TIP3    H231719   5.028   1.424  16.255  1.3735  0.4914  1.5212
 3410TIP3   OH231720   6.591   2.557   5.848  0.3724 -0.1864  0.2868
 3410TIP3    H131721   6.551   2.547   5.934 -1.6368 -1.0656 -0.7072
 3410TIP3    H231722   6.584   2.650   5.828 -2.2327 -0.4438 -0.2909
 3411TIP3   OH231723   0.520   0.025  10.233  0.6037 -0.1128  0.0221
 3411TIP3    H131724   0.430   0.056  10.230  0.6799  0.0838 -0.5045
 3411TIP3    H231725   0.523  -0.035  10.307  0.2616  0.5494  0.5918
 3412TIP3   OH231726   2.289   3.603  16.091 -0.6222  0.2810 -0.6811
 3412TIP3    H131727   2.272   3.577  16.001 -0.1001 -0.3752 -0.5982
 3412TIP3    H231728   2.338   3.684  16.085  0.9055 -0.6355 -1.0407
 3413TIP3   OH231729   3.865   2.274   0.808  0.3898 -0.4128 -0.1735
 3413TIP3    H131730   3.805   2.218   0.759 -1.0929  0.5008  0.5206
 3413TIP3    H231731   3.874   2.353   0.754  0.2640 -0.1880  0.1285
 3414TIP3   OH231732   2.537   0.982   4.596 -0.3172  0.3674 -0.1244
 3414TIP3    H131733   2.548   1.039   4.671  0.1632 -2.3678  2.0615
 3414TIP3    H231734   2.451   1.005   4.560 -0.1023  2.4427  0.5913
 3415TIP3   OH231735   1.904   3.219   2.510 -0.4207 -0.5424 -0.1524
 3415TIP3    H131736   1.828   3.260   2.551 -0.0975 -0.5815  0.4934
 3415TIP3    H231737   1.949   3.173   2.581 -0.8052 -2.0909 -0.8702
 3416TIP3   OH231738   3.204   0.660   5.514 -0.2104 -0.1642  0.2340
 3416TIP3    H131739   3.242   0.733   5.465  0.5067  0.8604  2.1988
 3416TIP3    H231740   3.268   0.590   5.507 -0.3696 -0.2321 -0.7022
 3417TIP3   OH231741   5.271   4.600   0.295  0.1093  0.4879  0.3618
 3417TIP3    H131742   5.211   4.539   0.252  0.6152  0.7931 -0.7937
 3417TIP3    H231743   5.215   4.672   0.323 -0.2476  0.2155  0.3641
 3418TIP3   OH231744   3.006   4.512  14.546  0.5655  0.2331 -0.2893
 3418TIP3    H131745   2.964   4.514  14.460 -1.0862  1.2370  0.5025
 3418TIP3    H231746   3.098   4.529  14.527  0.3796 -0.3406 -1.9166
 3419TIP3   OH231747   3.204   5.830  11.683  0.2253  0.0902 -0.7442
 3419TIP3    H131748   3.279   5.772  11.670 -0.5907 -0.8508 -1.4138
 3419TIP3    H231749   3.128   5.779  11.653 -0.5046  1.5616 -1.5040
 3420TIP3   OH231750   5.395   0.174   0.046  0.2403  0.4180 -0.2207
 3420TIP3    H131751   5.337   0.201   0.117 -0.3186  0.7064 -0.7817
 3420TIP3    H231752   5.378   0.236  -0.024 -0.0308 -0.5397 -1.0199
 3421TIP3   OH231753   0.620   4.966   4.639  0.1828  0.5231 -1.0390
 3421TIP3    H131754   0.636   4.881   4.597 -0.0552  0.5599 -1.2068
 3421TIP3    H231755   0.530   4.988   4.614 -1.1197 -0.8613  1.9057
 3422TIP3   OH231756   3.827   2.919   3.337  0.1929  0.0368  0.0794
 3422TIP3    H131757   3.769   2.959   3.272 -0.2709 -3.0794 -1.6328
 3422TIP3    H231758   3.768   2.880   3.401  0.6174  1.3218  1.3079
 3423TIP3   OH231759   5.405   2.542  16.758  0.0735  0.5776  0.1063
 3423TIP3    H131760   5.340   2.472  16.749  0.5824  0.0041  0.7755
 3423TIP3    H231761   5.356   2.623  16.740 -0.4900  0.0511 -0.8348
 3424TIP3   OH231762   3.449   0.555   5.779 -0.3383 -0.3033  0.0927
 3424TIP3    H131763   3.448   0.620   5.850 -1.9989  1.0730 -1.1004
 3424TIP3    H231764   3.360   0.519   5.779 -1.0273  1.2019 -2.5331
 3425TIP3   OH231765   5.310   1.498  16.633 -0.5758  0.1615  0.1477
 3425TIP3    H131766   5.243   1.528  16.695  0.1676 -0.2300  1.1748
 3425TIP3    H231767   5.362   1.434  16.683 -1.5330 -2.1613 -1.6758
 3426TIP3   OH231768   5.881   1.963   6.043 -0.3493 -0.3196  0.4486
 3426TIP3    H131769   5.922   1.940   5.960 -0.9589 -0.3235  0.1372
 3426TIP3    H231770   5.953   1.989   6.099  0.1564 -1.0742  0.1697
 3427TIP3   OH231771   2.761   4.383  12.747 -0.1579  0.0305  0.3610
 3427TIP3    H131772   2.695   4.371  12.679 -1.4747 -0.4251  1.6827
 3427TIP3    H231773   2.811   4.301  12.748  0.7739  0.5405 -0.9388
 3428TIP3   OH231774   3.791   5.653  15.792  0.4859  0.1424  0.4982
 3428TIP3    H131775   3.813   5.740  15.760  0.8245 -0.2759 -0.4278
 3428TIP3    H231776   3.803   5.658  15.887 -1.8046  1.7919  0.7941
 3429TIP3   OH231777   0.016   3.462   1.348  0.2744 -0.2585 -0.2220
 3429TIP3    H131778   0.017   3.534   1.284  0.3600  0.1573  0.2398
 3429TIP3    H231779  -0.064   3.477   1.399  0.9636  0.2847  0.7341
 3430TIP3   OH231780   2.834   0.771   5.559  0.6760 -0.7037  0.0140
 3430TIP3    H131781   2.791   0.690   5.531  1.4265 -1.1423  0.1096
 3430TIP3    H231782   2.881   0.747   5.639 -0.7506  0.3316  1.2225
 3431TIP3   OH231783   1.448   3.381   4.315 -0.4203 -0.2541 -0.0587
 3431TIP3    H131784   1.510   3.359   4.384 -1.2742  0.6554  1.0376
 3431TIP3    H231785   1.462   3.314   4.248 -1.2660 -2.6957  2.0422
 3432TIP3   OH231786   5.049   4.361   4.394 -0.0396 -0.3792  0.2495
 3432TIP3    H131787   5.036   4.450   4.361 -0.7006 -0.1420  1.1230
 3432TIP3    H231788   5.144   4.354   4.404  0.0413  0.1292 -0.0894
 3433TIP3   OH231789   6.715   0.562   5.529  0.3813  0.3632  0.3258
 3433TIP3    H131790   6.796   0.602   5.497  1.2187 -1.7440 -0.3804
 3433TIP3    H231791   6.657   0.560   5.453  0.6861 -0.5314  0.1007
 3434TIP3   OH231792   0.403   2.379  12.256  0.3202 -0.3034 -0.1447
 3434TIP3    H131793   0.383   2.442  12.187 -0.7217  0.2648  0.6632
 3434TIP3    H231794   0.344   2.306  12.239 -1.4730  0.7202  1.3286
 3435TIP3   OH231795   3.699   0.621  11.599 -0.8125 -0.2018  0.0746
 3435TIP3    H131796   3.776   0.643  11.546 -0.9270  1.4301  0.5272
 3435TIP3    H231797   3.630   0.680  11.568 -2.9125 -3.6486 -2.4146
 3436TIP3   OH231798   3.194   4.275   1.109 -0.1761  0.0465  0.0189
 3436TIP3    H131799   3.104   4.295   1.084  0.1813  0.9653 -0.5920
 3436TIP3    H231800   3.248   4.329   1.051  0.7499  0.0765  0.8779
 3437TIP3   OH231801   2.712   2.111  11.751  0.1927 -0.0942 -0.2728
 3437TIP3    H131802   2.791   2.060  11.771 -2.0370 -3.1614  1.6405
 3437TIP3    H231803   2.721   2.133  11.659  2.2419 -2.3327 -0.7143
 3438TIP3   OH231804   5.380   5.498  15.476  0.7680  0.0010 -0.1068
 3438TIP3    H131805   5.338   5.509  15.561 -1.0801 -0.8609 -0.8653
 3438TIP3    H231806   5.406   5.406  15.473  1.3941  0.1773 -0.2358
 3439TIP3   OH231807   4.843   5.116   4.714 -0.4488 -0.0986  0.3180
 3439TIP3    H131808   4.781   5.101   4.786  0.3652 -0.4571  0.9569
 3439TIP3    H231809   4.806   5.190   4.666 -0.9211  0.2564  1.2016
 3440TIP3   OH231810   2.857   1.075  12.957  0.0224 -1.0171  0.7726
 3440TIP3    H131811   2.881   1.010  12.890  0.8436 -1.0901  1.1226
 3440TIP3    H231812   2.910   1.051  13.033  1.3876  0.8560  0.4794
 3441TIP3   OH231813   4.651   4.435   4.404 -0.1167 -0.0267  0.4814
 3441TIP3    H131814   4.630   4.433   4.310  0.5372 -0.9160  0.3474
 3441TIP3    H231815   4.742   4.406   4.409  0.1012  0.7577  1.3373
 3442TIP3   OH231816   4.799   1.860   4.462 -0.2963  0.1157 -0.5930
 3442TIP3    H131817   4.847   1.904   4.392  1.3702 -2.5312 -1.2763
 3442TIP3    H231818   4.864   1.805   4.506 -1.5878  0.6244  2.2000
 3443TIP3   OH231819   0.661   6.530   2.084  0.2950 -0.3428 -0.6397
 3443TIP3    H131820   0.632   6.512   1.995 -0.6596 -0.0910 -0.3913
 3443TIP3    H231821   0.611   6.468   2.138  0.5085 -0.1620 -0.2317
 3444TIP3   OH231822   6.559   0.260  12.500  0.2468 -0.6718  0.4468
 3444TIP3    H131823   6.512   0.331  12.456 -1.5727 -2.5686 -0.8316
 3444TIP3    H231824   6.490   0.208  12.542  1.4234 -2.2917  0.4657
 3445TIP3   OH231825   3.926   4.136  15.783 -0.5282 -0.2591  0.2974
 3445TIP3    H131826   3.862   4.083  15.830 -1.8914 -1.1955 -2.3923
 3445TIP3    H231827   4.005   4.083  15.782 -0.6784 -0.5034  0.9320
 3446TIP3   OH231828   5.600   5.752  11.151 -0.3480 -0.7726 -0.6781
 3446TIP3    H131829   5.608   5.678  11.211  0.2570 -0.4445 -0.3517
 3446TIP3    H231830   5.636   5.719  11.068  1.7204 -0.2705 -0.0336
 3447TIP3   OH231831   1.763   4.145  15.805 -0.9589 -0.2499 -0.1535
 3447TIP3    H131832   1.820   4.160  15.880  4.0043 -2.0780 -3.1005
 3447TIP3    H231833   1.738   4.232  15.776 -0.4813  0.6016  1.8148
 3448TIP3   OH231834   5.122   1.003  12.032 -0.3453 -0.4643  0.2182
 3448TIP3    H131835   5.174   1.056  12.092  0.2618 -0.9602  0.1382
 3448TIP3    H231836   5.031   1.020  12.058 -0.1634  0.5704  0.2229
 3449TIP3   OH231837   3.312   6.069   4.069  0.2268  0.3094  0.2279
 3449TIP3    H131838   3.301   5.976   4.092  0.1685  0.5563  1.2168
 3449TIP3    H231839   3.223   6.102   4.061  0.1514 -0.3186 -2.7889
 3450TIP3   OH231840   0.139   6.246   3.356  0.2334  0.1608 -0.4091
 3450TIP3    H131841   0.088   6.238   3.275  0.3381  3.1849 -0.8635
 3450TIP3    H231842   0.073   6.248   3.426 -0.1344  1.4835 -0.7783
 3451TIP3   OH231843   0.316   1.421  13.154 -0.6462 -0.1835  0.5504
 3451TIP3    H131844   0.385   1.362  13.184  0.7169  0.6814 -0.7728
 3451TIP3    H231845   0.235   1.383  13.191  0.6299 -0.3168  3.5204
 3452TIP3   OH231846   1.610   4.784   1.540 -0.7766  0.1474 -0.5674
 3452TIP3    H131847   1.654   4.865   1.516 -0.1154 -0.3831 -1.1680
 3452TIP3    H231848   1.531   4.813   1.586 -1.1990  1.1489 -1.8811
 3453TIP3   OH231849   3.388   1.624  14.073 -0.1102  0.2506  0.1248
 3453TIP3    H131850   3.422   1.673  14.148  4.0980  1.2763 -2.1612
 3453TIP3    H231851   3.437   1.542  14.072  0.4832  0.5677 -1.8308
 3454TIP3   OH231852   2.598   3.512   3.222 -0.3741  0.4205 -0.4999
 3454TIP3    H131853   2.542   3.438   3.197 -0.0743  0.2405 -0.6449
 3454TIP3    H231854   2.541   3.589   3.214 -0.7756  0.1733 -0.0546
 3455TIP3   OH231855   1.700   2.482  15.111 -0.2712 -0.5141 -0.0952
 3455TIP3    H131856   1.628   2.466  15.050 -0.5056 -0.1798  0.0890
 3455TIP3    H231857   1.668   2.552  15.168 -0.6521 -1.8479  1.4086
 3456TIP3   OH231858   5.552   2.173  13.029 -0.1935  0.1590 -0.3204
 3456TIP3    H131859   5.593   2.168  12.942 -0.7355  0.6491 -0.6075
 3456TIP3    H231860   5.622   2.205  13.087  0.1429 -0.0775 -0.5905
 3457TIP3   OH231861   1.234   3.632  14.226 -0.0849 -0.5270 -0.4049
 3457TIP3    H131862   1.245   3.538  14.234 -1.0169 -0.6513 -0.4620
 3457TIP3    H231863   1.251   3.667  14.314  1.7273 -0.5707 -0.7002
 3458TIP3   OH231864   1.655   6.723  12.903  0.3573 -0.2650 -0.2716
 3458TIP3    H131865   1.661   6.810  12.864 -0.2545  0.1266  0.4825
 3458TIP3    H231866   1.562   6.699  12.893  0.6540 -1.1412 -1.1136
 3459TIP3   OH231867   1.216   0.111   1.966 -1.0695  0.2886 -0.1645
 3459TIP3    H131868   1.230   0.016   1.963 -0.0852  0.4214  0.0202
 3459TIP3    H231869   1.125   0.121   1.994 -0.7037 -0.5991  1.4667
 3460TIP3   OH231870   3.841   3.592   3.283 -0.2824  0.5820  0.8511
 3460TIP3    H131871   3.779   3.646   3.233  0.8706  1.8781  0.7715
 3460TIP3    H231872   3.790   3.559   3.357 -2.3554 -2.2765 -1.6245
 3461TIP3   OH231873   2.721   3.352   0.377  0.2577 -0.2404  0.2492
 3461TIP3    H131874   2.718   3.443   0.348 -4.0845 -0.1202  0.3839
 3461TIP3    H231875   2.720   3.301   0.296 -1.3594 -0.0271  0.0936
 3462TIP3   OH231876   5.048   4.085  11.191  0.0664  0.4841  0.4920
 3462TIP3    H131877   5.102   4.160  11.213  1.5316 -0.4158  0.0839
 3462TIP3    H231878   5.024   4.099  11.100 -0.3269  0.8326  0.6435
 3463TIP3   OH231879   2.493   1.875  13.154  0.4871  0.4492 -0.4830
 3463TIP3    H131880   2.422   1.813  13.174  0.9187  0.2651  0.5430
 3463TIP3    H231881   2.504   1.926  13.235  0.2503  1.7663 -1.2569
 3464TIP3   OH231882   3.103   4.280   4.478 -0.2669 -0.0052 -0.2933
 3464TIP3    H131883   3.171   4.254   4.416  0.0994 -0.2652  0.2183
 3464TIP3    H231884   3.148   4.291   4.561 -1.0807 -1.6047  0.4015
 3465TIP3   OH231885   2.320   0.315  12.371  0.2194 -0.5180 -0.6249
 3465TIP3    H131886   2.380   0.241  12.367  0.6945 -0.1398 -0.5700
 3465TIP3    H231887   2.375   0.389  12.396 -0.3641 -0.2676 -0.0573
 3466TIP3   OH231888   2.038   5.335  16.137 -0.6243  0.5440  0.2085
 3466TIP3    H131889   2.073   5.370  16.219  1.4931 -0.3008 -0.2652
 3466TIP3    H231890   1.991   5.256  16.162 -1.1618  1.0229  0.7333
 3467TIP3   OH231891   4.468   0.086   5.361 -0.1748 -0.1585 -0.3962
 3467TIP3    H131892   4.544   0.105   5.415 -1.3472  0.0299  1.2592
 3467TIP3    H231893   4.482  -0.004   5.332  0.5532 -0.2224  0.1122
 3468TIP3   OH231894   2.013   6.803   4.726 -0.0026  0.1297  0.0153
 3468TIP3    H131895   2.024   6.721   4.679  0.8285 -1.7584  3.1717
 3468TIP3    H231896   2.096   6.849   4.714  0.5980 -0.8098  0.3931
 3469TIP3   OH231897   4.966   2.323  12.131  0.0566  0.7543 -0.1977
 3469TIP3    H131898   4.993   2.409  12.163  0.0235  1.0299 -0.8929
 3469TIP3    H231899   4.882   2.339  12.088  1.1841  0.8694 -2.5268
 3470TIP3   OH231900   5.017   4.168   1.026 -0.3858 -0.0620 -0.2602
 3470TIP3    H131901   5.040   4.094   1.081 -1.9171 -0.8426 -0.6120
 3470TIP3    H231902   5.087   4.173   0.961 -0.3419 -1.3142 -0.3318
 3471TIP3   OH231903   3.216   2.550   6.022 -0.5074  0.3950 -0.1494
 3471TIP3    H131904   3.174   2.633   6.047  0.1614  0.4224  0.9743
 3471TIP3    H231905   3.245   2.513   6.105  0.8935 -0.0546 -0.8092
 3472TIP3   OH231906   0.378   1.058   2.248 -0.7248  0.6087  0.0801
 3472TIP3    H131907   0.398   1.025   2.335 -0.6184  0.0982 -0.1335
 3472TIP3    H231908   0.412   1.147   2.248 -1.4026  0.8740  0.8087
 3473TIP3   OH231909   5.867   6.712  11.876 -0.3291  0.3260 -0.3095
 3473TIP3    H131910   5.858   6.649  11.947  3.2407 -0.7451 -0.6092
 3473TIP3    H231911   5.918   6.784  11.914 -0.4738  0.9033 -1.1727
 3474TIP3   OH231912   0.620   0.790  13.886  0.4026  0.0735 -0.1007
 3474TIP3    H131913   0.535   0.814  13.850 -0.1882 -0.8306  0.6700
 3474TIP3    H231914   0.683   0.820  13.820 -0.6538 -2.0718 -2.2264
 3475TIP3   OH231915   0.670   4.612   5.541 -0.5617  0.5117  0.5760
 3475TIP3    H131916   0.757   4.622   5.502 -0.8794 -1.6836 -0.8708
 3475TIP3    H231917   0.674   4.529   5.588 -1.4564  1.1462  1.8357
 3476TIP3   OH231918   4.298   5.091  14.617  0.2299 -0.0685 -0.5365
 3476TIP3    H131919   4.221   5.143  14.594 -1.1637 -1.9254 -0.2551
 3476TIP3    H231920   4.331   5.132  14.697  0.1164  1.3075 -1.1595
 3477TIP3   OH231921   0.817   1.546   6.350  0.1407  0.1078 -0.6372
 3477TIP3    H131922   0.869   1.465   6.356 -0.7663 -0.6710 -2.5021
 3477TIP3    H231923   0.871   1.606   6.299 -0.3489 -0.3775 -1.7689
 3478TIP3   OH231924   4.887   4.769  12.949 -0.4320 -0.2602  0.3598
 3478TIP3    H131925   4.899   4.805  12.861 -0.4865  0.0176  0.4648
 3478TIP3    H231926   4.878   4.675  12.935 -2.7350 -0.0102 -0.1594
 3479TIP3   OH231927   4.290   4.824  16.767 -0.2025 -0.5297 -0.4646
 3479TIP3    H131928   4.341   4.778  16.834 -0.3705 -0.2609 -0.1501
 3479TIP3    H231929   4.326   4.792  16.684 -1.6824 -2.7721 -0.3027
 3480TIP3   OH231930   1.841   4.294   4.503 -0.7068  0.4530  0.5131
 3480TIP3    H131931   1.828   4.201   4.483 -0.6134  0.2412  1.4044
 3480TIP3    H231932   1.763   4.319   4.553 -0.2872  0.6085  1.0919
 3481TIP3   OH231933   6.518   4.131  11.115 -0.2889  0.0447 -0.0739
 3481TIP3    H131934   6.549   4.194  11.050  0.0543 -2.1239 -2.1452
 3481TIP3    H231935   6.423   4.145  11.119 -0.4555 -0.3868 -1.7894
 3482TIP3   OH231936   2.148   4.668  17.119  0.2882  0.0545 -0.1117
 3482TIP3    H131937   2.185   4.610  17.186 -0.0119  1.4450  1.3133
 3482TIP3    H231938   2.078   4.716  17.164 -0.0902  0.8643 -1.4887
 3483TIP3   OH231939   4.904   4.968   3.533  0.2745  0.1359 -0.3948
 3483TIP3    H131940   4.859   4.887   3.510 -0.3535  0.7670 -1.4970
 3483TIP3    H231941   4.923   4.960   3.627 -0.8699 -0.7581 -0.2205
 3484TIP3   OH231942   1.432   4.377  13.532 -0.1913  0.3289  0.0926
 3484TIP3    H131943   1.512   4.424  13.555  0.9714 -1.0386 -0.9709
 3484TIP3    H231944   1.422   4.391  13.438 -0.6994 -0.2566  0.0524
 3485TIP3   OH231945   2.693   2.008   1.112  0.1366  0.0926  0.0398
 3485TIP3    H131946   2.674   1.954   1.035  2.7950 -0.7478 -0.1322
 3485TIP3    H231947   2.772   2.057   1.087  1.3830 -0.5959  2.3849
 3486TIP3   OH231948   3.484   4.398   1.055 -0.0658 -0.0806  0.2790
 3486TIP3    H131949   3.511   4.419   0.966 -1.3626  1.1181  0.1319
 3486TIP3    H231950   3.506   4.305   1.066  0.7467 -0.0657 -1.0235
 3487TIP3   OH231951   2.460   1.172  10.909  0.3939  0.2272 -0.0882
 3487TIP3    H131952   2.535   1.137  10.860  0.2048  1.1151 -1.0622
 3487TIP3    H231953   2.457   1.265  10.885 -1.3883  0.0841 -0.5911
 3488TIP3   OH231954   6.776   5.781   0.181  0.6347 -0.3850  0.2111
 3488TIP3    H131955   6.833   5.846   0.222 -0.1596 -0.2847  1.2093
 3488TIP3    H231956   6.836   5.720   0.138  1.3898  1.0163 -0.7863
 3489TIP3   OH231957   5.942   2.742   2.167  0.5222  0.3803 -0.6554
 3489TIP3    H131958   5.997   2.812   2.131  0.9363  0.1685 -0.4410
 3489TIP3    H231959   5.923   2.686   2.092  0.2232  0.6927 -0.8205
 3490TIP3   OH231960   1.225   6.836   0.319  0.0574  0.6254  0.0363
 3490TIP3    H131961   1.138   6.819   0.282 -0.4461  2.8680  0.0735
 3490TIP3    H231962   1.238   6.764   0.381 -1.0912 -0.6019 -1.0632
 3491TIP3   OH231963   4.785   3.184  13.766  0.0968  0.0243  0.4754
 3491TIP3    H131964   4.860   3.225  13.722 -0.5731  0.1416 -0.5794
 3491TIP3    H231965   4.709   3.211  13.715 -0.4927 -1.5044  0.4848
 3492TIP3   OH231966   6.481   2.531  11.464 -0.0865  0.2846  0.1955
 3492TIP3    H131967   6.463   2.450  11.511 -1.0047  0.3018 -0.1064
 3492TIP3    H231968   6.550   2.574  11.515  0.0565 -0.4480  0.6252
 3493TIP3   OH231969   1.334   6.444   5.975 -0.3797  0.2112 -0.0743
 3493TIP3    H131970   1.338   6.358   6.017 -1.4559  0.8056  1.3287
 3493TIP3    H231971   1.401   6.495   6.021  1.6151 -0.3407 -2.1869
 3494TIP3   OH231972   5.366   5.146  12.024 -0.0103 -0.4611  0.2609
 3494TIP3    H131973   5.420   5.068  12.036 -0.1912 -0.6498 -0.1713
 3494TIP3    H231974   5.409   5.212  12.079  0.2608 -0.8006  0.4665
 3495TIP3   OH231975   1.884   4.182   0.912 -0.2539 -0.2974  0.4789
 3495TIP3    H131976   1.901   4.133   0.992 -1.8952 -1.1123  0.3710
 3495TIP3    H231977   1.933   4.135   0.844  1.4102  0.5864  1.0077
 3496TIP3   OH231978   1.240   5.476   1.699 -0.0655  0.3483  0.0299
 3496TIP3    H131979   1.298   5.550   1.685  0.1098  0.2431  0.1972
 3496TIP3    H231980   1.247   5.423   1.619 -0.5585  0.7572 -0.2928
 3497TIP3   OH231981   1.724   2.890  14.608  0.1684 -1.3377 -0.4920
 3497TIP3    H131982   1.782   2.849  14.544  0.7930  1.3190 -1.7623
 3497TIP3    H231983   1.638   2.889  14.567  0.1760 -1.4615 -0.5033
 3498TIP3   OH231984   6.610   6.017   1.481 -0.1082  0.1008  0.1039
 3498TIP3    H131985   6.620   5.952   1.550  1.4484 -1.4518 -1.4998
 3498TIP3    H231986   6.601   5.967   1.400 -0.4325  1.8651 -1.0259
 3499TIP3   OH231987   0.278   1.992   4.247  0.9914 -0.4538 -0.1786
 3499TIP3    H131988   0.269   2.077   4.205  1.2305 -0.6739 -0.6949
 3499TIP3    H231989   0.358   1.998   4.298  1.1143 -0.4306 -0.3732
 3500TIP3   OH231990   4.554   3.238  16.965  0.6699  0.0989 -0.2203
 3500TIP3    H131991   4.532   3.147  16.985 -0.4991  0.4805  0.3347
 3500TIP3    H231992   4.590   3.235  16.877  0.1199 -0.8331 -0.4312
 3501TIP3   OH231993   1.142   6.035   4.068 -0.3168  0.0317  0.2154
 3501TIP3    H131994   1.173   5.948   4.095  0.4120  0.7435  1.7836
 3501TIP3    H231995   1.154   6.090   4.145 -0.7865  1.5329 -0.7399
 3502TIP3   OH231996   4.772   3.603   5.331  0.8052 -0.2937 -0.7401
 3502TIP3    H131997   4.857   3.563   5.313  2.6464  1.1360  3.4149
 3502TIP3    H231998   4.735   3.549   5.401  0.2476  1.3808  0.3152
 3503TIP3   OH231999   6.104   0.114   6.553 -0.5343  0.1710  0.2001
 3503TIP3    H132000   6.191   0.074   6.554 -1.6096 -2.4679 -1.4259
 3503TIP3    H232001   6.060   0.078   6.629  0.4900  3.6146  2.6604
 3504TIP3   OH232002   4.156   6.505  10.797 -0.4013 -0.3696  0.2380
 3504TIP3    H132003   4.195   6.592  10.785  0.9066 -1.1436 -1.6298
 3504TIP3    H232004   4.165   6.488  10.891  0.6952  0.9106  0.3991
 3505TIP3   OH232005   0.941   0.784   3.930  0.2849 -0.0862  0.3343
 3505TIP3    H132006   0.877   0.854   3.947  0.1245 -0.1907  0.1686
 3505TIP3    H232007   1.020   0.831   3.902 -0.2926 -0.0098 -1.3035
 3506TIP3   OH232008   6.385   3.763   1.200 -0.0277 -0.2939 -0.1293
 3506TIP3    H132009   6.459   3.756   1.260  1.4905  0.3734 -1.8297
 3506TIP3    H232010   6.373   3.857   1.189 -0.1171 -0.4095 -1.0581
 3507TIP3   OH232011   2.966   6.369  14.213  0.0122  0.0502 -0.3641
 3507TIP3    H132012   3.046   6.351  14.163  0.2443  0.5706 -0.1858
 3507TIP3    H232013   2.985   6.450  14.260 -0.4310 -0.1067  0.0883
 3508TIP3   OH232014   2.847   6.111  15.776 -1.1927 -0.7802  0.2489
 3508TIP3    H132015   2.906   6.066  15.836  0.3911  1.1269  0.2227
 3508TIP3    H232016   2.876   6.203  15.778 -3.9862  0.1965  0.0092
 3509TIP3   OH232017   4.034   2.661   1.825 -0.6728  0.7863 -0.0671
 3509TIP3    H132018   4.079   2.734   1.783 -0.5094  0.2237 -0.9024
 3509TIP3    H232019   3.971   2.703   1.883 -1.7293  1.6505 -1.7326
 3510TIP3   OH232020   2.509   5.109  11.929 -0.1814  0.2822  0.1389
 3510TIP3    H132021   2.497   5.141  11.840 -0.5302  0.2810  0.1844
 3510TIP3    H232022   2.454   5.030  11.933  0.5079 -0.2095  0.0872
 3511TIP3   OH232023   3.131   6.101  12.097 -0.0633 -0.1084 -0.4228
 3511TIP3    H132024   3.135   6.011  12.064 -0.2794  0.1893 -1.2862
 3511TIP3    H232025   3.180   6.098  12.180  2.4061 -0.4428 -1.7942
 3512TIP3   OH232026   5.819   0.013   2.292 -0.4324 -0.1852 -0.2214
 3512TIP3    H132027   5.904   0.026   2.250 -0.6330  0.9462 -0.3146
 3512TIP3    H232028   5.832   0.043   2.382 -0.7717  0.1486 -0.2815
 3513TIP3   OH232029   0.061   4.400  12.703 -0.1338  0.8064 -0.6931
 3513TIP3    H132030   0.130   4.457  12.668  2.6269 -1.5001  0.5957
 3513TIP3    H232031   0.091   4.311  12.682 -2.5759 -0.3131  0.2418
 3514TIP3   OH232032   2.206   4.602   5.821  0.5141  0.2366  0.5433
 3514TIP3    H132033   2.154   4.553   5.757  0.2017  0.8363  0.3226
 3514TIP3    H232034   2.196   4.555   5.903  0.7994 -0.4627  0.1807
 3515TIP3   OH232035   5.413   5.774  16.889 -0.2460 -0.6009 -0.3920
 3515TIP3    H132036   5.340   5.763  16.828 -0.6620 -2.8431  0.4206
 3515TIP3    H232037   5.469   5.699  16.874 -0.6993 -1.6208  2.3738
 3516TIP3   OH232038   0.136   4.712  12.925  0.1323 -0.0063  0.2319
 3516TIP3    H132039   0.105   4.643  12.983 -0.9647 -1.8420 -2.3311
 3516TIP3    H232040   0.123   4.793  12.974  0.2565 -1.4698  2.8816
 3517TIP3   OH232041   0.251   2.804  16.603  0.1485 -0.0689 -0.5499
 3517TIP3    H132042   0.312   2.877  16.610  1.0685 -0.8691  0.1373
 3517TIP3    H232043   0.289   2.736  16.659 -1.3093 -0.6401 -0.2081
 3518TIP3   OH232044   4.634   0.299  11.948  0.3797 -0.2452  0.9762
 3518TIP3    H132045   4.590   0.230  11.997  0.3507 -0.0517  1.2205
 3518TIP3    H232046   4.579   0.312  11.870  0.3062 -0.3946  1.0043
 3519TIP3   OH232047   4.163   3.007   3.901 -0.0500  0.1158  0.5488
 3519TIP3    H132048   4.142   2.921   3.864  2.0426  0.0296 -0.5778
 3519TIP3    H232049   4.158   2.994   3.995  0.1874 -1.2354  0.4002
 3520TIP3   OH232050   0.221   0.503  12.849 -0.1204 -0.3149  0.6234
 3520TIP3    H132051   0.254   0.576  12.796 -0.6030 -1.0565 -0.7539
 3520TIP3    H232052   0.141   0.536  12.889 -0.3992 -0.1065 -0.0871
 3521TIP3   OH232053   1.405   2.953   5.634  0.2275 -0.0224  0.1601
 3521TIP3    H132054   1.330   2.984   5.583  0.2476  1.3386  0.9317
 3521TIP3    H232055   1.376   2.960   5.726  0.6442 -1.2418  0.4067
 3522TIP3   OH232056   3.365   5.022  13.514  0.0184  0.2525 -0.2149
 3522TIP3    H132057   3.459   5.037  13.518 -0.0430  0.3807  2.2150
 3522TIP3    H232058   3.338   5.056  13.429  2.4360 -1.6047 -1.8614
 3523TIP3   OH232059   5.005   2.973   1.931 -0.2139 -0.2099  0.0112
 3523TIP3    H132060   5.005   2.989   1.836  0.0026 -0.6469 -0.0628
 3523TIP3    H232061   5.093   2.940   1.950 -1.5311 -4.5290 -0.3987
 3524TIP3   OH232062   5.531   2.208   3.342  0.1350 -0.3985 -0.3293
 3524TIP3    H132063   5.558   2.122   3.309  0.1099 -0.3420 -0.4952
 3524TIP3    H232064   5.447   2.191   3.385 -0.9338 -0.0820 -2.2061
 3525TIP3   OH232065   2.163   4.514  12.434 -0.1760 -0.2044 -0.3280
 3525TIP3    H132066   2.197   4.455  12.502  1.0497 -1.4686 -1.9708
 3525TIP3    H232067   2.071   4.488  12.425 -0.3805  0.0198  0.8415
 3526TIP3   OH232068   1.673   5.648  15.850 -0.0624  0.0068 -0.0591
 3526TIP3    H132069   1.672   5.612  15.939 -1.9114 -0.3045 -0.1488
 3526TIP3    H232070   1.633   5.734  15.858  1.5928  0.8322 -0.3171
 3527TIP3   OH232071   2.959   5.437   3.218 -0.2837  0.1017  0.0207
 3527TIP3    H132072   2.918   5.517   3.186  1.1414  0.6022 -0.6163
 3527TIP3    H232073   2.966   5.450   3.313  1.7420  1.6738 -0.2588
 3528TIP3   OH232074   6.235   1.604   6.766 -0.0405  0.2676  0.0522
 3528TIP3    H132075   6.172   1.532   6.775  0.2203  0.1099  0.6879
 3528TIP3    H232076   6.280   1.586   6.683 -0.6212  0.2211 -0.2609
 3529TIP3   OH232077   1.636   0.375  11.525 -0.4662 -0.1042  0.5592
 3529TIP3    H132078   1.684   0.312  11.472 -0.5098  0.6029 -0.3288
 3529TIP3    H232079   1.624   0.331  11.609 -0.0118 -1.0612  0.1317
 3530TIP3   OH232080   5.526   3.102  11.405 -0.1601  0.8126  0.0395
 3530TIP3    H132081   5.602   3.063  11.362 -1.9801 -1.1206 -1.7127
 3530TIP3    H232082   5.541   3.087  11.498  0.7341 -1.4013 -0.3817
 3531TIP3   OH232083   2.764   1.522   0.984  0.7345 -0.7825 -0.0222
 3531TIP3    H132084   2.731   1.520   0.894 -0.9215  0.2894  0.5149
 3531TIP3    H232085   2.692   1.489   1.037  0.9835  0.3559  1.0779
 3532TIP3   OH232086   1.154   6.247  10.132 -0.3288 -0.2408  0.7520
 3532TIP3    H132087   1.225   6.193  10.097  0.3828  0.2044  1.4744
 3532TIP3    H232088   1.132   6.206  10.216 -1.2864 -0.6707  0.3140
 3533TIP3   OH232089   2.289   4.491  13.792 -0.1993 -0.3956 -0.2275
 3533TIP3    H132090   2.199   4.505  13.763  0.1557  2.3161 -0.2852
 3533TIP3    H232091   2.282   4.432  13.867 -2.1814  0.7497  0.5532
 3534TIP3   OH232092   5.080   5.959   2.752 -0.0050 -0.1197 -0.2416
 3534TIP3    H132093   5.003   5.903   2.738  0.3553 -0.5943 -0.3298
 3534TIP3    H232094   5.095   6.000   2.667 -0.1945  0.0203 -0.2090
 3535TIP3   OH232095   0.854   0.488  15.907  0.6130  0.2602 -0.0486
 3535TIP3    H132096   0.938   0.533  15.917  0.7831  0.1515 -0.8978
 3535TIP3    H232097   0.859   0.414  15.968  0.4803  1.1653  1.0819
 3536TIP3   OH232098   5.864   5.055  13.144  0.0578 -0.1088  0.1513
 3536TIP3    H132099   5.959   5.057  13.135 -0.0145  1.6055 -0.6031
 3536TIP3    H232100   5.833   5.004  13.070  0.2314  2.5295 -1.8695
 3537TIP3   OH232101   3.101   2.219  11.106 -0.0615 -0.3627  0.0579
 3537TIP3    H132102   3.127   2.238  11.016  0.3778 -1.4926 -0.0616
 3537TIP3    H232103   3.182   2.197  11.151 -0.3246 -0.1594  0.6460
 3538TIP3   OH232104   3.606   3.088   5.320  1.1526 -0.4622 -0.2096
 3538TIP3    H132105   3.611   3.160   5.257  2.3353 -0.4218 -0.0911
 3538TIP3    H232106   3.635   3.126   5.403  0.6119 -0.7798  0.1329
 3539TIP3   OH232107   5.570   4.207  11.740 -0.5737 -0.3080  0.9077
 3539TIP3    H132108   5.525   4.184  11.659 -0.7875 -0.1696  0.9851
 3539TIP3    H232109   5.595   4.123  11.779 -0.9504 -0.3975  0.9667
 3540TIP3   OH232110   2.777   6.461  14.043  0.0595 -0.1350  0.5523
 3540TIP3    H132111   2.699   6.421  14.081 -0.5540  0.7319  0.2530
 3540TIP3    H232112   2.850   6.427  14.095 -0.2823 -2.5287 -0.4240
 3541TIP3   OH232113   1.627   0.822  12.061  0.3954  0.1713  0.3623
 3541TIP3    H132114   1.560   0.754  12.066  1.4326 -0.9362 -0.2234
 3541TIP3    H232115   1.633   0.855  12.150  0.5620 -1.2130  0.8940
 3542TIP3   OH232116   1.029   4.335   5.616 -0.2564  0.0772  0.5320
 3542TIP3    H132117   1.000   4.393   5.546  1.2976 -1.8465 -1.8635
 3542TIP3    H232118   1.050   4.395   5.689 -1.5877  2.1917 -0.7042
 3543TIP3   OH232119   0.695   1.626   1.445  0.3575 -0.0004  0.5152
 3543TIP3    H132120   0.670   1.649   1.356 -0.6128 -0.0714  0.7586
 3543TIP3    H232121   0.738   1.541   1.437  0.5848  0.1542  0.0770
 3544TIP3   OH232122   0.017   2.998  16.802  0.0954 -0.1755 -0.4329
 3544TIP3    H132123   0.002   3.088  16.773  1.7137  0.5425  0.7766
 3544TIP3    H232124   0.111   2.995  16.821 -0.1902 -1.6939  0.9481
 3545TIP3   OH232125   1.764   1.616   1.385 -0.0840  0.1616  0.7124
 3545TIP3    H132126   1.830   1.682   1.403  0.9149 -0.8775  1.0226
 3545TIP3    H232127   1.811   1.547   1.337 -1.4484  0.3817 -1.0749
 3546TIP3   OH232128   5.066   3.780  15.950 -0.3039  0.7016 -0.0636
 3546TIP3    H132129   5.091   3.692  15.978 -0.5183  0.3034 -1.0831
 3546TIP3    H232130   5.070   3.832  16.030 -0.1377 -0.2224  0.5524
 3547TIP3   OH232131   4.908   4.798   0.236  0.1009  0.8231 -0.1609
 3547TIP3    H132132   4.984   4.856   0.237  0.1011  0.8633  1.7275
 3547TIP3    H232133   4.846   4.838   0.297 -0.2396 -0.7055  0.5537
 3548TIP3   OH232134   5.213   4.240  13.019 -0.1418  0.7075  0.2571
 3548TIP3    H132135   5.131   4.192  13.022 -0.5758  1.3187 -1.0986
 3548TIP3    H232136   5.281   4.173  13.013 -0.5419  0.2077  1.1524
 3549TIP3   OH232137   6.735   1.357  12.565  0.2234  0.5087  0.5487
 3549TIP3    H132138   6.817   1.406  12.564 -0.7190  2.2283  1.8655
 3549TIP3    H232139   6.697   1.375  12.651 -1.8962  0.4034 -0.3029
 3550TIP3   OH232140   4.470   0.274  12.423  0.3905 -0.2883  0.3062
 3550TIP3    H132141   4.546   0.333  12.418  0.6861 -0.6903  0.0204
 3550TIP3    H232142   4.504   0.194  12.462  0.6652 -1.3215 -1.8778
 3551TIP3   OH232143   6.031   0.544  16.879 -0.1973  0.2851  0.3098
 3551TIP3    H132144   5.949   0.495  16.889  0.1847 -0.2030  1.1559
 3551TIP3    H232145   6.003   0.631  16.851 -0.9072 -0.3080 -0.9462
 3552TIP3   OH232146   4.666   5.326   2.111  0.6882  0.2807 -0.1985
 3552TIP3    H132147   4.656   5.237   2.078  0.0679 -0.3042  1.4497
 3552TIP3    H232148   4.747   5.358   2.071  0.6587 -0.8447 -1.1875
 3553TIP3   OH232149   5.907   4.510   0.293  0.5683  0.4873 -0.3441
 3553TIP3    H132150   5.952   4.594   0.283  0.1747  0.7476  0.0519
 3553TIP3    H232151   5.941   4.456   0.221  1.0733  0.8720 -0.3983
 3554TIP3   OH232152   5.470   0.404  15.138 -0.4993 -0.1474 -0.6614
 3554TIP3    H132153   5.534   0.445  15.081 -0.9875  1.2416 -0.2555
 3554TIP3    H232154   5.468   0.459  15.216 -0.3773 -1.5913  0.4113
 3555TIP3   OH232155   5.922   1.760   6.543 -0.3291  0.6449 -0.4324
 3555TIP3    H132156   5.918   1.672   6.580  0.9517  0.7172 -0.0756
 3555TIP3    H232157   5.842   1.803   6.572 -1.1746 -0.5250 -0.9632
 3556TIP3   OH232158   5.449   4.466   3.847  0.3273 -0.2128 -0.8409
 3556TIP3    H132159   5.507   4.542   3.851 -0.9174  0.7630 -0.7214
 3556TIP3    H232160   5.453   4.437   3.756  1.7133 -0.7503 -0.6251
 3557TIP3   OH232161   2.508   5.188   0.534  0.4584  0.6662 -0.5376
 3557TIP3    H132162   2.581   5.190   0.473  1.4377  0.2585  0.5854
 3557TIP3    H232163   2.492   5.094   0.548  0.5262  0.7525  0.1426
 3558TIP3   OH232164   5.665   1.330  11.757  0.0245 -0.0677 -0.3116
 3558TIP3    H132165   5.727   1.266  11.721  3.2764  2.9998 -0.7335
 3558TIP3    H232166   5.703   1.354  11.842 -2.0286  0.2036  0.5951
 3559TIP3   OH232167   3.072   5.489  11.190  0.9283 -0.3084 -0.0969
 3559TIP3    H132168   3.116   5.440  11.120 -0.7989 -1.4616 -0.4468
 3559TIP3    H232169   2.987   5.513  11.152  0.5572  0.3526  1.1128
 3560TIP3   OH232170   5.775   1.215  15.498  0.8698 -0.2625 -0.8180
 3560TIP3    H132171   5.728   1.211  15.414 -1.9485  2.7865  0.3938
 3560TIP3    H232172   5.709   1.246  15.560  3.0226 -1.7295  2.4469
 3561TIP3   OH232173   0.298   6.067  12.826 -0.6432 -0.8170 -0.3261
 3561TIP3    H132174   0.334   6.003  12.887 -2.9454 -2.2201 -0.2835
 3561TIP3    H232175   0.331   6.151  12.856  2.7049 -1.9242 -0.5149
 3562TIP3   OH232176   6.057   3.817  15.492 -0.1099 -0.1089  0.0577
 3562TIP3    H132177   6.024   3.899  15.529 -0.3567 -0.7962  1.4225
 3562TIP3    H232178   6.143   3.840  15.457 -0.5043  0.9035 -0.3025
 3563TIP3   OH232179   1.308   6.431   3.500  0.2869 -0.1214  0.7815
 3563TIP3    H132180   1.344   6.364   3.558 -0.7947  0.7207  2.5145
 3563TIP3    H232181   1.223   6.452   3.538  0.8122  2.6069  0.6247
 3564TIP3   OH232182   1.587   5.006   3.845 -0.1187  0.8203  0.6851
 3564TIP3    H132183   1.505   4.962   3.866 -0.5881  0.5038 -1.5669
 3564TIP3    H232184   1.652   4.936   3.843 -0.4753  0.4953 -0.8573
 3565TIP3   OH232185   5.457   5.718  11.707 -0.0840  0.3553 -1.0069
 3565TIP3    H132186   5.374   5.730  11.754 -0.4695 -0.7159 -1.3641
 3565TIP3    H232187   5.518   5.688  11.774 -0.4246 -0.4133 -1.0287
 3566TIP3   OH232188   1.658   1.566   4.121  0.1205 -0.3895  0.0612
 3566TIP3    H132189   1.641   1.497   4.057 -2.0618  0.0553  0.0712
 3566TIP3    H232190   1.653   1.647   4.071  1.7308 -0.1637  0.2235
 3567TIP3   OH232191   6.702   0.361  12.745  0.2745  0.1466 -0.4041
 3567TIP3    H132192   6.638   0.336  12.678 -0.6659  1.0963  0.0996
 3567TIP3    H232193   6.678   0.309  12.822  0.3129  0.2579 -0.3158
 3568TIP3   OH232194   5.816   3.867   0.302 -0.5925  0.7492 -0.2956
 3568TIP3    H132195   5.855   3.792   0.257 -0.5019 -0.4013  1.6203
 3568TIP3    H232196   5.738   3.832   0.345 -1.4170  2.1099 -0.6219
 3569TIP3   OH232197   3.810   0.360   4.787 -0.1041 -0.6295  0.0644
 3569TIP3    H132198   3.724   0.395   4.767  0.6344  1.2101 -0.0540
 3569TIP3    H232199   3.807   0.270   4.755 -1.5166 -0.1810 -1.1807
 3570TIP3   OH232200   5.863   4.932   5.071  0.1724 -0.0748 -0.0056
 3570TIP3    H132201   5.845   4.848   5.114  0.7368 -0.4816 -0.5462
 3570TIP3    H232202   5.891   4.990   5.142 -0.8154 -0.1608  0.4625
 3571TIP3   OH232203   0.097   6.273  12.069 -0.4350  0.2023 -0.3126
 3571TIP3    H132204   0.019   6.228  12.037 -1.9770  0.3610  2.8227
 3571TIP3    H232205   0.087   6.363  12.037  0.0971 -0.4479 -2.4451
 3572TIP3   OH232206   6.366   5.579  15.495 -0.2669 -0.3779 -0.1016
 3572TIP3    H132207   6.440   5.637  15.510 -1.6028  1.2315  0.7278
 3572TIP3    H232208   6.338   5.553  15.583 -1.0994 -0.3958 -0.3621
 3573TIP3   OH232209   1.981   6.607   4.976  0.4623  0.5465 -0.0990
 3573TIP3    H132210   1.905   6.572   4.931  0.0168  0.9721  0.3061
 3573TIP3    H232211   2.053   6.597   4.914  0.4681 -1.5191  0.1688
 3574TIP3   OH232212   5.641   3.976   0.987 -0.0814 -0.7631  0.5546
 3574TIP3    H132213   5.616   3.900   0.934  0.4286 -0.3942 -0.2408
 3574TIP3    H232214   5.726   3.953   1.023  0.3366 -0.3451 -0.1558
 3575TIP3   OH232215   5.298   4.486   4.460  0.2246  0.0026  0.1992
 3575TIP3    H132216   5.310   4.394   4.436 -0.1511  0.4187 -1.7788
 3575TIP3    H232217   5.381   4.511   4.501  0.7853 -0.9071 -0.3547
 3576TIP3   OH232218   3.151   3.685  12.900 -0.0273 -0.1851  0.3488
 3576TIP3    H132219   3.215   3.649  12.839 -0.4842 -1.5851  0.6743
 3576TIP3    H232220   3.086   3.728  12.843  2.3605  3.4594  0.0682
 3577TIP3   OH232221   4.835   3.740  14.865 -0.3408  0.3411  0.2577
 3577TIP3    H132222   4.756   3.761  14.815  0.2124  0.0226 -0.7880
 3577TIP3    H232223   4.803   3.708  14.949 -1.2896  1.3228  0.2855
 3578TIP3   OH232224   3.934   0.687  11.426 -0.0483  0.3769 -0.3176
 3578TIP3    H132225   4.027   0.667  11.420  0.6633  2.0131  3.1570
 3578TIP3    H232226   3.930   0.780  11.446 -2.5175  0.4970 -1.0138
 3579TIP3   OH232227   6.298   4.979   4.862  0.1296  0.4808  0.1037
 3579TIP3    H132228   6.217   4.937   4.892 -0.6093  0.1691 -2.1425
 3579TIP3    H232229   6.279   5.072   4.862  0.7432  0.6538  2.1752
 3580TIP3   OH232230   5.061   3.513  11.532  0.7456 -0.3435 -0.0463
 3580TIP3    H132231   4.999   3.583  11.552  1.2546  0.0890  0.0505
 3580TIP3    H232232   5.010   3.447  11.485  0.6803  0.9948 -1.9373
 3581TIP3   OH232233   4.944   6.781   4.670  0.2479 -0.4402 -0.0921
 3581TIP3    H132234   4.934   6.794   4.576 -2.5520 -1.9490 -0.1285
 3581TIP3    H232235   4.868   6.825   4.709 -1.0284 -3.3738  0.9994
 3582TIP3   OH232236   1.616   5.628  12.327  0.3913 -0.2090  0.0911
 3582TIP3    H132237   1.537   5.576  12.311  0.2743 -0.4800  1.4868
 3582TIP3    H232238   1.634   5.618  12.420  1.6637  0.4493 -0.0582
 3583TIP3   OH232239   5.351   4.075  15.270  0.0354 -0.7881 -0.1882
 3583TIP3    H132240   5.297   4.027  15.207 -0.7071  0.7759 -0.8023
 3583TIP3    H232241   5.327   4.040  15.355 -0.2301 -1.7154 -0.6291
 3584TIP3   OH232242   4.009   1.287   3.312  0.3812  0.2688 -0.2174
 3584TIP3    H132243   3.936   1.310   3.369 -0.0227  1.1906 -1.0691
 3584TIP3    H232244   4.087   1.317   3.360  0.0468  1.0656 -0.1517
 3585TIP3   OH232245   4.450   0.529   1.203 -0.3911  0.8325 -0.1453
 3585TIP3    H132246   4.490   0.605   1.161 -1.5475  0.6383 -1.7188
 3585TIP3    H232247   4.397   0.490   1.134 -2.3420  0.4165  1.5006
 3586TIP3   OH232248   4.946   0.003   0.061 -0.1893  0.7990  0.2939
 3586TIP3    H132249   4.955  -0.066  -0.004  2.4899  1.9451 -0.7216
 3586TIP3    H232250   4.976  -0.036   0.143  0.6185  0.5493 -0.1164
 3587TIP3   OH232251   6.227   6.339   4.256 -0.5443 -0.2916 -0.2879
 3587TIP3    H132252   6.314   6.313   4.226  0.1486  0.1026  1.2680
 3587TIP3    H232253   6.194   6.260   4.300  0.4565  0.5192  2.0742
 3588TIP3   OH232254   0.723   1.074  14.685  0.1309  0.1758  0.4005
 3588TIP3    H132255   0.704   1.009  14.618  1.6690  0.1857 -0.0826
 3588TIP3    H232256   0.815   1.098  14.670  0.1845  0.9739  1.8307
 3589TIP3   OH232257   0.639   0.288   4.004 -0.0207  0.0415  0.2519
 3589TIP3    H132258   0.625   0.276   3.910  0.1794 -0.2314  0.2530
 3589TIP3    H232259   0.605   0.375   4.023 -3.1166 -1.1291  0.5609
 3590TIP3   OH232260   4.925   4.995   4.060 -0.2781 -0.3528  0.2591
 3590TIP3    H132261   4.856   5.034   4.114 -0.7502  1.1377 -1.3225
 3590TIP3    H232262   5.002   4.992   4.117 -1.2074 -0.4906  1.5383
 3591TIP3   OH232263   0.188   1.373   1.393 -0.1377  0.0166 -0.2448
 3591TIP3    H132264   0.193   1.411   1.481  1.4250 -0.9058  0.1110
 3591TIP3    H232265   0.193   1.278   1.408 -3.0629 -0.3715 -1.1529
 3592TIP3   OH232266   3.080   2.182  13.518 -0.2269 -0.5589 -0.4564
 3592TIP3    H132267   3.081   2.225  13.432 -0.0290 -0.8527 -0.6031
 3592TIP3    H232268   3.048   2.094  13.500 -0.4198 -0.5442 -0.1878
 3593TIP3   OH232269   6.615   3.982   1.256 -0.1036 -0.2305 -0.5443
 3593TIP3    H132270   6.644   3.916   1.319 -1.1437  0.4062  0.6559
 3593TIP3    H232271   6.623   4.065   1.304 -0.2531  0.3480 -1.4970
 3594TIP3   OH232272   1.118   5.407  14.238  0.4858  0.0614 -0.1778
 3594TIP3    H132273   1.074   5.343  14.294  0.2809  0.2873 -0.0795
 3594TIP3    H232274   1.141   5.358  14.159  0.8987 -0.2927  0.1591
 3595TIP3   OH232275   1.171   0.785  10.639  0.3572 -0.3416  0.4638
 3595TIP3    H132276   1.150   0.765  10.548 -1.0953  0.7500  0.5276
 3595TIP3    H232277   1.093   0.760  10.688  0.3240  0.9633  1.1290
 3596TIP3   OH232278   4.941   1.056   0.317 -0.0599 -0.0359  0.4021
 3596TIP3    H132279   5.017   1.041   0.261 -0.2926  0.6139 -0.0903
 3596TIP3    H232280   4.925   0.971   0.358 -1.3306 -1.2146 -2.2987
 3597TIP3   OH232281   5.656   3.346  12.666  0.3981  0.1449  0.0722
 3597TIP3    H132282   5.567   3.348  12.630  1.6286  2.1155 -3.2733
 3597TIP3    H232283   5.665   3.430  12.711 -1.0319 -2.1571  5.6106
 3598TIP3   OH232284   5.082   5.174  13.985  0.1352 -0.2263  0.1724
 3598TIP3    H132285   5.114   5.171  13.895  1.5485 -3.4904  0.6362
 3598TIP3    H232286   5.149   5.128  14.035 -1.9834 -1.0660  2.4020
 3599TIP3   OH232287   3.176   1.883  15.282 -0.1789 -0.4287  0.1374
 3599TIP3    H132288   3.118   1.952  15.251  0.3860 -0.2642 -0.5544
 3599TIP3    H232289   3.127   1.802  15.267 -1.3267 -0.1605  1.9865
 3600TIP3   OH232290   4.503   2.303  14.682 -0.1277 -0.2697 -0.3902
 3600TIP3    H132291   4.420   2.264  14.709 -0.2431  0.9475  1.1611
 3600TIP3    H232292   4.568   2.235  14.696 -0.6232 -0.6448  0.1159
 3601TIP3   OH232293   0.037   3.596   5.847  0.1232  0.2874 -0.1663
 3601TIP3    H132294   0.108   3.610   5.784  1.7889  1.5501  1.8771
 3601TIP3    H232295   0.076   3.539   5.914 -1.7533 -1.4387 -0.4545
 3602TIP3   OH232296   3.949   0.626  11.761  0.1552 -0.2885 -0.1381
 3602TIP3    H132297   3.979   0.541  11.792  1.3587 -0.6379 -2.1163
 3602TIP3    H232298   3.876   0.605  11.702  1.2009 -0.0881 -1.5482
 3603TIP3   OH232299   6.602   5.932  11.420  0.7767  0.3797  0.4605
 3603TIP3    H132300   6.640   5.908  11.335 -0.5310  1.4249 -0.4736
 3603TIP3    H232301   6.604   6.027  11.421 -0.5791  0.4332  0.9273
 3604TIP3   OH232302   6.818   0.579  12.916  0.1354  0.1975  0.3536
 3604TIP3    H132303   6.738   0.527  12.910 -0.2623  0.8126  0.2496
 3604TIP3    H232304   6.788   0.670  12.914  0.7062  0.4542  1.9451
 3605TIP3   OH232305   6.672   0.030   4.458  0.4810 -0.0232  0.2940
 3605TIP3    H132306   6.631   0.045   4.373  1.5296 -0.5290 -0.3215
 3605TIP3    H232307   6.629  -0.048   4.492  0.5503 -0.2281 -0.0900
 3606TIP3   OH232308   5.709   4.915   6.389  0.9160 -0.4948  0.4784
 3606TIP3    H132309   5.691   4.852   6.459 -3.4837  0.6078  0.6317
 3606TIP3    H232310   5.736   4.994   6.435  1.1135 -0.6832  0.6919
 3607TIP3   OH232311   5.610   5.474   2.327 -0.1763  0.0140  0.4380
 3607TIP3    H132312   5.538   5.536   2.321  1.0408  1.7247  2.1743
 3607TIP3    H232313   5.689   5.529   2.324  0.9819 -1.5389  1.0723
 3608TIP3   OH232314   2.946   4.839   1.202  0.0110 -0.2947 -0.1425
 3608TIP3    H132315   2.912   4.884   1.125 -2.1710  1.5011  1.7237
 3608TIP3    H232316   2.947   4.746   1.178 -2.4174  0.0132 -1.7459
 3609TIP3   OH232317   1.243   0.312  13.921  0.2290  0.5931 -0.5460
 3609TIP3    H132318   1.184   0.338  13.992  1.0178  0.1544  0.2975
 3609TIP3    H232319   1.185   0.289  13.848 -0.6063  0.8711  0.0169
 3610TIP3   OH232320   2.192   6.176   2.390  0.4259  0.2152 -0.1800
 3610TIP3    H132321   2.152   6.222   2.317  2.7801  0.4042 -1.4317
 3610TIP3    H232322   2.215   6.246   2.453  1.9291  0.5656 -1.0628
 3611TIP3   OH232323   3.830   0.771   3.451  0.1712 -0.4930  0.1836
 3611TIP3    H132324   3.877   0.846   3.416 -1.0090  0.1717 -0.0157
 3611TIP3    H232325   3.747   0.807   3.483 -0.1594 -1.6140  0.6455
 3612TIP3   OH232326   5.522   4.734   4.718 -0.2637  0.3612  0.3791
 3612TIP3    H132327   5.433   4.762   4.695 -1.3224  0.0749  3.6621
 3612TIP3    H232328   5.525   4.740   4.813  3.1347 -0.1076  0.4101
 3613TIP3   OH232329   3.278   1.039  14.129 -0.2073  0.1785  0.7380
 3613TIP3    H132330   3.302   1.032  14.221  1.5834  0.0362  0.3069
 3613TIP3    H232331   3.336   0.977  14.085 -0.1867  1.1176 -0.6177
 3614TIP3   OH232332   5.527   2.731   0.342 -0.3473 -0.0387 -0.0709
 3614TIP3    H132333   5.522   2.827   0.345  0.8320  0.0870 -0.9752
 3614TIP3    H232334   5.605   2.714   0.288 -0.2377 -1.5070  0.5180
 3615TIP3   OH232335   3.657   1.906   1.059 -0.0810  0.5302 -0.1217
 3615TIP3    H132336   3.583   1.960   1.031 -1.0737 -0.1042  1.1836
 3615TIP3    H232337   3.649   1.902   1.154  2.0327  0.9762  0.1142
 3616TIP3   OH232338   2.418   2.811  15.516 -0.0668  0.3628  0.3881
 3616TIP3    H132339   2.424   2.717  15.533 -1.5640  0.4676  1.6839
 3616TIP3    H232340   2.434   2.852  15.601  0.3760  1.2812 -0.1218
 3617TIP3   OH232341   4.283   5.118  16.477 -0.3812 -0.3871 -0.2654
 3617TIP3    H132342   4.341   5.071  16.418 -0.4306  0.1989 -0.7883
 3617TIP3    H232343   4.195   5.101  16.443 -0.5120 -1.0599  0.3725
 3618TIP3   OH232344   4.800   0.577   4.907  0.3477 -0.0392 -0.2972
 3618TIP3    H132345   4.867   0.581   4.975  0.7089  1.1703 -0.6890
 3618TIP3    H232346   4.726   0.533   4.949  0.6934  0.3499  0.7657
 3619TIP3   OH232347   5.963   1.705  14.565 -0.3053  0.0311  0.0869
 3619TIP3    H132348   5.886   1.761  14.565 -0.6766 -0.4618 -0.9550
 3619TIP3    H232349   6.021   1.744  14.630 -0.6844  1.4508 -0.3923
 3620TIP3   OH232350   4.751   0.509   4.518 -0.1511  0.8850  0.1768
 3620TIP3    H132351   4.831   0.464   4.548 -0.2963  0.5266  0.0308
 3620TIP3    H232352   4.744   0.486   4.426 -0.3602  1.0120  0.1611
 3621TIP3   OH232353   6.603   0.652  12.378 -0.2633  0.2912  0.2908
 3621TIP3    H132354   6.623   0.745  12.369  0.1968  0.0842 -1.0797
 3621TIP3    H232355   6.642   0.627  12.462 -0.1516  1.2698  0.5399
 3622TIP3   OH232356   0.422   4.331  10.944  0.4830  0.0841 -0.3839
 3622TIP3    H132357   0.373   4.285  10.876 -0.0638  1.0408 -0.6607
 3622TIP3    H232358   0.392   4.292  11.026 -0.0410  0.0070 -0.6072
 3623TIP3   OH232359   2.548   5.416  13.058  0.5181 -0.3473 -0.0958
 3623TIP3    H132360   2.602   5.435  13.135  0.2800 -1.2159  0.3030
 3623TIP3    H232361   2.518   5.326  13.072  2.9148 -1.7104 -2.6357
 3624TIP3   OH232362   6.525   3.573  16.713  0.3191 -0.1332  0.1768
 3624TIP3    H132363   6.443   3.610  16.746 -0.1749  2.6981 -3.5160
 3624TIP3    H232364   6.593   3.610  16.769 -0.6395  2.1081 -0.0175
 3625TIP3   OH232365   3.422   1.971   2.532 -0.3316  0.1018 -0.0858
 3625TIP3    H132366   3.444   2.057   2.495  0.0116  0.5748  1.1749
 3625TIP3    H232367   3.455   1.909   2.467  1.6065  0.8756  0.0984
 3626TIP3   OH232368   6.035   2.910   2.388 -0.1062 -0.3452 -0.1776
 3626TIP3    H132369   5.948   2.925   2.352  0.8244 -0.5993 -2.7767
 3626TIP3    H232370   6.051   2.816   2.375  0.9869 -0.0892 -0.8943
 3627TIP3   OH232371   1.901   6.462   3.646  0.1237  0.6720 -0.3764
 3627TIP3    H132372   1.858   6.452   3.731  0.2762  0.4322 -0.3230
 3627TIP3    H232373   1.963   6.534   3.659 -0.4284  1.1756 -0.5251
 3628TIP3   OH232374   6.025   6.775   5.708  1.6276  0.0863  0.0525
 3628TIP3    H132375   6.015   6.683   5.734 -1.6961  0.7076  1.5291
 3628TIP3    H232376   5.994   6.825   5.784 -2.6686  2.2054 -2.6519
 3629TIP3   OH232377   6.368   1.641   5.210 -0.1945  0.3563 -0.2181
 3629TIP3    H132378   6.444   1.629   5.268 -1.1637 -1.9683  0.7326
 3629TIP3    H232379   6.358   1.736   5.202  1.9294  0.7224  0.7956
 3630TIP3   OH232380   0.370   3.934  14.166  0.3785 -0.1123 -0.4210
 3630TIP3    H132381   0.328   3.849  14.149 -3.0205  1.3312 -0.1060
 3630TIP3    H232382   0.367   3.944  14.261  1.8085 -0.0680 -0.3570
 3631TIP3   OH232383   4.749   3.099   5.231  0.2804  0.2025 -0.5503
 3631TIP3    H132384   4.798   3.129   5.308  1.0649 -0.8325 -0.6327
 3631TIP3    H232385   4.768   3.165   5.164  2.2601 -0.6075 -0.8316
 3632TIP3   OH232386   2.458   0.115   5.781 -0.3298 -0.4593  0.8691
 3632TIP3    H132387   2.464   0.093   5.874 -1.6474  1.6761  1.5437
 3632TIP3    H232388   2.424   0.205   5.780  0.0506 -0.2710 -1.6819
 3633TIP3   OH232389   0.586   3.960  14.734  0.2007  0.2931 -0.5203
 3633TIP3    H132390   0.516   3.972  14.798 -0.4831  2.6088 -1.5776
 3633TIP3    H232391   0.541   3.954  14.650  1.2165  1.2276 -1.1621
 3634TIP3   OH232392   6.033   5.259   2.633 -0.1251 -0.2000 -0.2666
 3634TIP3    H132393   6.067   5.178   2.596 -1.0829 -0.3987 -0.7471
 3634TIP3    H232394   6.001   5.308   2.558  0.7477  0.7892 -0.0206
 3635TIP3   OH232395   4.099   0.295   1.566  0.0245 -0.5412 -0.4828
 3635TIP3    H132396   4.113   0.335   1.480  0.1171 -1.6046 -0.9815
 3635TIP3    H232397   4.127   0.204   1.555 -2.6702 -1.5098 -0.1714
 3636TIP3   OH232398   4.441   0.255   4.397 -0.3237  0.3473  0.7286
 3636TIP3    H132399   4.419   0.318   4.328 -1.3206 -0.7569  0.0018
 3636TIP3    H232400   4.531   0.230   4.379 -0.3119  0.6707  0.3098
 3637TIP3   OH232401   0.423   0.840   1.369  0.3493 -0.1615 -0.3953
 3637TIP3    H132402   0.443   0.846   1.276 -1.1056  0.6718 -0.6782
 3637TIP3    H232403   0.328   0.842   1.374  0.3804  2.1339  1.2132
 3638TIP3   OH232404   6.423   0.597   0.984  0.0323 -0.1101 -0.5703
 3638TIP3    H132405   6.439   0.671   1.042 -0.2792 -0.4472 -0.0404
 3638TIP3    H232406   6.370   0.632   0.913  1.3080  0.5508 -1.2351
 3639TIP3   OH232407   0.469   6.762  14.073  0.1561 -0.0034 -0.0138
 3639TIP3    H132408   0.523   6.791  14.146 -1.7937  0.0194  1.4934
 3639TIP3    H232409   0.530   6.757  13.999  1.8406  1.7151  1.1523
 3640TIP3   OH232410   2.146   3.779   0.732  0.4669  0.3577  0.1998
 3640TIP3    H132411   2.072   3.837   0.714  0.4143 -0.1316 -1.3106
 3640TIP3    H232412   2.138   3.758   0.825 -0.6440  1.1942  0.3133
 3641TIP3   OH232413   0.367   5.337  13.238  0.9585  0.7462 -0.3455
 3641TIP3    H132414   0.414   5.313  13.318  1.4442 -2.4882 -1.4467
 3641TIP3    H232415   0.436   5.347  13.172  0.3991 -2.2306 -1.5483
 3642TIP3   OH232416   4.614   5.016   1.977 -0.2046 -0.1737  0.3158
 3642TIP3    H132417   4.520   5.031   1.967  0.0572  3.1966  1.4742
 3642TIP3    H232418   4.650   5.025   1.888 -0.8552 -0.3014  0.0368
 3643TIP3   OH232419   4.802   0.361   1.611 -0.1413 -0.9263 -0.3659
 3643TIP3    H132420   4.761   0.360   1.525 -1.4039 -2.9733  0.2032
 3643TIP3    H232421   4.729   0.360   1.673  0.7345  0.9308  0.7957
 3644TIP3   OH232422   0.354   5.417  16.333  0.2384  0.5185 -0.3244
 3644TIP3    H132423   0.299   5.484  16.374 -0.3072  1.2188 -2.0784
 3644TIP3    H232424   0.436   5.463  16.313  0.3334  0.3096 -0.4154
 3645TIP3   OH232425   6.667   0.175  15.864  0.1774 -0.3574 -0.0525
 3645TIP3    H132426   6.713   0.161  15.782  0.1863  1.8425 -0.4894
 3645TIP3    H232427   6.733   0.212  15.923 -0.0212 -1.1603  0.6873
 3646TIP3   OH232428   0.691   1.080  11.071  0.0491  0.2322  0.2470
 3646TIP3    H132429   0.635   1.076  11.149  0.0582  1.1188  0.3143
 3646TIP3    H232430   0.643   1.031  11.005 -0.3083  0.0860  0.6083
 3647TIP3   OH232431   0.490   0.140  13.538 -0.2499 -0.0784 -0.0445
 3647TIP3    H132432   0.480   0.077  13.467 -0.2802  0.4053 -0.4749
 3647TIP3    H232433   0.471   0.225  13.498 -1.1446  0.1078  0.7507
 3648TIP3   OH232434   2.423   4.939  16.511 -0.2076 -0.3930 -0.4938
 3648TIP3    H132435   2.495   4.886  16.545  0.4234  1.7510  1.8278
 3648TIP3    H232436   2.461   4.989  16.439  1.1255  1.5605  1.4120
 3649TIP3   OH232437   5.249   3.238   4.704 -0.3168  0.3724 -0.6826
 3649TIP3    H132438   5.205   3.153   4.694  0.9430 -0.0647 -3.3464
 3649TIP3    H232439   5.332   3.216   4.745 -0.2943  0.4156 -0.7060
 3650TIP3   OH232440   2.467   2.306  17.142 -0.5508  0.2328 -0.0680
 3650TIP3    H132441   2.553   2.291  17.105 -0.1133  1.1949  0.5224
 3650TIP3    H232442   2.406   2.273  17.076  0.2704 -2.4370  0.3816
 3651TIP3   OH232443   5.568   5.570  11.927  0.3446  0.1428  0.0773
 3651TIP3    H132444   5.540   5.482  11.902  1.0783  0.3345 -1.5441
 3651TIP3    H232445   5.663   5.563  11.935  0.3086  0.5627  0.9809
 3652TIP3   OH232446   3.844   5.532  14.144  0.5232  0.0521  0.0312
 3652TIP3    H132447   3.935   5.555  14.162  0.1173  0.6449  1.4151
 3652TIP3    H232448   3.797   5.615  14.147  0.0056 -0.1718 -1.2508
 3653TIP3   OH232449   5.768   2.012  16.549  0.2513 -0.6573 -0.8257
 3653TIP3    H132450   5.805   1.945  16.606  0.2369 -0.8889 -1.0857
 3653TIP3    H232451   5.740   1.964  16.471 -0.5023 -0.4779 -0.6772
 3654TIP3   OH232452   3.168   3.691  11.940 -0.0993  0.2412 -0.0518
 3654TIP3    H132453   3.199   3.782  11.932  0.9606 -0.1192 -0.3070
 3654TIP3    H232454   3.218   3.656  12.013  1.1113 -0.7349 -1.2848
 3655TIP3   OH232455   1.836   5.881  11.223  0.1823  0.0596 -0.2335
 3655TIP3    H132456   1.783   5.951  11.184  0.6505  0.9915  0.7625
 3655TIP3    H232457   1.890   5.925  11.288  0.4095 -1.2490  0.4999
 3656TIP3   OH232458   5.079   6.413   6.699 -0.4582 -0.0729 -0.0413
 3656TIP3    H132459   5.074   6.319   6.686  0.6734 -0.3868  1.5067
 3656TIP3    H232460   5.150   6.425   6.762  0.1242  1.8957 -0.9814
 3657TIP3   OH232461   2.085   1.437  16.254  0.0130 -0.0210 -0.8712
 3657TIP3    H132462   2.053   1.470  16.170 -2.0139 -2.0158 -0.9885
 3657TIP3    H232463   2.030   1.361  16.273  0.9684 -0.1664  1.8750
 3658TIP3   OH232464   6.539   1.781  16.992 -0.3322  0.3661  0.2273
 3658TIP3    H132465   6.525   1.687  17.002 -1.3090  0.4674 -0.0724
 3658TIP3    H232466   6.603   1.789  16.922 -1.2348 -0.0552 -0.6731
 3659TIP3   OH232467   4.165   3.085   3.050  0.2351 -0.6549  0.9330
 3659TIP3    H132468   4.141   3.004   3.005 -1.0888  0.2135 -0.0141
 3659TIP3    H232469   4.081   3.131   3.061  1.0823  1.0806  0.4228
 3660TIP3   OH232470   3.024   5.326  12.237  0.3235 -0.2706 -0.1217
 3660TIP3    H132471   2.958   5.283  12.291 -0.0063 -1.3241 -1.3073
 3660TIP3    H232472   3.049   5.260  12.173  1.0558  0.7716 -0.9483
 3661TIP3   OH232473   0.763   0.982  16.871  0.5646 -0.6591 -0.4119
 3661TIP3    H132474   0.674   0.981  16.836  1.2949 -0.0393 -2.4579
 3661TIP3    H232475   0.819   0.970  16.794  2.2864  0.0420  0.6651
 3662TIP3   OH232476   5.948   3.035  16.736 -0.0189  0.3172 -0.2693
 3662TIP3    H132477   5.896   3.093  16.680  2.2673  3.5617  0.7303
 3662TIP3    H232478   5.923   3.059  16.825  1.0927 -0.1352  0.1791
 3663TIP3   OH232479   0.238   2.415   1.282  0.0087 -0.0616 -0.0384
 3663TIP3    H132480   0.281   2.347   1.334 -1.0704 -0.9860 -0.3230
 3663TIP3    H232481   0.157   2.375   1.251  0.9570  0.1840 -3.1196
 3664TIP3   OH232482   1.674   2.821  12.875  0.5350  0.1942  0.0941
 3664TIP3    H132483   1.708   2.886  12.937  0.6609 -0.4482  0.7082
 3664TIP3    H232484   1.586   2.801  12.908  0.4892  0.0714 -0.1053
 3665TIP3   OH232485   2.136   0.860  15.880 -0.2992  0.2525  0.1125
 3665TIP3    H132486   2.146   0.765  15.879 -1.3199  0.1136 -1.9169
 3665TIP3    H232487   2.223   0.893  15.901  0.6489 -1.0976 -1.5082
 3666TIP3   OH232488   5.980   6.087   6.053  0.1945 -0.1221 -0.2093
 3666TIP3    H132489   5.925   6.094   6.131  0.3444  0.6817 -0.1630
 3666TIP3    H232490   6.068   6.073   6.087 -0.0318 -2.0108 -0.2943
 3667TIP3   OH232491   0.665   4.195   6.104 -0.1897  0.4772  0.0707
 3667TIP3    H132492   0.672   4.141   6.026  0.4682 -1.1570  1.1995
 3667TIP3    H232493   0.727   4.267   6.089  0.0519  0.0900 -0.8243
 3668TIP3   OH232494   3.581   1.588   5.501  0.8044  0.3825 -0.5214
 3668TIP3    H132495   3.619   1.531   5.434 -1.4328 -2.0496  0.1224
 3668TIP3    H232496   3.492   1.556   5.513  0.7865  1.2990  2.9528
 3669TIP3   OH232497   0.484   2.278   3.962  0.2044  0.4567 -0.1339
 3669TIP3    H132498   0.447   2.360   3.930 -0.5998 -0.2339 -1.0173
 3669TIP3    H232499   0.485   2.288   4.058  0.0668  1.4654 -0.2260
 3670TIP3   OH232500   6.147   3.822  14.199 -0.3083 -0.0533 -0.0252
 3670TIP3    H132501   6.229   3.795  14.241  1.4758  0.4686 -2.9470
 3670TIP3    H232502   6.110   3.887  14.259  1.4237 -0.2550  1.3347
 3671TIP3   OH232503   2.324   4.580   0.138 -0.6197  0.6060 -0.3172
 3671TIP3    H132504   2.320   4.494   0.096  1.1815  0.2718  0.1128
 3671TIP3    H232505   2.393   4.572   0.204  0.4726  2.7139 -1.0942
 3672TIP3   OH232506   0.201   1.664   2.717  0.2528 -0.7831 -0.1840
 3672TIP3    H132507   0.150   1.704   2.647 -1.3343 -1.1167  0.7300
 3672TIP3    H232508   0.264   1.731   2.743  1.7188 -1.0571 -2.6890
 3673TIP3   OH232509   2.958   4.832  15.412  0.4189  0.1979  0.1546
 3673TIP3    H132510   2.863   4.824  15.404  0.5243 -2.0934  0.5600
 3673TIP3    H232511   2.991   4.812  15.325  0.5747 -0.3665  0.3412
 3674TIP3   OH232512   2.033   5.482  10.980  0.8097 -0.2515  0.0249
 3674TIP3    H132513   2.025   5.398  11.025 -1.0113 -1.0122 -1.5656
 3674TIP3    H232514   2.017   5.548  11.047 -2.4794 -1.3497  0.4835
 3675TIP3   OH232515   4.602   1.628  15.528 -0.2024  0.2606 -0.0303
 3675TIP3    H132516   4.607   1.671  15.613  2.0548 -0.2531  0.1444
 3675TIP3    H232517   4.601   1.699  15.464  2.2279  0.6501  0.3020
 3676TIP3   OH232518   6.627   6.788   0.360 -0.8319  0.4660 -0.5009
 3676TIP3    H132519   6.720   6.773   0.343 -1.0009  0.2310 -1.2409
 3676TIP3    H232520   6.625   6.821   0.450  0.1881  2.5625 -1.1675
 3677TIP3   OH232521   3.222   6.106  16.305  0.1613 -0.0054 -0.3580
 3677TIP3    H132522   3.132   6.130  16.283 -0.4878 -0.5487  1.5519
 3677TIP3    H232523   3.267   6.104  16.220 -1.3484  1.3053 -1.2429
 3678TIP3   OH232524   1.933   2.137   2.024 -0.3128 -0.2751  0.3516
 3678TIP3    H132525   1.852   2.183   2.047 -1.2956 -1.4343 -0.6501
 3678TIP3    H232526   1.985   2.202   1.978 -1.2259  0.1321 -0.1344
 3679TIP3   OH232527   5.669   5.353  14.528 -0.3384 -0.0904 -0.4348
 3679TIP3    H132528   5.697   5.413  14.458  2.1182 -0.1851  0.3792
 3679TIP3    H232529   5.659   5.409  14.605  2.4654 -0.6570  0.4611
 3680TIP3   OH232530   6.096   1.167  16.399  0.1227 -0.0318  0.4829
 3680TIP3    H132531   6.148   1.228  16.452  1.1284  0.2295 -0.7828
 3680TIP3    H232532   6.133   1.081  16.418  1.3294  0.1947 -0.7208
 3681TIP3   OH232533   6.263   5.299   4.572  0.3255  0.0431 -0.3646
 3681TIP3    H132534   6.299   5.387   4.577  1.8416 -0.5693  0.1555
 3681TIP3    H232535   6.310   5.258   4.499  1.0095 -0.9058  0.5867
 3682TIP3   OH232536   0.998   0.287  16.041  0.0960  0.5827 -0.3135
 3682TIP3    H132537   1.066   0.224  16.015 -1.3433 -1.9690  1.5681
 3682TIP3    H232538   0.919   0.234  16.049 -1.2532  2.6837  1.2664
 3683TIP3   OH232539   0.152   1.888   1.256 -0.4216  0.7266  0.4268
 3683TIP3    H132540   0.190   1.800   1.250  1.8509  1.6465  0.5596
 3683TIP3    H232541   0.182   1.922   1.340  1.2231  2.6840 -0.8675
 3684TIP3   OH232542   2.118   1.158  17.146  0.0184  0.3396 -0.1366
 3684TIP3    H132543   2.166   1.121  17.072  0.8465  1.5248 -0.2321
 3684TIP3    H232544   2.031   1.179  17.110  0.7416  1.8658 -1.1043
 3685TIP3   OH232545   6.436   6.655   4.025 -0.0373  0.1635 -0.0551
 3685TIP3    H132546   6.351   6.684   4.056  1.1223  0.1719  3.5712
 3685TIP3    H232547   6.479   6.618   4.102  3.4037  0.5026 -1.5949
 3686TIP3   OH232548   2.378   1.448  14.038 -0.0615 -0.3850 -0.0332
 3686TIP3    H132549   2.309   1.382  14.044  0.0399 -0.6150 -1.2034
 3686TIP3    H232550   2.443   1.420  14.103 -1.0324 -0.1827  1.0571
 3687TIP3   OH232551   1.822   6.379  13.587  0.0323  0.3613  0.1437
 3687TIP3    H132552   1.756   6.365  13.519 -0.0411  0.4922  0.1878
 3687TIP3    H232553   1.869   6.295  13.593 -0.5552  0.0606  0.5744
 3688TIP3   OH232554   2.731   6.085  12.080 -0.6990  0.1381  0.0283
 3688TIP3    H132555   2.665   6.084  12.149  0.0584  0.0498  0.7572
 3688TIP3    H232556   2.748   5.993  12.062  0.7434  0.1301  1.3202
 3689TIP3   OH232557   3.599   6.624   6.460 -0.5408 -0.6701 -0.1731
 3689TIP3    H132558   3.575   6.692   6.398 -0.7161 -0.7152 -0.1541
 3689TIP3    H232559   3.695   6.620   6.455 -0.4800 -0.0149  0.2551
 3690TIP3   OH232560   1.916   4.584  16.345  0.2892  0.1200  0.4606
 3690TIP3    H132561   1.918   4.665  16.397 -0.6843  0.5838 -0.2046
 3690TIP3    H232562   1.885   4.518  16.407  2.0533  0.0204  1.2859
 3691TIP3   OH232563   1.828   6.115   5.003  0.0396  0.3134 -0.2475
 3691TIP3    H132564   1.862   6.035   4.962  0.6977  0.7344 -0.5225
 3691TIP3    H232565   1.904   6.157   5.043 -0.6887 -0.5207  2.2265
 3692TIP3   OH232566   0.265   1.696   4.298  0.8867 -0.1003  0.4315
 3692TIP3    H132567   0.346   1.652   4.274  0.5718 -1.1052  1.1815
 3692TIP3    H232568   0.291   1.788   4.311  1.4743  0.0552 -1.5219
 3693TIP3   OH232569   6.577   1.437  15.513 -0.0831  0.8415  0.4404
 3693TIP3    H132570   6.534   1.372  15.569 -1.5557  2.4055  1.2130
 3693TIP3    H232571   6.608   1.387  15.438 -0.5229 -0.8690  1.3536
 3694TIP3   OH232572   1.244   6.389  16.561 -0.3545 -0.5064  0.0702
 3694TIP3    H132573   1.168   6.368  16.615 -1.1906  0.0076 -0.8639
 3694TIP3    H232574   1.211   6.387  16.471  0.4523  0.8648 -0.2939
 3695TIP3   OH232575   1.416   5.066   0.055  0.3355  0.4278  0.7025
 3695TIP3    H132576   1.323   5.088   0.049 -0.1323 -0.5410  3.1092
 3695TIP3    H232577   1.418   4.970   0.052  1.2295  0.4312  0.8457
 3696TIP3   OH232578   3.406   4.483   1.829  0.0944  0.5884  0.2091
 3696TIP3    H132579   3.405   4.412   1.894 -1.2254  0.0718 -0.3424
 3696TIP3    H232580   3.499   4.496   1.809  0.4343 -0.1445  1.2172
 3697TIP3   OH232581   2.601   6.152   0.492 -0.0702  0.2871  0.2206
 3697TIP3    H132582   2.684   6.118   0.526  0.7720  0.6661 -1.3254
 3697TIP3    H232583   2.542   6.077   0.492  1.4793 -1.0724 -2.3059
 3698TIP3   OH232584   2.834   5.238  15.568 -0.2177 -0.3080 -0.1602
 3698TIP3    H132585   2.892   5.162  15.557  3.0047  2.0368 -0.9308
 3698TIP3    H232586   2.858   5.274  15.653 -0.7052  0.6488 -0.4185
 3699TIP3   OH232587   4.435   5.159  11.644  0.0300  0.5837  0.1726
 3699TIP3    H132588   4.420   5.244  11.603 -0.6703  0.3108 -0.1524
 3699TIP3    H232589   4.401   5.095  11.581  0.3828  0.0715  0.4905
 3700TIP3   OH232590   1.446   2.205  13.542 -0.3983  0.1290 -0.2116
 3700TIP3    H132591   1.511   2.230  13.607 -1.3562 -0.9001  1.2192
 3700TIP3    H232592   1.489   2.217  13.458  0.7929  1.7911  0.5744
 3701TIP3   OH232593   5.536   4.747  14.750  0.7054  0.5914 -0.4641
 3701TIP3    H132594   5.497   4.761  14.663  0.8824  0.3475 -0.5849
 3701TIP3    H232595   5.627   4.773  14.739  0.8214  0.1902 -0.4558
 3702TIP3   OH232596   5.513   5.905  13.843  0.0843  0.1807 -0.1177
 3702TIP3    H132597   5.556   5.973  13.791  1.1163  0.0931  0.5905
 3702TIP3    H232598   5.564   5.901  13.924 -1.4627  0.2905  0.9046
 3703TIP3   OH232599   3.664   3.446  12.005 -0.1281 -0.1649 -0.0404
 3703TIP3    H132600   3.730   3.512  12.029 -1.9122  1.2695  1.1541
 3703TIP3    H232601   3.640   3.405  12.088 -0.5445 -0.8684 -0.5031
 3704TIP3   OH232602   1.950   2.373  15.103 -0.2539  0.5653 -0.2078
 3704TIP3    H132603   1.971   2.347  15.014  1.0405  0.4854  0.1073
 3704TIP3    H232604   1.862   2.410  15.097 -0.2436  0.4220 -1.4836
 3705TIP3   OH232605   6.644   2.307   0.241 -0.1111 -0.1379 -0.2127
 3705TIP3    H132606   6.576   2.241   0.231  0.3821 -0.6889 -0.0159
 3705TIP3    H232607   6.644   2.327   0.335  1.0643 -1.3363  0.0849
 3706TIP3   OH232608   3.049   1.505   2.132  0.2657  0.0819  0.9628
 3706TIP3    H132609   3.015   1.443   2.196 -0.9457  0.6347  0.8761
 3706TIP3    H232610   3.143   1.488   2.130 -0.0618 -1.8583  0.7998
 3707TIP3   OH232611   3.945   0.726   2.013 -0.7174  0.8003  0.0738
 3707TIP3    H132612   3.971   0.806   2.059 -1.0044  1.2348 -0.5162
 3707TIP3    H232613   3.855   0.742   1.986 -0.3592  0.8011 -1.1770
 3708TIP3   OH232614   2.888   2.213   3.031 -0.6283  0.1427  0.2392
 3708TIP3    H132615   2.914   2.144   2.969 -1.1991  0.9629 -0.9362
 3708TIP3    H232616   2.953   2.206   3.101  2.7757  1.8730 -2.3979
 3709TIP3   OH232617   1.643   0.709   5.795  0.3353 -0.0201 -0.1165
 3709TIP3    H132618   1.726   0.713   5.747  0.7947  0.2606  0.6746
 3709TIP3    H232619   1.621   0.801   5.812 -0.1543 -0.0922 -0.3276
 3710TIP3   OH232620   6.265   3.033   2.452  0.0518  0.0609 -0.2211
 3710TIP3    H132621   6.289   3.007   2.541  1.1991 -0.9545 -0.7943
 3710TIP3    H232622   6.185   2.984   2.433  1.1637 -1.6657 -0.6105
 3711TIP3   OH232623   1.667   5.468   4.708  0.2707  0.1835 -0.2474
 3711TIP3    H132624   1.667   5.547   4.762  2.0965 -1.0176  1.6744
 3711TIP3    H232625   1.680   5.396   4.770  1.3020 -1.3879 -2.1652
 3712TIP3   OH232626   3.809   0.047  12.966  0.2823  0.2087 -0.1060
 3712TIP3    H132627   3.875   0.064  13.034  0.8397  2.8095 -1.1779
 3712TIP3    H232628   3.858   0.003  12.897 -0.0337 -1.4059  0.6562
 3713TIP3   OH232629   1.239   0.219  10.785 -0.3286 -0.8146  0.0007
 3713TIP3    H132630   1.176   0.152  10.759  0.6019 -2.2207  1.2541
 3713TIP3    H232631   1.189   0.301  10.783 -2.4713 -1.9753  1.7561
 3714TIP3   OH232632   4.551   5.110   2.987 -0.6821 -0.6140  0.0931
 3714TIP3    H132633   4.636   5.099   3.029  0.2795  0.4711 -1.4486
 3714TIP3    H232634   4.513   5.022   2.987  0.5728 -1.1805  0.5692
 3715TIP3   OH232635   6.513   0.644  15.261 -0.0285 -0.3113  0.2519
 3715TIP3    H132636   6.550   0.647  15.349 -1.4569 -1.5343  0.9341
 3715TIP3    H232637   6.589   0.645  15.203  0.9271  1.2812  1.4318
 3716TIP3   OH232638   5.718   3.195  13.570 -0.8552  0.8435 -0.1313
 3716TIP3    H132639   5.791   3.257  13.575 -1.3239  1.3846  0.1389
 3716TIP3    H232640   5.750   3.117  13.615 -0.6336  1.2734  0.4796
 3717TIP3   OH232641   6.130   5.999  15.769 -0.0067 -0.3392 -0.7658
 3717TIP3    H132642   6.165   6.081  15.804  0.4041 -0.6763 -0.3748
 3717TIP3    H232643   6.098   5.951  15.846 -3.9072  1.0945 -1.2978
 3718TIP3   OH232644   5.378   6.716   5.523  0.0883  0.2470 -0.0083
 3718TIP3    H132645   5.385   6.753   5.435  1.1862  0.2985  0.0961
 3718TIP3    H232646   5.343   6.627   5.509  1.3135 -0.1538 -0.5947
 3719TIP3   OH232647   1.136   6.389   2.517 -0.2804 -0.0484  0.1802
 3719TIP3    H132648   1.153   6.365   2.426  0.4051 -0.7845  0.5007
 3719TIP3    H232649   1.213   6.360   2.565 -0.4704  0.6777  0.9480
 3720TIP3   OH232650   5.792   0.750  16.193  0.0235 -0.4163 -0.2455
 3720TIP3    H132651   5.789   0.669  16.244  0.6196 -1.7971 -2.2628
 3720TIP3    H232652   5.882   0.781  16.202 -0.2504  0.1193  0.6659
 3721TIP3   OH232653   1.202   4.334   1.762  0.2030  0.2416  0.2112
 3721TIP3    H132654   1.221   4.283   1.684  0.2217  0.4458  0.0815
 3721TIP3    H232655   1.211   4.272   1.834  0.6734  0.1707  0.0950
 3722TIP3   OH232656   0.650   4.303  14.397  0.0257  0.2338 -0.2974
 3722TIP3    H132657   0.696   4.297  14.480  0.6840  1.3526 -0.5616
 3722TIP3    H232658   0.698   4.245  14.338  0.7529  0.9524 -0.4163
 3723TIP3   OH232659   5.474   3.769  13.350 -0.1059 -0.1341  0.6030
 3723TIP3    H132660   5.409   3.757  13.281  0.0477  1.8117  0.0563
 3723TIP3    H232661   5.539   3.700  13.335 -0.2440  0.0500 -1.0113
 3724TIP3   OH232662   4.868   0.580  15.531  0.0254  0.3476  0.5973
 3724TIP3    H132663   4.909   0.496  15.513  0.8990  1.0622 -1.0718
 3724TIP3    H232664   4.935   0.630  15.577  0.2889  0.7915 -0.2340
 3725TIP3   OH232665   2.056   0.916   2.836 -0.1994  0.1808  0.0152
 3725TIP3    H132666   2.089   0.975   2.768  0.6589  0.4070  0.6052
 3725TIP3    H232667   1.973   0.885   2.802  0.7420 -0.6390 -1.6732
 3726TIP3   OH232668   3.877   0.811   5.214 -0.5050  0.0206 -0.1777
 3726TIP3    H132669   3.837   0.765   5.140 -0.2048  0.8136 -0.8473
 3726TIP3    H232670   3.966   0.776   5.219 -0.7823 -0.6246  0.3332
 3727TIP3   OH232671   4.334   4.957  13.967 -0.1972 -0.3079  0.2792
 3727TIP3    H132672   4.323   4.896  13.894  2.5742  0.2386 -0.7164
 3727TIP3    H232673   4.387   4.908  14.030 -1.5121 -0.3391  1.3838
 3728TIP3   OH232674   5.859   5.551  16.974 -0.4110  0.0583  0.7865
 3728TIP3    H132675   5.876   5.458  16.988  2.2860  0.2143 -0.6286
 3728TIP3    H232676   5.867   5.590  17.061  0.4376 -0.8284  1.1334
 3729TIP3   OH232677   0.218   4.727  16.028 -0.0177 -0.3451 -0.2301
 3729TIP3    H132678   0.227   4.710  15.934  1.4501 -0.5781 -0.0798
 3729TIP3    H232679   0.124   4.738  16.042 -0.3716 -1.4882 -1.5125
 3730TIP3   OH232680   0.705   4.785  14.586  0.2410  0.7047 -0.2452
 3730TIP3    H132681   0.681   4.729  14.659 -1.5909  0.4853 -0.9446
 3730TIP3    H232682   0.651   4.754  14.513  1.0368  1.7541 -1.3362
 3731TIP3   OH232683   1.690   4.565   5.514 -0.0211  0.1597  0.0150
 3731TIP3    H132684   1.716   4.612   5.593  1.3853 -1.8298  0.8278
 3731TIP3    H232685   1.730   4.479   5.524 -0.8765 -0.5671 -2.2944
 3732TIP3   OH232686   3.149   5.815   2.280 -0.3470 -0.0824 -0.3487
 3732TIP3    H132687   3.179   5.835   2.191  1.9164 -0.8995  0.1470
 3732TIP3    H232688   3.058   5.788   2.270 -0.0137 -0.5817 -2.4763
 3733TIP3   OH232689   4.298   3.088  10.974 -0.2042 -0.0883 -0.2819
 3733TIP3    H132690   4.209   3.108  11.002 -0.3562  0.0564 -0.8451
 3733TIP3    H232691   4.304   2.993  10.980 -0.1318 -0.0411  0.5133
 3734TIP3   OH232692   2.029   2.887  15.889 -0.0329 -0.1188 -0.6584
 3734TIP3    H132693   2.047   2.852  15.976  0.2971  0.1719 -0.6062
 3734TIP3    H232694   2.020   2.810  15.833 -1.4782 -0.3505 -0.1359
 3735TIP3   OH232695   2.716   1.444  11.982  0.6014  0.5966 -0.4668
 3735TIP3    H132696   2.665   1.437  12.063  0.9765  0.8648 -0.2050
 3735TIP3    H232697   2.694   1.531  11.948  0.4431  0.4838 -0.6588
 3736TIP3   OH232698   1.687   5.330   4.952 -0.1038 -0.6663 -0.5453
 3736TIP3    H132699   1.617   5.291   5.005 -0.8700 -0.5751 -1.4594
 3736TIP3    H232700   1.757   5.349   5.014  0.0113 -2.8104  0.0710
 3737TIP3   OH232701   3.778   1.204   5.053  0.7724  0.4125 -0.0588
 3737TIP3    H132702   3.792   1.120   5.011  1.6749  0.0206  0.9770
 3737TIP3    H232703   3.838   1.204   5.128 -0.6892  1.1065  1.1814
 3738TIP3   OH232704   3.024   5.779   1.213  0.2858  0.3828 -0.5442
 3738TIP3    H132705   3.048   5.687   1.206  0.5201  0.3444  0.5751
 3738TIP3    H232706   2.963   5.783   1.287  0.3671  1.1397 -0.5048
 3739TIP3   OH232707   2.800   0.523  11.628  0.0760 -0.0814  0.4144
 3739TIP3    H132708   2.891   0.532  11.599  0.5027  1.0624  2.0128
 3739TIP3    H232709   2.748   0.541  11.549  1.2174  1.1818 -0.0801
 3740TIP3   OH232710   6.653   1.199  14.133  0.1236  0.2701 -0.3180
 3740TIP3    H132711   6.575   1.204  14.188  0.5763 -1.0230  0.4995
 3740TIP3    H232712   6.716   1.149  14.186  0.4978 -1.2540 -2.0921
 3741TIP3   OH232713   1.022   5.657   5.522 -0.1844  0.1118  0.0262
 3741TIP3    H132714   1.085   5.588   5.504 -0.9065 -0.7894  0.8498
 3741TIP3    H232715   1.075   5.735   5.538  0.7610 -0.7275  1.1726
 3742TIP3   OH232716   2.147   5.919  16.056 -0.0252  0.9323  0.7260
 3742TIP3    H132717   2.221   5.869  16.023  0.4665  1.6046  0.8057
 3742TIP3    H232718   2.071   5.864  16.036  0.5147  0.0676  0.9837
 3743TIP3   OH232719   3.860   1.266  14.459  0.2511  0.1558  0.7218
 3743TIP3    H132720   3.765   1.277  14.465  0.3341  0.6569  1.2643
 3743TIP3    H232721   3.873   1.204  14.388 -0.4052  1.3822 -0.5327
 3744TIP3   OH232722   2.251   0.632  12.684 -0.0092 -0.5425 -0.3979
 3744TIP3    H132723   2.242   0.537  12.698  0.4463 -0.6794 -0.9730
 3744TIP3    H232724   2.327   0.640  12.626  0.2312  0.2088  0.0138
 3745TIP3   OH232725   4.681   3.701   0.239 -0.0235 -0.1928  0.9421
 3745TIP3    H132726   4.662   3.696   0.332 -3.6587  0.1694  0.3619
 3745TIP3    H232727   4.663   3.792   0.215  1.7125 -0.0403 -0.0365
 3746TIP3   OH232728   6.185   6.135  15.184  0.4116 -0.6354  0.1046
 3746TIP3    H132729   6.205   6.078  15.110  0.5891  0.6135 -0.8186
 3746TIP3    H232730   6.270   6.160  15.220  0.3261 -1.5444  1.0065
 3747TIP3   OH232731   2.992   2.935   5.184  0.1764  0.1829 -0.1752
 3747TIP3    H132732   2.980   2.909   5.093 -2.1485 -1.0536  0.3843
 3747TIP3    H232733   2.963   3.026   5.187  1.1135  0.5107 -0.8081
 3748TIP3   OH232734   6.745   2.510  12.172 -0.7415  0.4273  0.1089
 3748TIP3    H132735   6.787   2.444  12.228  0.5966  1.8324  0.8117
 3748TIP3    H232736   6.709   2.459  12.099  0.4265 -1.0577  0.5143
 3749TIP3   OH232737   2.061   1.704   0.739 -0.1049  0.3582 -0.1868
 3749TIP3    H132738   2.039   1.722   0.831 -1.6839 -1.0242 -0.2490
 3749TIP3    H232739   2.024   1.778   0.691 -1.4332 -0.1046  0.0827
 3750TIP3   OH232740   4.146   0.010   2.299 -0.5059  0.2841 -0.1682
 3750TIP3    H132741   4.174  -0.039   2.376 -2.3972 -0.7081 -0.0687
 3750TIP3    H232742   4.128   0.098   2.332  0.2628  0.3290  0.1720
 3751TIP3   OH232743   0.645   3.733  11.651 -0.2326  0.7187  0.6095
 3751TIP3    H132744   0.554   3.733  11.621  0.0998 -1.2889 -0.6192
 3751TIP3    H232745   0.689   3.673  11.591  1.4294 -0.0989  2.5361
 3752TIP3   OH232746   5.881   2.403  15.383  0.1401 -0.1500 -0.0758
 3752TIP3    H132747   5.930   2.325  15.409  2.7820  1.9894  1.9080
 3752TIP3    H232748   5.948   2.468  15.361 -1.8500  2.1009  0.0258
 3753TIP3   OH232749   1.203   4.339  13.905  0.0358 -0.6682 -0.9646
 3753TIP3    H132750   1.173   4.269  13.964  0.0809  0.1472  0.0627
 3753TIP3    H232751   1.124   4.371  13.863 -0.2386 -0.1990 -0.1284
 3754TIP3   OH232752   3.478   2.070  12.972 -0.3507  0.2469  0.3405
 3754TIP3    H132753   3.399   2.053  12.920 -0.9940  0.3264  1.2740
 3754TIP3    H232754   3.464   2.157  13.009 -0.9766 -0.7248  2.5072
 3755TIP3   OH232755   4.018   3.887  14.359  0.0653 -0.6475 -0.4319
 3755TIP3    H132756   4.098   3.863  14.311  1.1128 -1.0509  1.3904
 3755TIP3    H232757   3.952   3.825  14.328  0.6807 -0.8688 -1.3566
 3756TIP3   OH232758   5.218   1.326   1.262  0.2022  0.1348  0.6368
 3756TIP3    H132759   5.125   1.305   1.266  0.5403 -1.2953  2.4474
 3756TIP3    H232760   5.256   1.258   1.207 -0.1441  2.5510 -2.9868
 3757TIP3   OH232761   5.726   3.533   1.513 -0.0423 -0.2027  0.1936
 3757TIP3    H132762   5.721   3.438   1.528  2.1693 -0.0358  2.7502
 3757TIP3    H232763   5.662   3.570   1.573  1.1136 -0.0126  1.3590
 3758TIP3   OH232764   0.394   2.562  16.325  0.0104 -0.6397  0.0577
 3758TIP3    H132765   0.456   2.624  16.365  0.0015  0.1332 -1.0568
 3758TIP3    H232766   0.338   2.534  16.397  0.8843 -0.3950  0.8535
 3759TIP3   OH232767   3.232   3.985  16.848  0.0084 -0.0541  1.0617
 3759TIP3    H132768   3.241   3.991  16.943 -0.4008  2.4878  1.0074
 3759TIP3    H232769   3.321   3.993  16.815 -0.0812  3.1006  1.2069
 3760TIP3   OH232770   4.479   0.363  16.081 -0.2825 -0.4123 -0.6087
 3760TIP3    H132771   4.514   0.326  16.000 -1.9336 -3.3969 -0.1455
 3760TIP3    H232772   4.520   0.311  16.150 -0.5506  0.6161  0.3484
 3761TIP3   OH232773   5.641   4.282  14.972  0.4917  0.1710  0.0578
 3761TIP3    H132774   5.687   4.199  14.960  2.4979  0.5453  3.6818
 3761TIP3    H232775   5.691   4.345  14.921  2.5484  0.0665  1.8105
 3762TIP3   OH232776   2.417   0.362   3.070  0.1296  0.1708  0.0725
 3762TIP3    H132777   2.354   0.294   3.047  1.5839 -1.0486 -0.4512
 3762TIP3    H232778   2.410   0.370   3.165 -1.0592  0.3410 -0.0098
 3763TIP3   OH232779   6.424   3.548   4.907 -0.0146 -0.1538 -0.2524
 3763TIP3    H132780   6.335   3.541   4.871  0.3936 -1.1835 -1.1294
 3763TIP3    H232781   6.422   3.494   4.986 -0.1059 -0.4166 -0.4300
 3764TIP3   OH232782   0.374   6.247   0.801  0.5001 -0.1256  0.4126
 3764TIP3    H132783   0.386   6.302   0.724  0.6929  0.0357  0.5553
 3764TIP3    H232784   0.463   6.223   0.828  0.4217 -0.4221  0.4126
 3765TIP3   OH232785   4.664   2.056   6.006 -0.3052  0.7960 -0.5408
 3765TIP3    H132786   4.579   2.097   6.016  0.1578  1.3665  1.4080
 3765TIP3    H232787   4.727   2.126   6.019  0.4840 -0.2131  1.4710
 3766TIP3   OH232788   5.581   0.855   2.665 -0.1331 -0.2782  0.5670
 3766TIP3    H132789   5.541   0.871   2.579 -0.1068 -1.1468  0.3881
 3766TIP3    H232790   5.507   0.850   2.725 -0.0837  2.1369  0.9345
 3767TIP3   OH232791   0.606   5.004   0.672 -0.1138 -0.1993 -0.3224
 3767TIP3    H132792   0.651   5.050   0.743  2.0063 -2.3503 -0.1564
 3767TIP3    H232793   0.552   4.938   0.717 -2.9232  1.7427 -0.5660
 3768TIP3   OH232794   2.864   5.754   1.446 -0.1041  0.0411  0.2786
 3768TIP3    H132795   2.771   5.745   1.462  0.0689 -1.8108  0.4214
 3768TIP3    H232796   2.905   5.737   1.531  0.3647  1.6254  0.4089
 3769TIP3   OH232797   1.794   4.583  11.900  0.2658  0.1596  0.4583
 3769TIP3    H132798   1.864   4.633  11.857  0.0215 -0.9869 -1.4083
 3769TIP3    H232799   1.833   4.497  11.918  0.0591  0.3086  1.7012
 3770TIP3   OH232800   1.717   3.289  15.955  0.5303  0.3306 -0.1991
 3770TIP3    H132801   1.672   3.210  15.926  1.7818 -1.1147  1.5854
 3770TIP3    H232802   1.777   3.310  15.883  1.2360 -1.2365 -0.0989
 3771TIP3   OH232803   6.778   1.258   5.830 -0.6023  0.0892  0.0449
 3771TIP3    H132804   6.842   1.244   5.900 -1.1161  0.2715  0.5575
 3771TIP3    H232805   6.794   1.187   5.767  0.7077  0.6598 -0.2920
 3772TIP3   OH232806   3.553   3.554   4.236 -0.2453  0.1789  0.0007
 3772TIP3    H132807   3.528   3.647   4.233  0.6477  0.4014 -1.6771
 3772TIP3    H232808   3.558   3.534   4.330  0.4894  2.0996  0.4329
 3773TIP3   OH232809   1.163   1.731   4.518  0.8120 -0.0627 -0.8560
 3773TIP3    H132810   1.165   1.824   4.497 -1.0435 -0.4245 -2.9852
 3773TIP3    H232811   1.109   1.725   4.597  0.4978  0.6073 -1.0125
 3774TIP3   OH232812   3.305   4.960   0.601 -0.0426 -0.0442 -0.8945
 3774TIP3    H132813   3.229   4.928   0.648  0.0717 -1.0261 -1.3577
 3774TIP3    H232814   3.345   4.882   0.563  0.9690  0.5013 -0.9905
 3775TIP3   OH232815   6.413   2.683   4.130 -0.4416  0.1589 -0.5813
 3775TIP3    H132816   6.447   2.744   4.195 -1.4871 -0.9800  1.1010
 3775TIP3    H232817   6.332   2.722   4.100  0.0014  0.6458 -1.1711
 3776TIP3   OH232818   5.370   6.556   1.396 -0.2157  0.0182 -0.5037
 3776TIP3    H132819   5.408   6.470   1.383 -0.1982 -0.6808  3.2172
 3776TIP3    H232820   5.277   6.539   1.412 -0.5218  0.8902 -1.2178
 3777TIP3   OH232821   5.751   0.316  10.476  0.0954  0.0932 -0.3288
 3777TIP3    H132822   5.708   0.361  10.403 -1.1219  1.0417  0.8931
 3777TIP3    H232823   5.820   0.377  10.503 -0.9244  0.8491  0.7049
 3778TIP3   OH232824   1.023   0.707   0.651 -0.1801 -0.0841  0.5088
 3778TIP3    H132825   1.108   0.715   0.607 -0.1141 -0.2631  0.6044
 3778TIP3    H232826   0.969   0.656   0.590 -0.9465  1.9288 -0.6045
 3779TIP3   OH232827   2.043   5.023   1.069  0.4638  0.5146  0.1399
 3779TIP3    H132828   2.071   5.100   1.019 -1.2032  1.2861  0.3210
 3779TIP3    H232829   1.978   5.057   1.130  1.6102 -0.6043  2.0814
 3780TIP3   OH232830   6.577   2.952  16.902  0.3046  0.3276 -0.0590
 3780TIP3    H132831   6.554   3.043  16.880 -0.4521  0.1058 -0.2295
 3780TIP3    H232832   6.654   2.933  16.849 -0.8637  0.1484 -1.7386
 3781TIP3   OH232833   2.427   2.041   1.756  0.2155  0.1173  0.6967
 3781TIP3    H132834   2.471   2.125   1.741  0.3224 -0.1341 -0.4718
 3781TIP3    H232835   2.498   1.977   1.764  0.1294 -0.4749 -2.3035
 3782TIP3   OH232836   0.041   1.401  10.887 -0.9846  0.3176  0.1441
 3782TIP3    H132837  -0.019   1.475  10.875 -0.7035  0.4954 -0.1722
 3782TIP3    H232838  -0.016   1.325  10.897 -1.3072  0.6752  1.2218
 3783TIP3   OH232839   6.261   0.368   5.404 -0.1396 -0.0189 -0.4665
 3783TIP3    H132840   6.216   0.386   5.486  0.8244  0.6441 -0.0630
 3783TIP3    H232841   6.224   0.430   5.341 -1.0770 -0.7145 -0.6148
 3784TIP3   OH232842   2.477   6.455  16.991  0.0985 -0.1986  0.1915
 3784TIP3    H132843   2.568   6.482  16.978 -0.1370  0.9214  0.6597
 3784TIP3    H232844   2.439   6.528  17.041 -1.3440 -0.1282 -0.9733
 3785TIP3   OH232845   1.085   3.378   1.560  0.2850  0.4990 -0.0828
 3785TIP3    H132846   1.133   3.319   1.502  1.9793  0.6067  1.1233
 3785TIP3    H232847   1.060   3.451   1.504 -0.6758 -0.7232 -1.2965
 3786TIP3   OH232848   6.134   4.200   3.874  0.1152  0.2906  0.0004
 3786TIP3    H132849   6.141   4.295   3.883  0.9263  0.1228  1.4099
 3786TIP3    H232850   6.157   4.183   3.783 -3.5349  1.7151 -1.4108
 3787TIP3   OH232851   4.483   5.601   5.555 -0.1341 -0.1600 -0.6040
 3787TIP3    H132852   4.539   5.676   5.537 -1.3540  0.5674 -1.5338
 3787TIP3    H232853   4.524   5.558   5.630  0.7389  1.2826 -0.2110
 3788TIP3   OH232854   5.023   1.827  15.378 -0.8150 -0.0581  0.2025
 3788TIP3    H132855   5.092   1.880  15.417 -0.5273 -0.2390 -0.0577
 3788TIP3    H232856   5.051   1.736  15.394 -0.1761 -0.1552 -1.2954
 3789TIP3   OH232857   6.630   5.599  14.791  0.6589  0.4108  0.3290
 3789TIP3    H132858   6.571   5.532  14.757  2.1352 -0.0938 -1.4026
 3789TIP3    H232859   6.664   5.643  14.713  0.7088  2.3611  1.3766
 3790TIP3   OH232860   0.406   5.265   2.259 -0.2455  0.1028 -0.5521
 3790TIP3    H132861   0.490   5.232   2.291  0.2899  0.6666 -1.3454
 3790TIP3    H232862   0.428   5.320   2.184 -1.5010 -1.5985 -2.2733
 3791TIP3   OH232863   3.033   5.751   4.167  0.1636 -0.1229 -0.0561
 3791TIP3    H132864   3.056   5.683   4.230 -0.0143 -0.0612  0.0783
 3791TIP3    H232865   3.110   5.759   4.111  0.6290  0.3747  0.6378
 3792TIP3   OH232866   6.766   2.110   6.108 -0.1338  0.2266 -0.1719
 3792TIP3    H132867   6.835   2.126   6.172 -0.5211  0.3507  0.2248
 3792TIP3    H232868   6.800   2.042   6.051  1.1667  1.7354 -1.2838
 3793TIP3   OH232869   2.802   5.283   2.869 -0.5382 -0.0785  0.0144
 3793TIP3    H132870   2.847   5.340   2.807  1.3585 -1.4342  0.0454
 3793TIP3    H232871   2.862   5.276   2.943 -1.2421 -1.1553  0.5105
 3794TIP3   OH232872   2.241   6.788   4.990  0.2503 -0.3120 -0.7180
 3794TIP3    H132873   2.264   6.697   4.970  1.1282  0.1837 -2.1954
 3794TIP3    H232874   2.147   6.793   4.975  0.5033 -0.5429 -2.7270
 3795TIP3   OH232875   6.591   0.463  14.796  0.2438  0.3000 -0.3800
 3795TIP3    H132876   6.503   0.445  14.829  0.7949 -1.0427  0.4399
 3795TIP3    H232877   6.610   0.391  14.736  0.9812  0.2752 -0.1283
 3796TIP3   OH232878   0.348   6.419   2.796 -0.4304 -0.3440  0.2937
 3796TIP3    H132879   0.434   6.407   2.756 -1.4137 -3.1430 -1.2896
 3796TIP3    H232880   0.341   6.346   2.859 -2.8080 -2.3353 -2.0535
 3797TIP3   OH232881   5.606   4.992   3.547 -0.4047 -0.0586 -0.5209
 3797TIP3    H132882   5.607   5.087   3.559 -1.9842 -0.0919  0.0287
 3797TIP3    H232883   5.677   4.976   3.484 -1.0537  1.6446 -1.7850
 3798TIP3   OH232884   3.373   3.358   3.740  0.0619 -0.4493 -0.6405
 3798TIP3    H132885   3.357   3.437   3.791  0.5475 -1.8831  1.9538
 3798TIP3    H232886   3.294   3.345   3.689 -0.5291  1.0246 -0.1531
 3799TIP3   OH232887   6.743   6.154   4.865  0.0562 -0.0289  0.3183
 3799TIP3    H132888   6.668   6.163   4.924 -0.1776 -0.3268  0.0745
 3799TIP3    H232889   6.760   6.060   4.862 -0.4548 -0.1105 -0.7102
 3800TIP3   OH232890   2.369   2.091  13.443 -0.1309  0.2848  0.4111
 3800TIP3    H132891   2.313   2.131  13.509 -1.4558 -0.2721 -0.3204
 3800TIP3    H232892   2.388   2.004  13.478  0.3801  0.5129  0.7087
 3801TIP3   OH232893   3.423   4.814  15.517  0.0382 -0.0077  0.4643
 3801TIP3    H132894   3.335   4.777  15.523 -0.0215  0.0585  0.0165
 3801TIP3    H232895   3.476   4.758  15.575 -0.5950  0.9142  1.9967
 3802TIP3   OH232896   1.074   3.711  13.609  0.3072 -0.0055 -0.1792
 3802TIP3    H132897   1.163   3.699  13.643  0.0067  0.2055  0.7106
 3802TIP3    H232898   1.041   3.788  13.655 -0.4831 -0.3297 -0.1935
 3803TIP3   OH232899   4.467   0.008   1.679  0.6674  0.0330 -0.4099
 3803TIP3    H132900   4.446   0.067   1.752  0.2326  0.4001 -0.8205
 3803TIP3    H232901   4.436   0.055   1.601  0.3126 -0.7432 -0.7477
 3804TIP3   OH232902   1.793   5.215  11.362  0.2404  0.0865 -0.2974
 3804TIP3    H132903   1.883   5.188  11.346 -0.0254 -1.7501  0.9687
 3804TIP3    H232904   1.741   5.162  11.301  0.0523  2.0530 -1.9283
 3805TIP3   OH232905   5.386   5.191   1.163  0.1850  0.2543 -0.5163
 3805TIP3    H132906   5.362   5.261   1.102 -1.8582 -0.3986 -0.5376
 3805TIP3    H232907   5.479   5.176   1.147  0.9190  3.4285 -0.0191
 3806TIP3   OH232908   2.625   0.790  11.403  0.1710  0.2354 -0.0040
 3806TIP3    H132909   2.629   0.850  11.329  0.0596  1.3392  0.8703
 3806TIP3    H232910   2.575   0.837  11.469 -1.2702 -1.4214  0.1579
 3807TIP3   OH232911   2.064   2.184  13.384  0.5658  0.0728  0.4178
 3807TIP3    H132912   2.124   2.227  13.322  2.1277  3.0910  3.6873
 3807TIP3    H232913   2.114   2.178  13.465 -2.3752 -0.7637  2.3097
 3808TIP3   OH232914   2.868   2.767  15.038  0.3007  0.2978 -0.1635
 3808TIP3    H132915   2.786   2.805  15.007  1.4517  1.5573 -1.8653
 3808TIP3    H232916   2.867   2.781  15.132 -0.9908  1.1804 -0.2811
 3809TIP3   OH232917   2.113   0.455  13.944  0.3000  0.8939  0.2115
 3809TIP3    H132918   2.126   0.395  14.018  0.9312  0.8584  0.0828
 3809TIP3    H232919   2.157   0.412  13.870 -2.2745 -0.1752 -0.7863
 3810TIP3   OH232920   5.549   6.160  14.061  0.0547 -0.4427 -0.3210
 3810TIP3    H132921   5.583   6.132  14.146 -0.2454 -0.8504 -0.3329
 3810TIP3    H232922   5.488   6.230  14.082  0.5223 -0.0484 -0.2608
 3811TIP3   OH232923   3.885   3.030  11.361  0.0469  0.5555 -0.0919
 3811TIP3    H132924   3.941   3.007  11.435 -1.2972  0.7562  1.0542
 3811TIP3    H232925   3.908   2.968  11.292  1.5618  0.5644  0.3711
 3812TIP3   OH232926   5.713   6.163  16.842  0.8065 -0.1566 -0.1163
 3812TIP3    H132927   5.756   6.169  16.756 -1.5627  2.9053 -1.3016
 3812TIP3    H232928   5.759   6.225  16.897  0.5786 -0.0281 -0.0671
 3813TIP3   OH232929   1.778   4.263   2.666 -0.0687 -0.5064 -0.0909
 3813TIP3    H132930   1.779   4.229   2.576  0.7152  0.4613 -0.4657
 3813TIP3    H232931   1.705   4.325   2.666  1.9022  2.0271 -1.0990
 3814TIP3   OH232932   0.958   0.227   2.107  0.3748  0.0671 -0.3232
 3814TIP3    H132933   0.962   0.281   2.028  1.6826 -0.1434 -0.4259
 3814TIP3    H232934   0.954   0.290   2.179 -0.8818  0.2595 -0.5418
 3815TIP3   OH232935   2.652   5.333  13.321 -0.1559  0.3682 -0.1792
 3815TIP3    H132936   2.621   5.340  13.411  0.3534 -1.6838  0.2170
 3815TIP3    H232937   2.744   5.309  13.329 -0.0828  0.2422 -1.2329
 3816TIP3   OH232938   0.883   4.182  13.827 -0.3422 -0.5004 -0.3235
 3816TIP3    H132939   0.799   4.184  13.782 -0.8389  1.2126  0.5626
 3816TIP3    H232940   0.868   4.233  13.907  1.3225 -0.8590  0.2630
 3817TIP3   OH232941   0.840   0.993   3.724 -0.0440  0.4907 -0.6898
 3817TIP3    H132942   0.875   1.070   3.679  1.3579  0.0989 -0.3176
 3817TIP3    H232943   0.820   1.025   3.813 -0.2012  0.6048 -0.7655
 3818TIP3   OH232944   5.429   1.220  16.067  0.9141 -0.1037 -0.2217
 3818TIP3    H132945   5.495   1.167  16.024  1.7168  0.3991  0.3600
 3818TIP3    H232946   5.479   1.283  16.119 -0.0090  1.0808 -0.7175
 3819TIP3   OH232947   6.650   1.436   3.128 -0.2393 -0.1298 -0.1556
 3819TIP3    H132948   6.706   1.511   3.107 -0.8947  0.3457 -0.2170
 3819TIP3    H232949   6.632   1.396   3.043  0.7966 -0.8667 -0.0482
 3820TIP3   OH232950   2.510   4.114  15.125  0.1371  0.0300  0.7513
 3820TIP3    H132951   2.420   4.130  15.095 -0.0061 -0.0105  1.1579
 3820TIP3    H232952   2.561   4.105  15.044  0.2040  2.3177  0.4628
 3821TIP3   OH232953   0.148   5.856  16.113 -0.1448  0.3085 -0.0041
 3821TIP3    H132954   0.072   5.861  16.172 -0.5788  0.0991 -0.5259
 3821TIP3    H232955   0.128   5.919  16.044  1.3544  2.1448  1.1363
 3822TIP3   OH232956   6.378   3.145  11.100 -0.0624 -0.7616 -0.2659
 3822TIP3    H132957   6.428   3.073  11.138 -0.9800 -1.4430 -0.3353
 3822TIP3    H232958   6.379   3.129  11.006 -1.7040 -1.6496 -0.1574
 3823TIP3   OH232959   2.705   6.687  13.251 -0.3018 -0.1517  0.1279
 3823TIP3    H132960   2.765   6.620  13.285 -0.8100 -1.5222 -1.5292
 3823TIP3    H232961   2.762   6.757  13.221  0.3286 -0.4262  0.6535
 3824TIP3   OH232962   0.522   4.918  13.122  0.7243 -0.6780  0.0584
 3824TIP3    H132963   0.521   4.823  13.113  1.9156 -0.8446  1.4369
 3824TIP3    H232964   0.614   4.940  13.133  0.4609  0.6525 -0.2443
 3825TIP3   OH232965   0.916   2.021  16.617 -0.1689  0.0232 -0.3599
 3825TIP3    H132966   0.996   1.993  16.573 -0.2230 -1.0426  0.1780
 3825TIP3    H232967   0.908   2.114  16.597 -0.3010 -0.4574 -2.7511
 3826TIP3   OH232968   3.103   2.328   0.931 -0.0267 -0.2382  0.3230
 3826TIP3    H132969   3.023   2.284   0.961 -0.3030 -0.8167 -1.1677
 3826TIP3    H232970   3.077   2.373   0.851  0.8723  0.5726  0.4649
 3827TIP3   OH232971   0.045   1.416  14.543  0.6508 -0.8706 -0.2667
 3827TIP3    H132972   0.031   1.433  14.450 -0.1830  1.1120  0.1832
 3827TIP3    H232973   0.136   1.441  14.559  0.3638  0.2116 -0.2700
 3828TIP3   OH232974   4.592   6.325  13.785 -0.0551 -0.1004  0.5464
 3828TIP3    H132975   4.589   6.351  13.694 -0.6602  0.8865  0.8337
 3828TIP3    H232976   4.652   6.387  13.826  1.6594 -1.6596  0.4906
 3829TIP3   OH232977   6.551   5.769  12.555  0.6134  0.2118  0.3813
 3829TIP3    H132978   6.470   5.767  12.504 -0.1098 -1.2616  1.5113
 3829TIP3    H232979   6.617   5.735  12.494  0.2662  0.8282 -0.3584
 3830TIP3   OH232980   4.157   0.316   3.370 -0.2475 -0.3479 -0.8442
 3830TIP3    H132981   4.192   0.396   3.330 -1.3493  0.3642 -0.4558
 3830TIP3    H232982   4.071   0.343   3.403 -0.6606 -1.7226 -0.7689
 3831TIP3   OH232983   3.609   0.274   5.029 -0.0018 -0.4956 -0.0763
 3831TIP3    H132984   3.699   0.305   5.022  0.3342 -1.4660 -0.0653
 3831TIP3    H232985   3.558   0.341   4.983  0.8896 -0.6970 -1.4317
 3832TIP3   OH232986   4.905   6.501   2.855 -0.5089  0.2408 -0.1240
 3832TIP3    H132987   4.946   6.511   2.942 -1.0823 -0.4796  0.2436
 3832TIP3    H232988   4.838   6.569   2.852 -0.4197  0.3334 -0.0366
 3833TIP3   OH232989   1.428   4.263  10.758 -0.2262  0.4324 -0.2928
 3833TIP3    H132990   1.480   4.326  10.708 -0.4585  0.2640 -0.7494
 3833TIP3    H232991   1.340   4.271  10.721 -0.0747 -0.7966 -0.9621
 3834TIP3   OH232992   1.387   3.427  11.007 -0.1442  0.0607 -0.0875
 3834TIP3    H132993   1.385   3.417  11.102 -0.1889 -2.1411 -0.2712
 3834TIP3    H232994   1.460   3.372  10.978 -0.0426  0.7955 -1.3246
 3835TIP3   OH232995   1.662   6.382   4.419 -0.2521  0.1269  0.4808
 3835TIP3    H132996   1.626   6.303   4.460  2.0313 -1.1421  0.1861
 3835TIP3    H232997   1.756   6.378   4.436  0.6532  0.3150 -3.3923
 3836TIP3   OH232998   3.204   3.391   4.666  0.2031 -0.1595 -0.3544
 3836TIP3    H132999   3.272   3.458   4.676  0.1339 -0.0076 -0.8584
 3836TIP3    H233000   3.197   3.378   4.571  0.9334 -1.6272 -0.2301
 3837TIP3   OH233001   4.971   4.563   5.725  0.0517  0.2846  0.0386
 3837TIP3    H133002   4.964   4.588   5.817  3.4318  3.9717 -0.3841
 3837TIP3    H233003   4.898   4.608   5.682 -0.9901 -0.6958  0.7263
 3838TIP3   OH233004   0.014   2.875   0.734  1.2006 -0.3207  0.0644
 3838TIP3    H133005  -0.009   2.787   0.704  0.8788 -0.4365  0.6224
 3838TIP3    H233006   0.074   2.860   0.807 -0.4230 -0.1673  1.4967
 3839TIP3   OH233007   5.133   4.532   2.263 -0.1063  0.1707  0.5642
 3839TIP3    H133008   5.142   4.437   2.269  0.8905  0.0706 -1.5014
 3839TIP3    H233009   5.202   4.567   2.319 -1.6762 -0.2137  2.8920
 3840TIP3   OH233010   0.614   4.234   2.712  0.3848 -0.0892 -0.1396
 3840TIP3    H133011   0.584   4.169   2.649 -0.1167 -0.2893  0.2960
 3840TIP3    H233012   0.676   4.289   2.664  0.4889 -0.6317 -0.6236
 3841TIP3   OH233013   3.744   0.742  12.968  0.2797 -0.4047 -0.1795
 3841TIP3    H133014   3.770   0.667  13.022 -0.5525 -0.8188 -0.3344
 3841TIP3    H233015   3.805   0.812  12.992  0.4730 -0.8494  0.6510
 3842TIP3   OH233016   3.055   5.671  13.682  0.3136 -0.3933 -0.4374
 3842TIP3    H133017   3.003   5.594  13.657 -0.6029 -0.2927  1.0607
 3842TIP3    H233018   3.144   5.650  13.653 -0.2236 -1.2846 -1.5495
 3843TIP3   OH233019   6.786   0.144  12.440 -0.8902  0.3536  0.1492
 3843TIP3    H133020   6.706   0.194  12.459 -1.6260 -0.7691  0.1144
 3843TIP3    H233021   6.834   0.200  12.379 -1.0848  1.5635  1.0521
 3844TIP3   OH233022   3.186   4.140   2.500 -0.3787  0.0264 -0.7265
 3844TIP3    H133023   3.251   4.209   2.490  0.3171 -0.2375  1.4791
 3844TIP3    H233024   3.134   4.144   2.419  0.4038  2.2982 -1.1912
 3845TIP3   OH233025   3.740   4.852  13.889 -0.0642  0.2820 -0.1700
 3845TIP3    H133026   3.719   4.823  13.800  2.1875  0.7360 -0.9022
 3845TIP3    H233027   3.736   4.947  13.885  1.5616  0.3773 -0.2493
 3846TIP3   OH233028   0.413   3.640  17.014 -0.8022  0.6973 -0.1300
 3846TIP3    H133029   0.433   3.731  17.040 -0.9446  0.3389  1.3241
 3846TIP3    H233030   0.321   3.629  17.035 -0.7796  0.2105 -0.2814
 3847TIP3   OH233031   2.952   3.003  14.629  0.3206  0.1249 -0.2548
 3847TIP3    H133032   2.923   3.011  14.538 -0.3331  0.9568  0.0206
 3847TIP3    H233033   2.889   3.054  14.679  1.0304  0.1829  0.6053
 3848TIP3   OH233034   0.718   2.134   3.303 -0.4541 -0.1076  0.3585
 3848TIP3    H133035   0.732   2.090   3.387  0.5459 -0.4600  0.0093
 3848TIP3    H233036   0.754   2.222   3.316 -0.0935 -0.2360  0.2250
 3849TIP3   OH233037   3.577   2.197  15.291  0.2675 -0.8371  0.2585
 3849TIP3    H133038   3.539   2.111  15.272  1.5463 -1.5965  0.9922
 3849TIP3    H233039   3.670   2.179  15.307  0.9162  0.9025 -1.1795
 3850TIP3   OH233040   3.998   6.005   3.082  0.2248  0.3080  0.0696
 3850TIP3    H133041   4.073   5.959   3.121  0.2312 -0.6486 -1.0260
 3850TIP3    H233042   3.987   5.964   2.996  0.1006  2.2167 -0.8830
 3851TIP3   OH233043   5.865   3.069   5.603 -0.2055  0.1526 -0.0757
 3851TIP3    H133044   5.954   3.042   5.578  0.2791  2.0810 -0.5801
 3851TIP3    H233045   5.829   3.108   5.524 -1.1838  0.2240  0.3899
 3852TIP3   OH233046   2.198   5.268  15.934 -0.7643  0.2021  0.3546
 3852TIP3    H133047   2.128   5.287  15.997  0.1715 -0.0266  1.4954
 3852TIP3    H233048   2.238   5.188  15.967 -1.9440 -1.4832 -2.0449
 3853TIP3   OH233049   6.520   0.505   3.938 -0.6988 -0.0545 -0.0400
 3853TIP3    H133050   6.533   0.451   4.016 -1.8873 -0.8197 -0.3515
 3853TIP3    H233051   6.497   0.591   3.972 -1.0144 -0.3320  0.4684
 3854TIP3   OH233052   3.054   3.768  15.459  0.5826 -0.6701 -0.1926
 3854TIP3    H133053   3.095   3.800  15.540 -0.7981  3.3577 -0.8443
 3854TIP3    H233054   3.126   3.764  15.396  1.1565 -0.6834  0.4574
 3855TIP3   OH233055   2.973   3.738  16.842  0.6303  0.5488 -0.1460
 3855TIP3    H133056   3.002   3.656  16.881 -0.9035 -0.6153 -1.3090
 3855TIP3    H233057   2.968   3.800  16.915  2.1988 -0.2520  0.6863
 3856TIP3   OH233058   6.741   4.798  16.319 -0.5389 -0.3624 -0.9525
 3856TIP3    H133059   6.790   4.745  16.382 -0.0298 -0.4451 -1.4105
 3856TIP3    H233060   6.796   4.875  16.305 -0.7935 -0.2008 -1.0703
 3857TIP3   OH233061   2.958   0.881  10.215  0.5292  0.1201 -0.0194
 3857TIP3    H133062   2.888   0.924  10.266  0.4916  1.6345 -1.2629
 3857TIP3    H233063   2.949   0.788  10.236 -1.2685  0.3795  0.5623
 3858TIP3   OH233064   3.484   3.698   1.382  0.4734  0.1687 -0.2691
 3858TIP3    H133065   3.511   3.790   1.386 -1.2727  0.7872 -1.3866
 3858TIP3    H233066   3.449   3.680   1.469 -2.3290  1.6915 -0.9450
 3859TIP3   OH233067   6.405   5.467   1.306 -0.3336  0.7865  0.3093
 3859TIP3    H133068   6.420   5.479   1.212  1.4386  0.1631  0.4777
 3859TIP3    H233069   6.482   5.506   1.348 -1.2874  1.4068  1.5373
 3860TIP3   OH233070   0.057   2.521  12.476 -0.0097  0.2239 -0.2057
 3860TIP3    H133071   0.039   2.451  12.414  1.1262  0.2277 -0.5679
 3860TIP3    H233072   0.128   2.487  12.531 -0.5256  0.4878  0.6428
 3861TIP3   OH233073   1.590   5.672  11.999  0.2029 -0.0404 -0.7045
 3861TIP3    H133074   1.619   5.698  12.086 -0.2989 -1.1384 -0.1858
 3861TIP3    H233075   1.503   5.711  11.990 -0.6948 -1.7539  0.2108
 3862TIP3   OH233076   4.210   2.832  15.645  0.4442  0.1239 -0.3432
 3862TIP3    H133077   4.248   2.920  15.652  0.7077  0.0925 -1.2196
 3862TIP3    H233078   4.139   2.831  15.708  1.1859  0.5726  0.5199
 3863TIP3   OH233079   0.830   2.087   5.922  0.3357 -0.1262  0.2033
 3863TIP3    H133080   0.860   1.997   5.936  0.5259  0.0241  0.7866
 3863TIP3    H233081   0.887   2.122   5.854  0.6098 -0.2760  0.3546
 3864TIP3   OH233082   3.108   0.427  16.306 -0.4511  0.0877  0.5331
 3864TIP3    H133083   3.057   0.475  16.241 -1.1914 -0.7799  0.4519
 3864TIP3    H233084   3.146   0.495  16.362  0.4015  0.8621 -0.9291
 3865TIP3   OH233085   5.450   5.822   2.949  0.6401  0.3290 -0.1004
 3865TIP3    H133086   5.524   5.862   2.993 -0.5210  1.8716  0.5558
 3865TIP3    H233087   5.415   5.891   2.893 -1.3469  0.2561  0.9593
 3866TIP3   OH233088   2.622   3.803   2.445  0.4532 -0.2829  0.2144
 3866TIP3    H133089   2.579   3.883   2.476  1.6644 -0.1720  1.7434
 3866TIP3    H233090   2.659   3.827   2.360  0.7986  0.7839  0.6494
 3867TIP3   OH233091   0.545   1.925  11.761 -0.5548 -0.6034  0.5847
 3867TIP3    H133092   0.520   2.006  11.715 -1.3890 -1.8465 -1.2485
 3867TIP3    H233093   0.463   1.891  11.795 -0.3813 -1.2815  0.3264
 3868TIP3   OH233094   5.872   3.382  15.217 -0.0621  0.2521  0.2822
 3868TIP3    H133095   5.860   3.328  15.296  0.8696  0.3658  0.5217
 3868TIP3    H233096   5.903   3.466  15.251 -0.4221  0.5633 -0.1606
 3869TIP3   OH233097   4.252   4.272   2.356  0.4576 -0.0937  0.1424
 3869TIP3    H133098   4.274   4.365   2.361 -0.2680  0.0221  2.1556
 3869TIP3    H233099   4.336   4.227   2.354  0.8142  0.5994 -0.5628
 3870TIP3   OH233100   5.907   6.591   0.781 -0.0155  0.4038 -0.3090
 3870TIP3    H133101   5.950   6.616   0.863 -1.9632  2.2596  0.2328
 3870TIP3    H233102   5.818   6.624   0.790 -1.8658 -3.8017 -1.0904
 3871TIP3   OH233103   2.893   6.810  13.827  0.0297 -0.4713 -0.1667
 3871TIP3    H133104   2.870   6.837  13.738  1.0695 -0.2975 -0.4040
 3871TIP3    H233105   2.816   6.762  13.859 -1.8937  2.6344  0.2504
 3872TIP3   OH233106   3.638   2.732  12.617  0.0510 -0.4534 -0.2812
 3872TIP3    H133107   3.610   2.723  12.526 -0.3124  0.1558 -0.2331
 3872TIP3    H233108   3.563   2.700  12.668  0.6971 -1.9384 -0.2006
 3873TIP3   OH233109   3.773   1.617  11.212 -0.0186 -0.1192  0.2785
 3873TIP3    H133110   3.797   1.602  11.121  2.9079 -0.7702  1.0643
 3873TIP3    H233111   3.761   1.529  11.249  0.6067  0.0602  0.9332
 3874TIP3   OH233112   1.212   3.300   5.019 -0.0939  0.1305  0.5211
 3874TIP3    H133113   1.190   3.388   4.990 -0.5751 -0.0631  0.2917
 3874TIP3    H233114   1.227   3.251   4.937  1.5655  0.3373  0.6512
 3875TIP3   OH233115   4.531   0.296   0.752 -0.0903 -0.3599 -0.2789
 3875TIP3    H133116   4.501   0.335   0.670 -1.2763 -1.0460 -0.2034
 3875TIP3    H233117   4.596   0.231   0.726  1.3096  1.0461 -0.4636
 3876TIP3   OH233118   2.443   4.330  13.448  0.0805  0.1589 -0.2529
 3876TIP3    H133119   2.452   4.426  13.444 -1.9009  0.3902 -0.0994
 3876TIP3    H233120   2.505   4.304  13.516  0.1401  1.4265  0.2125
 3877TIP3   OH233121   1.303   6.307  11.109 -0.1673  0.2218 -0.1460
 3877TIP3    H133122   1.336   6.306  11.019 -0.9468  2.0505 -0.4958
 3877TIP3    H233123   1.210   6.286  11.100 -0.5065  1.5203  0.0717
 3878TIP3   OH233124   1.582   3.502   5.205 -0.3468  0.4166  0.6691
 3878TIP3    H133125   1.599   3.409   5.195 -1.0135  0.4858 -1.8118
 3878TIP3    H233126   1.507   3.507   5.265 -1.0435 -0.7414 -0.0640
 3879TIP3   OH233127   5.662   4.912  13.988 -0.1492 -0.2143  0.1395
 3879TIP3    H133128   5.698   4.964  13.916  1.3356 -1.8518 -0.3737
 3879TIP3    H233129   5.651   4.974  14.060  0.1290  1.0859 -0.8982
 3880TIP3   OH233130   6.378   0.437  12.134  0.2402 -0.2753 -0.0879
 3880TIP3    H133131   6.443   0.370  12.113  1.0689  0.9004 -1.4847
 3880TIP3    H233132   6.300   0.410  12.087  0.1953 -0.8693  0.3186
 3881TIP3   OH233133   3.334   4.531  13.980 -0.2965  0.3661 -0.0320
 3881TIP3    H133134   3.305   4.556  13.893  1.8024  3.5132 -0.0007
 3881TIP3    H233135   3.416   4.484  13.966 -0.8209 -0.6407  0.2084
 3882TIP3   OH233136   5.364   0.169   1.949 -0.3304  0.0632 -0.2614
 3882TIP3    H133137   5.324   0.134   1.870 -1.1785  1.0396 -0.2879
 3882TIP3    H233138   5.292   0.209   1.997  0.5151  1.3780 -0.0319
 3883TIP3   OH233139   3.614   3.426   4.475 -0.1111  0.0097 -0.5438
 3883TIP3    H133140   3.692   3.379   4.447 -0.2665  0.4933 -1.8244
 3883TIP3    H233141   3.571   3.366   4.536  0.9707 -0.4760 -0.2415
 3884TIP3   OH233142   5.599   1.703   0.681  0.0691 -0.3907  0.6894
 3884TIP3    H133143   5.619   1.657   0.600  0.8899 -0.3441  0.8591
 3884TIP3    H233144   5.672   1.683   0.739 -0.7899 -0.9135  1.6345
 3885TIP3   OH233145   0.669   3.972  11.458 -0.4247 -0.4484  0.0467
 3885TIP3    H133146   0.650   3.879  11.443 -3.9367  0.0072  0.6093
 3885TIP3    H233147   0.621   3.993  11.538 -1.1184  2.1828 -0.9407
 3886TIP3   OH233148   3.282   3.268  11.973 -0.0132  0.3636  0.2275
 3886TIP3    H133149   3.275   3.196  12.036  0.7596 -0.2873 -0.4054
 3886TIP3    H233150   3.314   3.226  11.893 -1.9818  0.9760 -0.9560
 3887TIP3   OH233151   3.457   4.892  11.756  0.2286 -0.6961 -0.0802
 3887TIP3    H133152   3.437   4.800  11.734 -1.9182  0.1404 -2.1156
 3887TIP3    H233153   3.382   4.921  11.807 -0.6633  0.6915 -2.0462
 3888TIP3   OH233154   2.730   6.674  12.557  0.4193 -0.1281  0.2823
 3888TIP3    H133155   2.740   6.613  12.484  2.0719  2.4402 -1.8348
 3888TIP3    H233156   2.661   6.635  12.612 -0.3575 -2.5904 -2.1995
 3889TIP3   OH233157   1.957   0.296  16.024  0.4662 -0.1019 -0.5742
 3889TIP3    H133158   1.968   0.231  15.953  1.4589 -0.9972  0.3592
 3889TIP3    H233159   1.890   0.258  16.081 -1.3125  1.2436 -1.6776
 3890TIP3   OH233160   3.793   5.906  10.398 -0.0754  0.3354  0.2296
 3890TIP3    H133161   3.736   5.845  10.351  0.4975  0.1384 -0.2295
 3890TIP3    H233162   3.873   5.856  10.414  1.5697  1.7685 -2.7157
 3891TIP3   OH233163   1.491   3.158  13.984  0.1848  0.2545 -0.2601
 3891TIP3    H133164   1.465   3.185  13.896 -0.7844 -0.3000 -0.1643
 3891TIP3    H233165   1.444   3.076  13.998  0.9440 -0.0678  0.4797
 3892TIP3   OH233166   4.675   4.168   3.380  0.0234  0.0531  0.1376
 3892TIP3    H133167   4.619   4.211   3.315  2.4534  0.2287 -1.9804
 3892TIP3    H233168   4.714   4.095   3.333  0.6106 -0.8369  1.9306
 3893TIP3   OH233169   6.804   3.517   3.934 -0.2435  0.0180  0.2279
 3893TIP3    H133170   6.759   3.583   3.987  0.8581  0.6854  0.3702
 3893TIP3    H233171   6.891   3.554   3.920  0.9697 -2.0964  1.6495
 3894TIP3   OH233172   5.099   3.297   0.072  0.0682 -0.7310 -0.0776
 3894TIP3    H133173   5.041   3.283   0.147 -1.0121 -0.0661 -0.7579
 3894TIP3    H233174   5.044   3.282  -0.005  0.5057  0.8849 -0.7682
 3895TIP3   OH233175   6.185   6.006  10.568 -0.4443  0.3428 -0.5998
 3895TIP3    H133176   6.101   5.982  10.607 -0.0147 -1.3431 -0.6151
 3895TIP3    H233177   6.168   6.007  10.474 -0.5294  0.2942 -0.5861
 3896TIP3   OH233178   6.232   0.009   4.409  0.1306 -0.0603 -0.7117
 3896TIP3    H133179   6.183   0.006   4.491  0.9195  0.2571 -0.2082
 3896TIP3    H233180   6.170   0.040   4.344 -0.0965  1.2569  0.0973
 3897TIP3   OH233181   6.547   3.970  10.633  0.2220  0.0587  0.3422
 3897TIP3    H133182   6.587   3.988  10.548  0.9719 -1.1610  0.4103
 3897TIP3    H233183   6.574   4.043  10.688  2.3440 -0.6770  0.3661
 3898TIP3   OH233184   0.330   6.650   0.916  0.1163 -0.2204 -0.1691
 3898TIP3    H133185   0.281   6.714   0.968 -0.2033 -0.8780  0.3505
 3898TIP3    H233186   0.418   6.652   0.954 -0.1663 -0.8383  0.5358
 3899TIP3   OH233187   3.848   4.228   0.007 -0.5597 -0.8104  0.2896
 3899TIP3    H133188   3.849   4.320  -0.016 -0.4997 -1.2471 -1.6435
 3899TIP3    H233189   3.940   4.201   0.005 -0.7428 -1.4843 -1.9230
 3900TIP3   OH233190   1.111   0.589  11.766 -0.3649 -0.0225  0.4010
 3900TIP3    H133191   1.106   0.684  11.775 -0.5118  0.0979 -0.8243
 3900TIP3    H233192   1.067   0.570  11.683  1.9736 -0.8748 -0.7277
 3901TIP3   OH233193   0.849   1.389   1.826 -0.2409 -0.5812  0.4094
 3901TIP3    H133194   0.791   1.360   1.755 -1.6280 -1.3158  1.7667
 3901TIP3    H233195   0.798   1.374   1.905  1.4419 -0.2487  1.6066
 3902TIP3   OH233196   6.788   1.478   1.052 -0.0343  0.0704 -0.3338
 3902TIP3    H133197   6.769   1.514   0.965 -1.2571  0.3993  0.0457
 3902TIP3    H233198   6.766   1.549   1.112 -1.1641 -0.8256  0.3502
 3903TIP3   OH233199   3.137   1.950   4.123 -0.4519  0.3855 -0.2595
 3903TIP3    H133200   3.094   2.030   4.151 -0.8378 -0.6891  2.4629
 3903TIP3    H233201   3.067   1.896   4.086 -0.4194  0.7575 -0.8802
 3904TIP3   OH233202   2.422   3.496   0.487 -0.0539 -0.0140  0.1362
 3904TIP3    H133203   2.494   3.544   0.445 -0.6342  0.3696 -0.4224
 3904TIP3    H233204   2.466   3.430   0.541  0.7136 -1.5603 -2.2212
 3905TIP3   OH233205   0.676   5.759   4.849  0.4069 -0.2330 -0.3789
 3905TIP3    H133206   0.697   5.757   4.755  0.2135 -2.1616 -0.4193
 3905TIP3    H233207   0.611   5.690   4.860 -0.4407  0.7368  1.0078
 3906TIP3   OH233208   5.118   4.623  12.646 -0.0466 -0.6537  0.4904
 3906TIP3    H133209   5.131   4.717  12.649  0.3523 -0.6697 -0.4429
 3906TIP3    H233210   5.028   4.611  12.618  0.0578 -0.5498  0.1100
 3907TIP3   OH233211   4.757   4.776   1.647  0.3486  0.2119  0.7449
 3907TIP3    H133212   4.753   4.753   1.554  0.6527  0.6521  0.6218
 3907TIP3    H233213   4.799   4.701   1.688 -2.2278 -1.2516  0.9650
 3908TIP3   OH233214   4.396   2.237   2.822 -0.3594 -0.3435  0.3365
 3908TIP3    H133215   4.483   2.224   2.785  0.7005 -0.5807  2.7465
 3908TIP3    H233216   4.340   2.252   2.746  1.4940 -1.6485 -1.4027
 3909TIP3   OH233217   5.120   3.278  16.410  0.0669  0.2365 -0.5253
 3909TIP3    H133218   5.146   3.364  16.377 -0.0296 -0.7842 -3.5535
 3909TIP3    H233219   5.058   3.296  16.480 -1.0915  2.6564 -2.0654
 3910TIP3   OH233220   1.835   6.389   3.925  0.1097  0.4202 -0.5201
 3910TIP3    H133221   1.798   6.302   3.910 -0.4790  0.3510  1.1227
 3910TIP3    H233222   1.789   6.421   4.003  2.4523  0.9505  0.7297
 3911TIP3   OH233223   2.512   6.482   2.282  0.3311  0.1275 -0.2907
 3911TIP3    H133224   2.564   6.434   2.218  1.3385  0.6428  0.1151
 3911TIP3    H233225   2.506   6.423   2.357  1.0703  0.3994 -0.0131
 3912TIP3   OH233226   3.138   5.216  10.699  0.1739 -0.8454 -0.4058
 3912TIP3    H133227   3.090   5.172  10.770  0.6983  0.8265  1.0604
 3912TIP3    H233228   3.217   5.162  10.687 -0.2413 -1.5175 -0.2043
 3913TIP3   OH233229   0.169   2.317   2.659  0.2052  0.0683  0.1484
 3913TIP3    H133230   0.117   2.349   2.586 -0.1440  1.5069  0.9966
 3913TIP3    H233231   0.232   2.387   2.677 -0.3488  0.1925  1.8264
 3914TIP3   OH233232   6.069   2.033   6.427  0.5654 -0.1798 -0.7285
 3914TIP3    H133233   6.107   2.075   6.503  3.6454 -0.8966 -1.7213
 3914TIP3    H233234   5.974   2.046   6.436  0.7785 -0.3349  3.1944
 3915TIP3   OH233235   0.901   2.810   3.099 -0.0985 -0.1571  0.3380
 3915TIP3    H133236   0.816   2.840   3.133  0.7259  0.9216  1.5593
 3915TIP3    H233237   0.914   2.861   3.019 -0.9381 -0.8938 -0.2830
 3916TIP3   OH233238   0.107   3.936  16.096  0.3591 -0.3316 -0.5447
 3916TIP3    H133239   0.023   3.905  16.061 -0.4467  0.9601  0.1642
 3916TIP3    H233240   0.124   3.879  16.171 -0.9436  0.6407  0.5507
 3917TIP3   OH233241   1.381   5.645  15.857 -0.1914  0.0123  0.1638
 3917TIP3    H133242   1.395   5.550  15.856  1.1818  0.2010 -0.4195
 3917TIP3    H233243   1.364   5.666  15.949  1.4035 -0.5596  0.6221
 3918TIP3   OH233244   0.820   1.436  13.726 -0.3684 -0.5254  0.4086
 3918TIP3    H133245   0.899   1.461  13.773  1.0293 -4.5538  0.5815
 3918TIP3    H233246   0.754   1.422  13.795 -0.6287  0.7066  0.4390
 3919TIP3   OH233247   2.223   3.284   1.226 -0.1370  0.2105 -0.3888
 3919TIP3    H133248   2.313   3.252   1.213  0.0116 -0.0921  1.2155
 3919TIP3    H233249   2.172   3.239   1.158  0.4213 -1.9377  0.5248
 3920TIP3   OH233250   6.740   1.570   1.559 -0.0857  0.2856  0.0521
 3920TIP3    H133251   6.680   1.560   1.485 -2.0218 -0.6588  1.6316
 3920TIP3    H233252   6.730   1.488   1.608  1.5759  0.6458  1.0470
 3921TIP3   OH233253   5.077   3.801   2.240  0.3340  0.1872 -0.7174
 3921TIP3    H133254   5.056   3.735   2.174 -0.0591  0.4925 -0.9025
 3921TIP3    H233255   4.996   3.852   2.249 -0.5042 -1.4301  1.8811
 3922TIP3   OH233256   3.145   2.280  13.871 -0.7091  0.4819  0.3279
 3922TIP3    H133257   3.090   2.314  13.800 -1.3480  0.7944  0.9532
 3922TIP3    H233258   3.182   2.359  13.911  0.2733  0.2666 -0.1392
 3923TIP3   OH233259   5.231   2.734  12.069  0.6400 -0.3199 -0.0481
 3923TIP3    H133260   5.296   2.709  12.135  1.0812  0.5863 -0.1276
 3923TIP3    H233261   5.196   2.651  12.037  0.5931 -0.7850  1.1508
 3924TIP3   OH233262   4.309   3.443  11.371  0.0630  0.2289 -0.2501
 3924TIP3    H133263   4.251   3.517  11.389 -1.4345 -0.7116 -1.0159
 3924TIP3    H233264   4.344   3.459  11.284  1.1912  0.9139  0.3046
 3925TIP3   OH233265   6.363   3.733   2.059  0.5234  0.0429  0.6138
 3925TIP3    H133266   6.281   3.775   2.085 -0.2733 -0.2187 -1.3387
 3925TIP3    H233267   6.339   3.642   2.041  1.0644  0.1315 -0.6770
 3926TIP3   OH233268   6.658   3.244   4.902 -0.0042  0.0378  0.4124
 3926TIP3    H133269   6.615   3.207   4.978 -0.7629  0.9435  0.4406
 3926TIP3    H233270   6.588   3.255   4.838 -0.2045  3.0103  1.0076
 3927TIP3   OH233271   4.799   3.923  16.875  0.4020 -0.0356 -0.0731
 3927TIP3    H133272   4.750   3.846  16.906  1.2779 -1.3592 -1.8422
 3927TIP3    H233273   4.767   3.937  16.786  1.1023  0.9492 -0.1800
 3928TIP3   OH233274   0.865   5.862  16.485 -0.4683 -0.3895 -0.2594
 3928TIP3    H133275   0.834   5.837  16.398 -0.3285 -0.7853 -0.1975
 3928TIP3    H233276   0.925   5.935  16.469  0.5286 -1.2618 -0.6212
 3929TIP3   OH233277   5.789   2.202   1.583  0.2796  0.1603 -0.0367
 3929TIP3    H133278   5.772   2.199   1.488 -1.8169 -1.2731  0.3056
 3929TIP3    H233279   5.802   2.295   1.601 -0.6266  0.6371 -1.5600
 3930TIP3   OH233280   1.018   0.605   2.776  0.7354  0.1900  0.0606
 3930TIP3    H133281   1.047   0.681   2.726 -0.5043  1.6861  1.4984
 3930TIP3    H233282   1.088   0.541   2.764  0.9616  0.8434 -2.6692
 3931TIP3   OH233283   1.713   0.224  14.784 -0.4128  0.0503  0.3785
 3931TIP3    H133284   1.706   0.205  14.691 -1.3573 -0.2695  0.5042
 3931TIP3    H233285   1.804   0.204  14.806  0.4187  2.1304 -0.8826
 3932TIP3   OH233286   4.783   2.728   5.225 -0.0918 -0.4778 -0.7375
 3932TIP3    H133287   4.696   2.707   5.191  0.1572 -1.6224 -0.7133
 3932TIP3    H233288   4.812   2.802   5.171 -2.8671  3.0967  2.1834
 3933TIP3   OH233289   0.614   3.819   1.279  0.4655 -0.0372  0.2242
 3933TIP3    H133290   0.528   3.777   1.287  0.1148  0.2819 -1.4768
 3933TIP3    H233291   0.607   3.898   1.333  0.5003 -1.1513  1.9407
 3934TIP3   OH233292   2.527   3.460  12.627 -0.0445 -0.7655 -0.5057
 3934TIP3    H133293   2.454   3.447  12.688 -0.4019  0.3974 -0.6777
 3934TIP3    H233294   2.505   3.539  12.578  1.6843  0.0602 -0.0447
 3935TIP3   OH233295   3.610   2.830   5.616  0.0397 -0.2790  0.8735
 3935TIP3    H133296   3.665   2.829   5.695  0.1485 -2.7198  0.8389
 3935TIP3    H233297   3.547   2.759   5.630 -2.1577  1.4398  0.2192
 3936TIP3   OH233298   2.477   4.129   4.264  0.0626 -0.6851 -0.0139
 3936TIP3    H133299   2.436   4.211   4.290 -0.9476 -0.1858 -2.7809
 3936TIP3    H233300   2.426   4.100   4.188  2.5872 -1.9679 -1.3554
 3937TIP3   OH233301   4.056   1.171   3.064 -0.4241  0.4546  0.0007
 3937TIP3    H133302   4.062   1.208   3.152 -2.2009 -0.9258  0.7815
 3937TIP3    H233303   3.989   1.103   3.072  0.6219 -0.8986 -2.0266
 3938TIP3   OH233304   6.363   1.000   0.119 -0.0312 -0.5099  0.2228
 3938TIP3    H133305   6.386   0.942   0.046 -1.9149 -1.1123  0.0646
 3938TIP3    H233306   6.295   0.953   0.167 -1.0312  1.2142  0.5719
 3939TIP3   OH233307   2.892   2.634   2.971  0.7153  0.1938 -0.3373
 3939TIP3    H133308   2.920   2.722   2.995 -1.1153  0.8845 -0.5325
 3939TIP3    H233309   2.927   2.620   2.883  0.5900  0.9485 -0.5127
 3940TIP3   OH233310   0.781   4.791  15.782 -0.0427 -0.0691 -0.6509
 3940TIP3    H133311   0.865   4.808  15.740  0.7484  0.6002  1.1072
 3940TIP3    H233312   0.804   4.745  15.863 -1.1838  1.6609  0.7321
 3941TIP3   OH233313   4.075   4.515  15.425  0.2117  0.1186  0.2209
 3941TIP3    H133314   4.065   4.503  15.519  2.6276  1.2381  0.6888
 3941TIP3    H233315   3.986   4.532  15.393 -0.6516 -0.2875  2.2711
 3942TIP3   OH233316   3.170   0.882   3.364 -0.2709  0.1298 -0.0117
 3942TIP3    H133317   3.255   0.905   3.327  0.2736  0.3024  1.2823
 3942TIP3    H233318   3.184   0.882   3.459 -1.6075 -0.2684  0.2146
 3943TIP3   OH233319   1.786   6.349  11.106 -0.4423 -0.7539  0.1115
 3943TIP3    H133320   1.875   6.381  11.098 -0.2610 -1.2122  0.2360
 3943TIP3    H233321   1.733   6.409  11.054 -0.1551 -0.1078  0.5612
 3944TIP3   OH233322   2.731   4.456   3.691  0.2858 -0.1660 -0.0609
 3944TIP3    H133323   2.786   4.530   3.716 -0.7614  0.5485  0.1795
 3944TIP3    H233324   2.683   4.434   3.770  2.4051 -2.8194  0.6776
 3945TIP3   OH233325   1.761   3.576   4.471  0.4597 -0.4064 -0.0032
 3945TIP3    H133326   1.844   3.618   4.492 -1.1388  2.3659  1.4352
 3945TIP3    H233327   1.748   3.593   4.378  0.4738  1.2669  0.2687
 3946TIP3   OH233328   1.109   5.374   4.460 -0.1514  0.4853  0.3057
 3946TIP3    H133329   1.167   5.377   4.383  0.0677 -0.3046  0.4284
 3946TIP3    H233330   1.141   5.299   4.510 -0.4225  0.8754  1.0702
 3947TIP3   OH233331   3.386   0.252  13.585  0.0251 -0.0948 -0.3421
 3947TIP3    H133332   3.480   0.250  13.603  0.4224  0.8914 -2.0448
 3947TIP3    H233333   3.372   0.338  13.543 -1.2447 -1.0233 -1.9284
 3948TIP3   OH233334   4.417   2.974   5.750  0.4534 -0.6195  0.5845
 3948TIP3    H133335   4.484   2.918   5.790  1.0941 -0.9985 -0.9353
 3948TIP3    H233336   4.347   2.914   5.726  0.3932 -0.5111  0.4859
 3949TIP3   OH233337   1.715   6.579   1.250  0.1419  0.1843 -0.4883
 3949TIP3    H133338   1.649   6.561   1.183  0.4610 -1.1587 -0.4706
 3949TIP3    H233339   1.666   6.580   1.332  0.0141  0.0447 -0.5627
 3950TIP3   OH233340   1.861   5.991   0.172  0.0863  0.0939  0.1133
 3950TIP3    H133341   1.950   6.025   0.161  0.0039  0.0954 -0.6072
 3950TIP3    H233342   1.840   6.008   0.264  0.2766  1.4159 -0.0651
 3951TIP3   OH233343   0.809   2.485   4.545  0.1645 -0.4661 -0.1730
 3951TIP3    H133344   0.834   2.449   4.460  0.8068 -1.3972  0.3900
 3951TIP3    H233345   0.882   2.541   4.571  0.2438 -0.6644  0.0367
 3952TIP3   OH233346   6.573   0.035  11.758  0.5415 -0.2559  0.8593
 3952TIP3    H133347   6.595   0.036  11.665 -0.2166  2.2700  0.6458
 3952TIP3    H233348   6.545  -0.055  11.774  3.8200 -1.6931 -0.5050
 3953TIP3   OH233349   1.219   1.573   2.026 -0.1638 -0.0250 -0.4026
 3953TIP3    H133350   1.277   1.646   2.002 -0.6298  0.3615 -0.3702
 3953TIP3    H233351   1.178   1.547   1.944  0.5403 -0.7374 -0.5415
 3954TIP3   OH233352   6.143   4.135   5.321  0.0839 -0.1542  0.4524
 3954TIP3    H133353   6.068   4.164   5.373 -1.9807 -1.1280 -1.7362
 3954TIP3    H233354   6.174   4.056   5.365 -1.5543 -0.9154  0.3248
 3955TIP3   OH233355   6.359   4.515   3.711  0.3484 -0.6366  0.1498
 3955TIP3    H133356   6.314   4.561   3.781 -0.4217 -0.7091 -0.2866
 3955TIP3    H233357   6.437   4.478   3.752  0.7461  0.6638  0.6069
 3956TIP3   OH233358   4.166   3.068   5.981  0.1712  0.0695 -0.2745
 3956TIP3    H133359   4.141   3.068   5.888 -1.2944 -1.1082  0.0766
 3956TIP3    H233360   4.091   3.105   6.026  1.7168  2.7610  0.3366
 3957TIP3   OH233361   4.194   3.192   2.492 -0.8286  0.1764  0.1977
 3957TIP3    H133362   4.192   3.100   2.469  0.2035  0.2467 -0.1880
 3957TIP3    H233363   4.136   3.234   2.429 -1.8200 -0.2791  0.7776
 3958TIP3   OH233364   0.715   0.964  16.255  0.1437  0.3394  0.1649
 3958TIP3    H133365   0.665   0.914  16.191  1.7573 -1.6843  0.3747
 3958TIP3    H233366   0.685   0.932  16.339  0.7868  0.1131  0.3151
 3959TIP3   OH233367   4.279   3.382   3.358  0.2172  0.4386 -0.0058
 3959TIP3    H133368   4.248   3.307   3.408  0.0174  0.4135 -0.1631
 3959TIP3    H233369   4.207   3.445   3.363  0.8030  1.0437  1.0096
 3960TIP3   OH233370   4.582   6.179  15.451  0.6360  0.4554  0.5059
 3960TIP3    H133371   4.667   6.141  15.428 -0.7679 -2.6970  0.0163
 3960TIP3    H233372   4.576   6.258  15.396  2.5251 -0.1368 -0.6707
 3961TIP3   OH233373   2.428   4.264  16.134 -0.3072 -0.0912 -0.5071
 3961TIP3    H133374   2.494   4.314  16.086  0.6098 -0.9488 -0.1972
 3961TIP3    H233375   2.410   4.188  16.079 -1.0157  0.1205 -0.5716
 3962TIP3   OH233376   2.490   0.980   1.744 -0.0326  0.3873 -0.0571
 3962TIP3    H133377   2.518   0.984   1.653  0.1235  1.2726  0.0157
 3962TIP3    H233378   2.445   1.063   1.759 -0.0658  0.2497  0.6662
 3963TIP3   OH233379   6.638   3.503  14.745 -0.5073 -0.1332  0.6425
 3963TIP3    H133380   6.583   3.438  14.703  0.0627 -0.8388  0.9681
 3963TIP3    H233381   6.648   3.572  14.680  0.4031 -1.2225 -0.4194
 3964TIP3   OH233382   5.941   1.467   3.063 -0.1187  0.1117 -0.2898
 3964TIP3    H133383   5.885   1.457   3.140  0.4526 -1.5479 -0.0556
 3964TIP3    H233384   5.889   1.434   2.990  0.4329 -1.2582 -0.1005
 3965TIP3   OH233385   0.259   6.398   1.117 -0.0010  0.1624  0.0054
 3965TIP3    H133386   0.340   6.399   1.065  1.0701 -0.1375  1.5935
 3965TIP3    H233387   0.208   6.472   1.084  0.2672 -0.4808 -1.9789
 3966TIP3   OH233388   2.055   6.814   2.079  0.2771 -0.0353  0.1085
 3966TIP3    H133389   1.974   6.782   2.118  0.0750  1.1051  0.6695
 3966TIP3    H233390   2.027   6.878   2.014  0.6121 -1.8623 -1.9638
 3967TIP3   OH233391   2.524   5.641   6.177  0.3518 -0.2210  0.2656
 3967TIP3    H133392   2.560   5.677   6.258  0.1492 -3.1811  1.8330
 3967TIP3    H233393   2.445   5.594   6.206 -0.0744 -0.8373 -1.7712
 3968TIP3   OH233394   2.965   6.380   5.563  0.1930  0.6448  0.3604
 3968TIP3    H133395   2.907   6.386   5.639 -0.4449  2.8405 -0.2348
 3968TIP3    H233396   2.986   6.471   5.542  2.6596 -0.0066 -0.3799
 3969TIP3   OH233397   4.505   0.635  11.100  0.4296 -0.1909 -0.0918
 3969TIP3    H133398   4.429   0.580  11.121  1.7872 -1.5540  1.5758
 3969TIP3    H233399   4.529   0.609  11.011 -1.0983  0.3480 -0.6887
 3970TIP3   OH233400   5.513   2.415   0.376 -0.0509 -0.0020  0.0715
 3970TIP3    H133401   5.548   2.340   0.328  0.2449  0.8435 -1.0932
 3970TIP3    H233402   5.579   2.434   0.443 -0.3881 -1.1013  0.7285
 3971TIP3   OH233403   6.161   2.939  15.916  0.3356  0.2200  0.0948
 3971TIP3    H133404   6.253   2.913  15.920  0.0971 -0.5675  0.5778
 3971TIP3    H233405   6.115   2.860  15.889  0.0392  1.2248 -2.7247
 3972TIP3   OH233406   0.464   0.981   1.961  0.2601 -0.4045  0.1399
 3972TIP3    H133407   0.553   0.949   1.943  1.0589  1.4685  0.5052
 3972TIP3    H233408   0.463   0.997   2.055 -0.0806  0.5849 -0.0188
 3973TIP3   OH233409   1.975   2.944   3.164 -0.3897  0.8004  0.1259
 3973TIP3    H133410   1.899   2.891   3.144  1.0822 -1.6038  0.5563
 3973TIP3    H233411   2.003   2.915   3.251  1.1802  1.3874 -0.1348
 3974TIP3   OH233412   1.479   0.352   0.447 -0.0488 -0.1600  0.2464
 3974TIP3    H133413   1.492   0.259   0.466  2.2521 -0.2610 -1.4460
 3974TIP3    H233414   1.558   0.395   0.480 -1.2305  1.3005  1.3146
 3975TIP3   OH233415   4.140   4.834  16.293  0.5571 -0.1173  0.0015
 3975TIP3    H133416   4.225   4.856  16.255  0.8185  0.1781  0.7460
 3975TIP3    H233417   4.143   4.739  16.305  0.8556 -0.0880  0.1863
 3976TIP3   OH233418   6.328   3.660   6.687  0.1744  0.3470  0.1528
 3976TIP3    H133419   6.371   3.576   6.680 -0.0620  0.1107  1.2714
 3976TIP3    H233420   6.387   3.713   6.741 -0.6083  0.2090  1.1931
 3977TIP3   OH233421   5.997   1.095   2.352 -0.2664 -0.2034 -0.1194
 3977TIP3    H133422   6.065   1.029   2.366 -0.4568 -0.1563  1.1354
 3977TIP3    H233423   6.037   1.157   2.291  0.0147 -1.3110 -1.0928
 3978TIP3   OH233424   2.605   0.146   1.080 -0.6416  0.2189  1.0539
 3978TIP3    H133425   2.655   0.090   1.140  1.3967  2.7403  1.9078
 3978TIP3    H233426   2.658   0.226   1.073 -2.4994  1.3416 -1.5074
 3979TIP3   OH233427   2.763   5.830   2.837  0.0447 -0.3070 -0.0767
 3979TIP3    H133428   2.843   5.848   2.887 -0.3059 -0.0258  0.3819
 3979TIP3    H233429   2.728   5.916   2.815 -0.2259 -0.4310 -0.1288
 3980TIP3   OH233430   0.670   4.697   6.119  0.0792 -0.1176 -0.2070
 3980TIP3    H133431   0.714   4.636   6.179 -2.2304  1.5280  3.5025
 3980TIP3    H233432   0.721   4.777   6.124  0.9681 -0.5120 -2.1130
 3981TIP3   OH233433   5.279   0.831  15.445  0.7337 -0.2004 -0.5893
 3981TIP3    H133434   5.327   0.849  15.364  0.5916  1.2438 -0.3840
 3981TIP3    H233435   5.278   0.915  15.491 -2.4061 -0.0254 -0.7995
 3982TIP3   OH233436   4.862   3.415   3.076  0.4155  0.1488 -0.2125
 3982TIP3    H133437   4.874   3.367   2.994  0.3648  1.6052 -1.1092
 3982TIP3    H233438   4.771   3.443   3.074  0.8985  1.7764 -0.5749
 3983TIP3   OH233439   0.616   0.365  15.026  0.0700  0.4026 -0.3359
 3983TIP3    H133440   0.637   0.342  14.935  1.1367  2.4737 -0.6893
 3983TIP3    H233441   0.681   0.432  15.049 -1.6799  1.7093  1.1202
 3984TIP3   OH233442   2.916   2.642   2.435 -0.1963 -0.1211  0.2530
 3984TIP3    H133443   2.884   2.690   2.511 -0.0473 -1.3937  1.1636
 3984TIP3    H233444   2.921   2.551   2.465  0.3104 -0.5811 -1.1429
 3985TIP3   OH233445   2.331   6.732   3.206 -0.0177 -0.1786 -0.5164
 3985TIP3    H133446   2.388   6.786   3.150 -0.2026 -0.2175 -0.7466
 3985TIP3    H233447   2.330   6.646   3.162  0.8894 -0.6002  0.2596
 3986TIP3   OH233448   0.622   1.788  14.555  0.0180 -0.1937 -0.1277
 3986TIP3    H133449   0.607   1.732  14.631 -1.0427 -0.1834 -0.3120
 3986TIP3    H233450   0.686   1.852  14.584  1.0676 -1.3324  0.1687
 3987TIP3   OH233451   5.799   5.376   2.050 -0.4979 -0.7499  0.3099
 3987TIP3    H133452   5.757   5.422   1.977 -0.8116 -1.3535  0.1046
 3987TIP3    H233453   5.725   5.339   2.100 -0.3051 -0.1151  1.0902
 3988TIP3   OH233454   0.823   1.053   5.402  0.2262  0.2835  0.6803
 3988TIP3    H133455   0.912   1.054   5.437  1.2960 -1.1303 -1.7609
 3988TIP3    H233456   0.790   1.142   5.416  3.0144  1.6427 -0.6671
 3989TIP3   OH233457   2.711   0.012   0.237  0.3269 -0.1045  0.3081
 3989TIP3    H133458   2.804  -0.005   0.250  0.4527  1.7187  2.3759
 3989TIP3    H233459   2.670  -0.015   0.319 -0.9332 -0.5723 -0.4502
 3990TIP3   OH233460   4.084   3.339  12.389 -0.1938 -0.1789  0.8451
 3990TIP3    H133461   4.022   3.391  12.441  0.4878  0.5655  0.9267
 3990TIP3    H233462   4.166   3.389  12.392  0.6708 -1.5698  1.4638
 3991TIP3   OH233463   5.232   5.121   3.731  0.1674  0.1690  0.2920
 3991TIP3    H133464   5.257   5.121   3.823 -2.7714 -0.1283  1.1749
 3991TIP3    H233465   5.214   5.029   3.712 -3.5374  0.6682  0.8004
 3992TIP3   OH233466   4.857   0.477  13.423 -0.9023 -0.8308 -0.3835
 3992TIP3    H133467   4.836   0.446  13.511  2.6333 -1.0403  0.5316
 3992TIP3    H233468   4.894   0.401  13.379  1.1174  0.2293 -0.6165
 3993TIP3   OH233469   0.478   4.318   2.321  0.5305  0.2604  0.3937
 3993TIP3    H133470   0.535   4.360   2.385  0.7438  1.2617 -0.4251
 3993TIP3    H233471   0.538   4.270   2.263  0.4206  0.1730  0.3520
 3994TIP3   OH233472   6.679   2.979   0.194  0.0981 -0.5045 -0.6200
 3994TIP3    H133473   6.591   2.974   0.157 -0.4997  1.3708  0.4200
 3994TIP3    H233474   6.687   2.900   0.247 -0.7723 -0.9128 -1.0670
 3995TIP3   OH233475   3.837   6.236   1.809 -0.3077  0.4393  0.4561
 3995TIP3    H133476   3.851   6.315   1.756  1.0891 -1.3528 -2.1119
 3995TIP3    H233477   3.872   6.258   1.895  1.2216  2.2730 -0.5519
 3996TIP3   OH233478   4.282   1.138  13.100  0.3563 -0.2709 -0.1268
 3996TIP3    H133479   4.233   1.120  13.180 -1.4259 -0.6967 -1.2702
 3996TIP3    H233480   4.300   1.232  13.103 -1.7203  0.1727 -0.2902
 3997TIP3   OH233481   2.653   6.221   3.390 -0.5764 -0.6568  0.6351
 3997TIP3    H133482   2.633   6.195   3.300 -2.2149 -0.7659  0.9983
 3997TIP3    H233483   2.600   6.299   3.405  0.7381  0.1965  1.0802
 3998TIP3   OH233484   3.798   1.535  11.876 -0.2458  0.0039 -0.0441
 3998TIP3    H133485   3.737   1.512  11.946 -0.7490  0.4113 -0.3418
 3998TIP3    H233486   3.814   1.629  11.887 -0.0793  0.0056 -0.2890
 3999TIP3   OH233487   0.929   6.734  14.620 -0.2194 -0.0153 -0.1301
 3999TIP3    H133488   0.898   6.736  14.711  1.6951 -1.6222  0.6288
 3999TIP3    H233489   0.992   6.806  14.614  0.8051 -0.8423  0.3192
 4000TIP3   OH233490   0.648   6.828   4.699  0.2427  0.1016 -0.2785
 4000TIP3    H133491   0.678   6.861   4.614 -1.3428 -0.1129 -0.9576
 4000TIP3    H233492   0.568   6.877   4.717  0.7103  0.3552  1.2620
 4001TIP3   OH233493   6.427   1.935   2.867  0.2982  0.6503  0.6870
 4001TIP3    H133494   6.414   1.847   2.902  0.1685 -0.4024 -1.8468
 4001TIP3    H233495   6.520   1.952   2.880  0.1589  0.5629  2.0018
 4002TIP3   OH233496   5.042   1.596   0.504  0.4875  0.1309  0.6751
 4002TIP3    H133497   5.032   1.506   0.473  0.8690  0.2541  0.1800
 4002TIP3    H233498   4.955   1.620   0.535 -0.2077  0.3611 -1.3059
 4003TIP3   OH233499   3.206   0.991   4.377 -0.9580  0.0651 -0.1551
 4003TIP3    H133500   3.215   1.036   4.460 -2.7351  0.4610 -0.1246
 4003TIP3    H233501   3.282   0.934   4.371  0.1723  1.4183  0.8492
 4004TIP3   OH233502   1.081   0.187  15.404 -0.3074 -0.5241  0.0745
 4004TIP3    H133503   1.034   0.270  15.397  0.0591 -0.3942 -0.9797
 4004TIP3    H233504   1.038   0.141  15.476  0.4213  1.1974  1.6812
 4005TIP3   OH233505   5.556   2.031   5.440  0.3805 -0.4797 -0.5554
 4005TIP3    H133506   5.482   2.068   5.488 -0.1026 -0.9334 -0.9316
 4005TIP3    H233507   5.579   1.952   5.489  3.1798  1.6176  1.8476
 4006TIP3   OH233508   2.810   0.302  16.118 -0.4833 -0.3022  0.0456
 4006TIP3    H133509   2.726   0.323  16.159 -0.9684 -1.2568 -0.4279
 4006TIP3    H233510   2.836   0.219  16.158  0.0711 -0.1854 -0.0621
 4007TIP3   OH233511   4.448   0.875   3.171 -0.2442 -0.5700  0.1947
 4007TIP3    H133512   4.520   0.812   3.173  0.8154  0.5189 -1.4462
 4007TIP3    H233513   4.373   0.826   3.139 -0.1907 -1.6529  1.6477
 4008TIP3   OH233514   3.597   6.471  12.652 -0.3972 -0.4224 -0.4566
 4008TIP3    H133515   3.542   6.543  12.682  0.8404  1.1481 -1.8281
 4008TIP3    H233516   3.625   6.428  12.733 -0.7220  0.9561  0.4300
 4009TIP3   OH233517   2.747   0.419   4.134 -0.1130 -0.2042  1.0607
 4009TIP3    H133518   2.835   0.390   4.111  0.1959  0.9032  0.7848
 4009TIP3    H233519   2.761   0.487   4.200 -0.3342  3.4392 -2.1954
 4010TIP3   OH233520   1.732   4.508   1.099  0.0965  0.5596  0.2540
 4010TIP3    H133521   1.644   4.474   1.081  0.3276  0.2110 -0.2418
 4010TIP3    H233522   1.718   4.578   1.163 -0.4194 -0.2379  1.0381
 4011TIP3   OH233523   0.715   3.161   3.058  0.1648  0.3923 -0.1993
 4011TIP3    H133524   0.699   3.238   3.113 -1.1279  0.4875 -0.6617
 4011TIP3    H233525   0.802   3.176   3.021  1.3494  0.0375  2.2416
 4012TIP3   OH233526   4.338   5.745  11.385  0.0415 -0.1040 -0.7373
 4012TIP3    H133527   4.249   5.713  11.366 -0.0003  0.3408 -1.3180
 4012TIP3    H233528   4.358   5.708  11.471 -0.7661 -0.0765 -0.5236
 4013TIP3   OH233529   2.564   4.012   1.980 -0.0792  0.1993 -0.0213
 4013TIP3    H133530   2.593   4.100   1.959 -0.3421 -0.0013 -1.2821
 4013TIP3    H233531   2.526   3.979   1.899  0.8570 -1.4111  0.1466
 4014TIP3   OH233532   1.928   2.541  14.004 -0.0219 -0.3421  0.5759
 4014TIP3    H133533   1.967   2.626  13.986  0.2996 -0.8881 -1.5765
 4014TIP3    H233534   1.981   2.479  13.953 -1.5305 -1.5460  0.3858
 4015TIP3   OH233535   6.827   3.019   3.294  0.0761 -0.1630 -0.1467
 4015TIP3    H133536   6.775   3.017   3.214  1.7825  2.4617 -1.4808
 4015TIP3    H233537   6.823   3.111   3.322  1.8989 -0.4224  1.1071
 4016TIP3   OH233538   1.262   6.222  13.110 -0.0598  0.0594  0.0517
 4016TIP3    H133539   1.332   6.270  13.154  0.4795  0.5382 -1.2626
 4016TIP3    H233540   1.269   6.133  13.144  1.0368  0.1559  0.1279
 4017TIP3   OH233541   2.539   4.515   5.862 -0.2433 -0.0860 -0.1682
 4017TIP3    H133542   2.457   4.468   5.878  0.6534 -1.9685 -0.7215
 4017TIP3    H233543   2.571   4.539   5.949 -0.5036 -0.9558  0.1776
 4018TIP3   OH233544   3.992   6.702  15.403 -0.0232  0.0984 -0.0355
 4018TIP3    H133545   3.961   6.620  15.440 -2.7737  0.9759 -0.1857
 4018TIP3    H233546   4.023   6.678  15.315  1.4426 -1.1065  0.7738
 4019TIP3   OH233547   1.082   5.094   5.936  0.0699  0.2006 -0.1665
 4019TIP3    H133548   1.039   5.075   5.852  2.4233 -2.0685 -0.9941
 4019TIP3    H233549   1.150   5.157   5.914  1.4186 -1.2305 -0.2595
 4020TIP3   OH233550   0.311   5.356  16.014  0.0141 -0.2144 -0.0438
 4020TIP3    H133551   0.387   5.411  16.032  0.1373  0.1385 -1.4791
 4020TIP3    H233552   0.289   5.316  16.098  2.2208 -0.8971  0.2821
 4021TIP3   OH233553   2.938   3.893  17.055  0.2477  0.6003 -0.0656
 4021TIP3    H133554   2.849   3.915  17.030  0.5909  1.6511 -0.4104
 4021TIP3    H233555   2.975   3.975  17.088  0.5913 -0.1826  1.6005
 4022TIP3   OH233556   0.299   3.678  14.565 -0.0358  0.0607 -0.0872
 4022TIP3    H133557   0.290   3.612  14.633  1.4730 -0.1493 -0.0451
 4022TIP3    H233558   0.292   3.629  14.483  0.9151 -0.1487 -0.0562
 4023TIP3   OH233559   3.646   1.428   4.830 -0.0549  0.2001 -0.0155
 4023TIP3    H133560   3.650   1.375   4.910  1.0029  0.4164  0.0853
 4023TIP3    H233561   3.627   1.517   4.861 -0.8858  0.0653 -0.1124
 4024TIP3   OH233562   3.862   0.380   5.101 -0.2071  0.2160  0.0033
 4024TIP3    H133563   3.918   0.322   5.048 -1.6384 -0.3263 -0.9590
 4024TIP3    H233564   3.824   0.322   5.167  0.3206  0.5882  0.6554
 4025TIP3   OH233565   0.709   6.540  12.278 -0.3433  0.1104 -0.4190
 4025TIP3    H133566   0.793   6.498  12.299  0.0864  0.6724 -0.9704
 4025TIP3    H233567   0.665   6.549  12.363 -0.4496 -1.4180 -0.2762
 4026TIP3   OH233568   2.091   4.563  16.667  0.2359 -0.1655 -0.0011
 4026TIP3    H133569   2.121   4.638  16.615 -0.2950 -0.2014 -0.3678
 4026TIP3    H233570   1.996   4.573  16.671  0.2239 -0.4559  0.5207
 4027TIP3   OH233571   3.132   0.243   0.682 -0.7945 -0.5476  0.1723
 4027TIP3    H133572   3.189   0.170   0.659  0.2944 -0.5771  2.6136
 4027TIP3    H233573   3.076   0.254   0.606  1.2658 -1.6911 -1.6420
 4028TIP3   OH233574   3.706   2.979   0.202  0.9581 -0.6079  0.6492
 4028TIP3    H133575   3.769   3.004   0.134 -0.2020  2.2827  0.4850
 4028TIP3    H233576   3.626   2.956   0.153  0.1355  1.4369  0.9111
 4029TIP3   OH233577   0.122   3.386  11.107  0.0225  0.0299  0.5727
 4029TIP3    H133578   0.075   3.304  11.090  0.7879 -0.4810  0.9053
 4029TIP3    H233579   0.145   3.418  11.020 -0.0203 -0.2622  0.4507
 4030TIP3   OH233580   1.623   0.025  14.128  0.5699 -0.4505 -0.1212
 4030TIP3    H133581   1.554  -0.013  14.182  0.3714  2.4088  1.8537
 4030TIP3    H233582   1.577   0.062  14.053 -0.4653  2.8635  1.9618
 4031TIP3   OH233583   5.649   6.730   5.785  0.0769 -0.0613  0.2242
 4031TIP3    H133584   5.686   6.818   5.776  0.2857 -0.2386 -0.7432
 4031TIP3    H233585   5.614   6.728   5.874 -1.0595  1.4346 -0.1434
 4032TIP3   OH233586   2.790   3.882   2.046  0.6671 -0.4597  0.1843
 4032TIP3    H133587   2.706   3.925   2.030  2.0154  3.1748  1.9431
 4032TIP3    H233588   2.772   3.820   2.117 -0.5436  0.2367  0.5155
 4033TIP3   OH233589   3.131   2.753  12.403  0.1315 -0.6418 -0.1098
 4033TIP3    H133590   3.203   2.811  12.430 -0.0292 -1.0703  1.3311
 4033TIP3    H233591   3.058   2.812  12.385  0.6902 -0.2355 -1.0872
 4034TIP3   OH233592   5.583   5.312   0.007  0.2041  0.0168  0.4633
 4034TIP3    H133593   5.565   5.383   0.068  0.8573  0.6466 -0.0633
 4034TIP3    H233594   5.561   5.348  -0.079 -1.1495 -1.0133  0.3382
 4035TIP3   OH233595   4.512   4.163  16.221  0.3644  0.0477 -0.0872
 4035TIP3    H133596   4.583   4.114  16.179 -0.2669 -0.0452 -1.0962
 4035TIP3    H233597   4.468   4.206  16.148 -0.7902 -0.1287  0.4966
 4036TIP3   OH233598   2.595   6.725   5.578  0.8666 -0.0719  0.2266
 4036TIP3    H133599   2.644   6.644   5.568  1.6735  0.1008  2.3151
 4036TIP3    H233600   2.662   6.793   5.585  0.2867  0.4288  1.1013
 4037TIP3   OH233601   2.529   5.507   0.294  0.1572 -0.0303  0.5705
 4037TIP3    H133602   2.512   5.417   0.269  1.9334 -0.0684 -0.6962
 4037TIP3    H233603   2.536   5.505   0.390 -0.6906 -1.0494  0.6199
 4038TIP3   OH233604   5.688   4.382   0.143 -0.6160  0.5465 -0.1451
 4038TIP3    H133605   5.745   4.365   0.218 -0.0850  0.7158 -0.4954
 4038TIP3    H233606   5.600   4.389   0.180 -0.3123  1.0311  0.5194
 4039TIP3   OH233607   6.182   1.155   4.338  0.1227 -0.2380 -0.3509
 4039TIP3    H133608   6.164   1.162   4.244  0.7996  0.9780 -0.4061
 4039TIP3    H233609   6.276   1.136   4.344 -0.1480 -1.5296  0.0600
 4040TIP3   OH233610   0.220   1.933   0.896  0.0435 -0.2922  0.4907
 4040TIP3    H133611   0.284   1.867   0.869  0.4600 -0.1326  1.0776
 4040TIP3    H233612   0.135   1.891   0.880  0.1810  0.3779 -2.6011
 4041TIP3   OH233613   5.462   4.352  13.607 -0.0300 -0.2191  0.1233
 4041TIP3    H133614   5.536   4.354  13.546  0.6334  0.9337  0.9285
 4041TIP3    H233615   5.480   4.278  13.664  0.8362  0.3975  0.6792
 4042TIP3   OH233616   1.505   6.838  12.456  0.2025  0.3590  0.0011
 4042TIP3    H133617   1.518   6.769  12.521 -0.2136 -1.3714 -1.6737
 4042TIP3    H233618   1.497   6.918  12.508  0.0403 -0.9175  2.0615
 4043TIP3   OH233619   6.061   0.004   2.187 -0.2730  0.0689  0.6300
 4043TIP3    H133620   6.142   0.024   2.141 -1.6334  0.8020 -1.6143
 4043TIP3    H233621   6.089  -0.033   2.271  2.3449 -1.0537 -0.6378
 4044TIP3   OH233622   5.811   3.535   2.172 -0.2450  0.6710  0.2917
 4044TIP3    H133623   5.828   3.611   2.229  0.3400  1.0480 -0.3766
 4044TIP3    H233624   5.735   3.561   2.121 -0.2477  0.6801  0.3002
 4045TIP3   OH233625   6.044   1.765  12.934  0.1931  0.2897  0.2847
 4045TIP3    H133626   6.057   1.769  12.839  0.1677 -1.3209  0.1783
 4045TIP3    H233627   6.131   1.783  12.970  0.8375 -1.6841 -0.1611
 4046TIP3   OH233628   2.243   3.117  16.627  0.1311  0.0978 -0.5467
 4046TIP3    H133629   2.272   3.028  16.645  0.2194  0.4996  1.5364
 4046TIP3    H233630   2.150   3.108  16.603 -0.1105 -0.4875  0.5443
 4047TIP3   OH233631   2.935   6.736   1.518  0.4885  0.2439  0.0053
 4047TIP3    H133632   2.901   6.693   1.597 -0.8713  1.7357  0.2734
 4047TIP3    H233633   2.973   6.818   1.550  0.7658  0.4320 -0.7881
 4048TIP3   OH233634   5.250   2.362   5.742 -0.5291 -0.2412 -0.2261
 4048TIP3    H133635   5.163   2.399   5.727  0.1839  1.0226 -1.5348
 4048TIP3    H233636   5.303   2.396   5.670  1.2660 -0.2812  1.0099
 4049TIP3   OH233637   1.179   6.823   2.579 -0.2235 -0.6195 -0.9314
 4049TIP3    H133638   1.182   6.833   2.674 -0.6990 -0.3886 -0.9400
 4049TIP3    H233639   1.094   6.781   2.562 -0.4514 -0.0121 -1.3110
 4050TIP3   OH233640   2.996   1.457  15.672  0.2937  0.1163  0.4153
 4050TIP3    H133641   2.903   1.474  15.687  0.5317  0.8760  1.1298
 4050TIP3    H233642   3.000   1.365  15.648 -0.5994 -0.0292  0.7692
 4051TIP3   OH233643   0.241   3.089  11.071  0.1014  0.2437  0.0182
 4051TIP3    H133644   0.326   3.087  11.028 -0.7961 -1.2947 -1.8268
 4051TIP3    H233645   0.261   3.090  11.164  2.1723 -1.9217 -0.3240
 4052TIP3   OH233646   1.022   0.343  12.797  0.3734  0.0854  0.4529
 4052TIP3    H133647   1.068   0.410  12.846 -0.3295  0.4643  0.6009
 4052TIP3    H233648   0.954   0.311  12.856 -0.3914  0.4447 -0.2139
 4053TIP3   OH233649   5.381   3.847   6.106 -0.2704  0.2406 -0.5703
 4053TIP3    H133650   5.312   3.833   6.170 -0.3964  0.9855 -0.5370
 4053TIP3    H233651   5.463   3.836   6.155 -0.3398 -1.4225 -0.7765
 4054TIP3   OH233652   2.586   1.516   0.544 -0.1747 -0.4767  0.5152
 4054TIP3    H133653   2.549   1.496   0.630  0.1260 -4.3442 -0.0564
 4054TIP3    H233654   2.619   1.605   0.551  0.9482 -1.0279  4.8273
 4055TIP3   OH233655   0.667   4.452  15.603 -0.0678 -0.3899  0.5727
 4055TIP3    H133656   0.620   4.513  15.660  1.0380  2.5445 -1.3655
 4055TIP3    H233657   0.727   4.406  15.662 -1.6701 -0.3622  2.2921
 4056TIP3   OH233658   4.663   1.763  12.995 -0.4489  0.2907 -0.5639
 4056TIP3    H133659   4.741   1.764  13.051 -0.8315  0.4576 -0.0306
 4056TIP3    H233660   4.694   1.798  12.911  0.5698 -1.6691 -1.0748
 4057TIP3   OH233661   4.924   2.572   5.409  0.2511 -0.3021 -0.0180
 4057TIP3    H133662   4.929   2.643   5.474 -0.0046  0.5304 -0.8914
 4057TIP3    H233663   4.855   2.600   5.349  1.9636  0.0207 -1.9332
 4058TIP3   OH233664   0.713   3.738   3.925  0.1314  0.3638 -0.4730
 4058TIP3    H133665   0.665   3.764   4.003 -0.0371 -1.3453  0.0167
 4058TIP3    H233666   0.727   3.820   3.877  1.5673  1.6970  2.0469
 4059TIP3   OH233667   1.203   1.083   3.138  0.2917 -0.7318 -0.0036
 4059TIP3    H133668   1.142   1.143   3.180  0.5763 -1.4295  1.4799
 4059TIP3    H233669   1.260   1.139   3.085 -0.9755  0.0223 -0.6018
 4060TIP3   OH233670   6.102   4.852   1.379 -0.4557 -0.0459  0.3419
 4060TIP3    H133671   6.140   4.818   1.460  1.2110  0.1618 -0.3217
 4060TIP3    H233672   6.046   4.924   1.407  2.9463  2.5398  1.1414
 4061TIP3   OH233673   1.648   6.795   5.020  0.4148  0.2652 -0.6938
 4061TIP3    H133674   1.715   6.841   4.970  0.3566  1.0010 -0.1298
 4061TIP3    H233675   1.603   6.865   5.069  0.2502 -0.3821  0.1095
 4062TIP3   OH233676   1.705   0.717  10.722 -0.1262 -0.7850  0.4575
 4062TIP3    H133677   1.629   0.769  10.695 -0.4666 -2.6743 -2.8862
 4062TIP3    H233678   1.769   0.781  10.752 -1.9173  1.1378  0.4120
 4063TIP3   OH233679   4.113   5.721  12.762 -0.0456 -0.0018  0.0239
 4063TIP3    H133680   4.142   5.664  12.833 -0.6785  0.0890  0.3640
 4063TIP3    H233681   4.085   5.661  12.693  0.7398 -0.0895 -0.2329
 4064TIP3   OH233682   1.573   6.003  14.648 -0.1249 -0.4532 -0.0394
 4064TIP3    H133683   1.533   6.057  14.716 -0.3085 -0.1795 -0.3576
 4064TIP3    H233684   1.667   6.010  14.663 -0.0502  1.2114 -0.9938
 4065TIP3   OH233685   3.480   0.150  16.619  0.1668 -0.3812 -0.1461
 4065TIP3    H133686   3.511   0.144  16.528  0.4061 -0.2776 -0.0725
 4065TIP3    H233687   3.435   0.067  16.634 -0.5023 -0.0990 -0.5871
 4066TIP3   OH233688   4.311   2.936  13.383  0.1054 -0.2634  0.2261
 4066TIP3    H133689   4.260   2.931  13.464 -0.7199 -0.2888 -0.2894
 4066TIP3    H233690   4.264   2.997  13.328  0.9821  0.1978 -0.0272
 4067TIP3   OH233691   0.471   1.253   6.209  0.4108  0.5670  0.6678
 4067TIP3    H133692   0.397   1.196   6.190 -0.2142  1.5371  0.1018
 4067TIP3    H233693   0.535   1.196   6.250  0.3397 -0.8363 -1.0458
 4068TIP3   OH233694   4.385   1.827   3.510  0.0881  0.1624 -0.3742
 4068TIP3    H133695   4.325   1.789   3.446 -1.8680  1.1345  0.7941
 4068TIP3    H233696   4.436   1.753   3.542 -2.6877 -1.3515  0.8750
 4069TIP3   OH233697   4.801   2.577  14.982 -0.1331  0.6757 -0.5109
 4069TIP3    H133698   4.728   2.553  14.925  0.6618  2.2386 -2.2965
 4069TIP3    H233699   4.806   2.673  14.976  0.7263  0.7792  1.2716
 4070TIP3   OH233700   6.249   3.771  14.790 -0.4335 -0.1231  0.4487
 4070TIP3    H133701   6.276   3.768  14.882  0.4768 -0.6374  0.1732
 4070TIP3    H233702   6.211   3.858  14.779  0.2838  0.2835  1.0835
 4071TIP3   OH233703   4.507   3.436  16.615  0.4489 -0.0726  0.2151
 4071TIP3    H133704   4.489   3.522  16.577  0.0372 -0.1550  0.2145
 4071TIP3    H233705   4.483   3.373  16.547  0.1731 -0.2041  0.4268
 4072TIP3   OH233706   2.294   1.332   4.638 -0.1604 -0.0127  0.2555
 4072TIP3    H133707   2.358   1.379   4.586 -0.1283 -0.7025 -0.3556
 4072TIP3    H233708   2.299   1.242   4.607 -2.9734  0.2872 -1.4318
 4073TIP3   OH233709   6.301   5.909   2.913 -0.3334  0.3167  0.9278
 4073TIP3    H133710   6.374   5.948   2.864 -1.0471  0.4488 -0.0565
 4073TIP3    H233711   6.339   5.831   2.954  0.2954  0.2076  0.1638
 4074TIP3   OH233712   3.385   5.820  16.147  0.2204  0.5797 -0.3110
 4074TIP3    H133713   3.424   5.800  16.062  1.7836  1.5349  0.1336
 4074TIP3    H233714   3.408   5.745  16.202 -0.2491  0.2513 -0.5588
 4075TIP3   OH233715   6.269   3.528  11.575  0.2101 -0.3544  0.1245
 4075TIP3    H133716   6.344   3.562  11.624  0.9539 -0.8127 -0.6727
 4075TIP3    H233717   6.269   3.434  11.592  0.7884 -0.6088 -1.1214
 4076TIP3   OH233718   1.725   0.214  13.820  0.0524 -0.6613  0.3193
 4076TIP3    H133719   1.738   0.136  13.766 -0.3855 -1.4438  1.3096
 4076TIP3    H233720   1.637   0.203  13.857 -0.4437  0.8210 -0.3336
 4077TIP3   OH233721   2.865   6.090  14.191  0.3310 -0.5588 -0.0510
 4077TIP3    H133722   2.895   6.179  14.173  1.2448 -0.3699  2.0733
 4077TIP3    H233723   2.932   6.054  14.249  0.0608 -2.7239 -0.9953
 4078TIP3   OH233724   5.871   1.052  16.246  0.1030  0.1453  0.2309
 4078TIP3    H133725   5.954   1.092  16.271  0.8570 -0.1790 -1.5451
 4078TIP3    H233726   5.883   1.029  16.153 -1.8886 -0.1323  0.0016
 4079TIP3   OH233727   0.565   1.084   4.125 -0.1672  0.1080  0.3134
 4079TIP3    H133728   0.589   1.157   4.183  0.3965  1.6519 -1.7291
 4079TIP3    H233729   0.473   1.099   4.106 -0.2419 -0.1442  0.4829
 4080TIP3   OH233730   6.488   5.798   3.941 -0.4364  0.1081  0.1284
 4080TIP3    H133731   6.510   5.889   3.920  0.3697 -0.1449 -0.1425
 4080TIP3    H233732   6.406   5.782   3.895  0.3878  0.1149 -1.3829
 4081TIP3   OH233733   0.867   0.076  10.447 -0.4039  0.1773  0.3296
 4081TIP3    H133734   0.848   0.030  10.364 -0.8182 -0.1648  0.6089
 4081TIP3    H233735   0.810   0.034  10.511 -0.0986  0.4565  0.7901
 4082TIP3   OH233736   5.890   4.001  13.022  0.5329  0.2431 -0.2232
 4082TIP3    H133737   5.869   4.027  12.932 -2.4876 -1.4725 -0.1428
 4082TIP3    H233738   5.964   3.940  13.012 -0.9791 -1.4704 -1.8624
 4083TIP3   OH233739   4.150   3.992  16.662 -0.4958 -0.1096  0.1362
 4083TIP3    H133740   4.148   4.086  16.678  2.0809  0.1507 -0.6025
 4083TIP3    H233741   4.192   3.955  16.740 -0.3462 -0.4816 -0.1180
 4084TIP3   OH233742   2.326   3.130   1.861 -0.6217  0.1768  0.5639
 4084TIP3    H133743   2.315   3.210   1.810  1.6817  1.2254  1.5459
 4084TIP3    H233744   2.350   3.064   1.797  1.3394  1.2577  0.0975
 4085TIP3   OH233745   1.310   6.381   4.164  0.0314 -0.2371  0.2198
 4085TIP3    H133746   1.282   6.472   4.151  1.4222  0.0008 -1.5632
 4085TIP3    H233747   1.252   6.348   4.232 -2.1936  1.2439 -0.8282
 4086TIP3   OH233748   0.806   5.705  12.977 -0.0790 -0.0482 -0.2641
 4086TIP3    H133749   0.862   5.714  12.900 -1.4104 -2.4747 -1.6143
 4086TIP3    H233750   0.836   5.624  13.019 -1.7101 -0.6983 -0.2944
 4087TIP3   OH233751   1.319   0.538  16.653  0.2160 -0.2665 -0.2130
 4087TIP3    H133752   1.289   0.502  16.569 -0.2529  0.4271 -0.3592
 4087TIP3    H233753   1.361   0.465  16.697  0.4529 -0.6481 -1.0515
 4088TIP3   OH233754   5.379   5.101   2.277  0.0909 -0.3967 -0.0671
 4088TIP3    H133755   5.322   5.161   2.325 -1.3999 -1.9108  0.1815
 4088TIP3    H233756   5.406   5.036   2.342  0.0418 -1.1083 -0.7435
 4089TIP3   OH233757   4.165   5.475  16.528 -0.4044  0.4833  0.0299
 4089TIP3    H133758   4.176   5.419  16.451  0.7820  1.1798 -0.3219
 4089TIP3    H233759   4.099   5.429  16.581  0.4222 -1.1701 -0.3124
 4090TIP3   OH233760   1.602   4.845   4.888 -0.3489  0.1372  0.2886
 4090TIP3    H133761   1.550   4.896   4.825 -0.3035 -1.0743 -0.7734
 4090TIP3    H233762   1.542   4.827   4.960 -0.2733  1.9417  0.8608
 4091TIP3   OH233763   5.244   6.655  11.588 -0.2411  0.4412  0.0159
 4091TIP3    H133764   5.337   6.675  11.589  0.0987 -0.9852 -0.7160
 4091TIP3    H233765   5.201   6.735  11.618  1.1795  1.2888 -0.1732
 4092TIP3   OH233766   3.838   6.224  14.073  0.0020 -0.2272  0.4680
 4092TIP3    H133767   3.861   6.270  13.992 -0.8867  0.6257  0.6783
 4092TIP3    H233768   3.874   6.136  14.062  2.1224  0.5987  0.2202
 4093TIP3   OH233769   6.695   3.076   2.609  0.5870 -0.3840 -0.1533
 4093TIP3    H133770   6.773   3.126   2.584  0.8558 -0.5999  0.2326
 4093TIP3    H233771   6.672   3.026   2.530 -0.6899  1.5871 -1.0933
 4094TIP3   OH233772   6.179   6.048   4.622 -0.4540  0.3516  0.3462
 4094TIP3    H133773   6.180   5.957   4.654  1.2188  0.6386  1.1886
 4094TIP3    H233774   6.227   6.097   4.688  1.7208  1.2572 -1.7582
 4095TIP3   OH233775   5.798   2.474   2.007 -0.6744 -0.3515 -0.1117
 4095TIP3    H133776   5.873   2.527   1.979 -0.4063 -0.9899 -0.6059
 4095TIP3    H233777   5.747   2.460   1.927 -1.0154 -0.4175  0.1134
 4096TIP3   OH233778   4.134   1.957   3.778 -0.6124 -0.0752 -0.3239
 4096TIP3    H133779   4.122   1.979   3.686 -0.8825 -0.6259 -0.4231
 4096TIP3    H233780   4.176   1.871   3.777  2.1333  1.1380  0.0259
 4097TIP3   OH233781   1.250   3.499   1.940 -0.4916  0.4319 -0.3250
 4097TIP3    H133782   1.245   3.436   2.012 -1.9962  0.4887 -0.3442
 4097TIP3    H233783   1.333   3.480   1.898 -1.3156 -2.2634 -0.9687
 4098TIP3   OH233784   6.232   1.404   3.803 -0.2729  0.4011 -0.0509
 4098TIP3    H133785   6.325   1.425   3.801 -0.0281 -0.6543 -0.4656
 4098TIP3    H233786   6.197   1.454   3.876  0.2673  2.1747 -0.9508
 4099TIP3   OH233787   6.398   5.939  14.691 -0.1488  0.0452  0.4178
 4099TIP3    H133788   6.423   5.860  14.739 -0.3064 -0.8101 -0.8706
 4099TIP3    H233789   6.433   5.926  14.603 -1.7419  0.5744 -0.3321
 4100TIP3   OH233790   6.432   2.032   0.502  0.0771  0.2058  0.3797
 4100TIP3    H133791   6.435   2.083   0.421 -1.0251  1.2948  1.0115
 4100TIP3    H233792   6.401   1.946   0.475 -2.0824  1.0992 -0.1208
 4101TIP3   OH233793   0.871   5.371  16.051  0.3139  0.1792  0.4606
 4101TIP3    H133794   0.856   5.281  16.078  0.6689 -0.0822 -0.2102
 4101TIP3    H233795   0.794   5.393  15.998  0.0573  0.3902  0.9158
 4102TIP3   OH233796   5.412   4.689  17.078  0.0391  0.0662 -1.2478
 4102TIP3    H133797   5.336   4.746  17.071 -0.1663 -0.2940 -1.9776
 4102TIP3    H233798   5.381   4.603  17.049  0.0924 -0.6627  0.7010
 4103TIP3   OH233799   4.097   5.964   1.227 -0.4990  0.3415 -0.1192
 4103TIP3    H133800   4.138   6.006   1.152  0.7533 -1.2108 -0.3563
 4103TIP3    H233801   4.154   5.890   1.247 -2.8894 -1.6265 -0.1199
 4104TIP3   OH233802   4.808   6.686  13.132 -0.3411  0.1387  0.0758
 4104TIP3    H133803   4.876   6.672  13.198  0.7204 -0.7271 -1.1502
 4104TIP3    H233804   4.762   6.765  13.162  0.5929  0.2132  1.4311
 4105TIP3   OH233805   6.338   1.959   1.914 -0.7785 -0.1486 -0.3016
 4105TIP3    H133806   6.381   1.982   1.996  0.8078  1.6356 -1.5600
 4105TIP3    H233807   6.377   2.017   1.849 -0.4122 -2.8920 -2.7495
 4106TIP3   OH233808   4.576   0.712   3.533 -0.0086 -0.3127  0.0201
 4106TIP3    H133809   4.516   0.643   3.560 -0.2976  0.8611  2.6829
 4106TIP3    H233810   4.520   0.788   3.518  0.5516  0.0418 -0.3135
 4107TIP3   OH233811   4.402   3.193   5.442 -0.2892  0.3320 -0.0288
 4107TIP3    H133812   4.384   3.280   5.408 -1.0686  0.1765 -0.0524
 4107TIP3    H233813   4.315   3.159   5.465  0.0025 -0.4629 -0.0916
 4108TIP3   OH233814   5.229   0.180   2.680  0.0395  0.7601  0.1013
 4108TIP3    H133815   5.151   0.126   2.669  1.3209 -1.3879  1.0079
 4108TIP3    H233816   5.209   0.237   2.755 -0.9354  0.8021 -0.1830
 4109TIP3   OH233817   5.355   5.126  10.861 -0.1108  0.0247 -0.0320
 4109TIP3    H133818   5.421   5.140  10.929 -0.0075  0.8778 -0.2969
 4109TIP3    H233819   5.360   5.204  10.806 -2.4914  0.9194  0.8858
 4110TIP3   OH233820   6.637   0.761   0.083 -0.0055 -0.3867 -0.1677
 4110TIP3    H133821   6.648   0.671   0.114 -1.0536 -0.6918 -0.6188
 4110TIP3    H233822   6.562   0.794   0.133  0.8175  0.4959  0.5162
 4111TIP3   OH233823   0.126   5.242   4.983 -0.2686 -0.1632  0.0168
 4111TIP3    H133824   0.057   5.230   5.048  0.2589 -3.8196  0.1310
 4111TIP3    H233825   0.206   5.250   5.035 -0.2160  0.4991 -0.1602
 4112TIP3   OH233826   1.372   0.557   4.835 -0.5568  0.3213  0.8480
 4112TIP3    H133827   1.365   0.613   4.758 -0.1516  0.3324  0.8204
 4112TIP3    H233828   1.466   0.547   4.850 -0.6067  1.6788  2.3223
 4113TIP3   OH233829   1.595   4.749  14.813 -0.5314  0.1869 -0.0868
 4113TIP3    H133830   1.648   4.720  14.738 -0.2327 -0.3546  0.3209
 4113TIP3    H233831   1.644   4.718  14.890 -1.2348  0.0395  0.3095
 4114TIP3   OH233832   0.956   4.316  14.278  0.4248  0.0296  0.3863
 4114TIP3    H133833   0.898   4.240  14.279 -0.0351  0.3744 -0.2270
 4114TIP3    H233834   1.044   4.278  14.287  0.1681 -0.5362  0.5897
 4115TIP3   OH233835   2.528   3.139  14.607  0.4605 -0.4094  0.0324
 4115TIP3    H133836   2.581   3.074  14.655 -0.5047 -1.4888 -0.3150
 4115TIP3    H233837   2.475   3.087  14.547 -0.0865  0.7472 -0.5155
 4116TIP3   OH233838   3.971   6.204   5.598  0.0972 -0.4915  0.0703
 4116TIP3    H133839   4.031   6.228   5.668 -0.6173  1.3157  0.1302
 4116TIP3    H233840   4.000   6.256   5.523 -1.1725  0.1968  0.0203
 4117TIP3   OH233841   3.835   5.340  14.397 -0.3360 -0.1904 -0.1734
 4117TIP3    H133842   3.740   5.326  14.394 -0.8660  2.8263 -1.7815
 4117TIP3    H233843   3.862   5.333  14.305  0.5627  1.2212 -0.0399
 4118TIP3   OH233844   2.719   3.508  11.104 -0.2944  0.3165 -0.0938
 4118TIP3    H133845   2.725   3.577  11.038  1.3718  0.1787 -0.1217
 4118TIP3    H233846   2.769   3.435  11.067  0.6079  0.2154  1.2764
 4119TIP3   OH233847   2.528   2.658  11.543 -0.0636 -0.6795 -0.0901
 4119TIP3    H133848   2.455   2.598  11.533  0.8958 -2.7661  3.7436
 4119TIP3    H233849   2.517   2.721  11.471 -3.3073 -3.1334 -2.0050
 4120TIP3   OH233850   3.609   3.316   5.161 -0.1383 -0.1878  0.3302
 4120TIP3    H133851   3.683   3.350   5.211  0.7008 -1.2782 -0.1361
 4120TIP3    H233852   3.534   3.367   5.192  0.7397  0.7127  1.0480
 4121TIP3   OH233853   3.001   3.721  11.694 -0.0077  0.4385 -0.0069
 4121TIP3    H133854   2.934   3.785  11.717 -1.5640 -1.3486  0.7081
 4121TIP3    H233855   3.062   3.721  11.769 -1.3621 -0.6025  1.1528
 4122TIP3   OH233856   3.510   2.056   5.337  0.8603 -0.6367  0.5378
 4122TIP3    H133857   3.564   2.116   5.389  0.0962 -0.3455  1.0257
 4122TIP3    H233858   3.548   1.970   5.352  2.4275 -0.2188 -0.7495
 4123TIP3   OH233859   1.630   4.223   1.803  0.5183  0.5254  0.6123
 4123TIP3    H133860   1.681   4.151   1.767 -1.9429 -1.0375  0.0244
 4123TIP3    H233861   1.567   4.244   1.734 -0.2969  1.6774  1.6678
 4124TIP3   OH233862   5.851   4.126   0.356  0.0513  0.2680 -0.5675
 4124TIP3    H133863   5.853   4.032   0.372 -0.5240  0.1277 -1.2247
 4124TIP3    H233864   5.759   4.145   0.336  0.2591  0.8681 -1.0040
 4125TIP3   OH233865   2.999   5.259  14.990 -0.8699 -0.5549 -0.2933
 4125TIP3    H133866   3.041   5.340  15.019 -2.3065 -0.6765  2.4231
 4125TIP3    H233867   2.992   5.269  14.895  1.3845  1.2809 -0.3673
 4126TIP3   OH233868   0.289   6.479   4.296 -0.6522 -0.3541 -0.4387
 4126TIP3    H133869   0.247   6.477   4.382 -1.1081 -2.4612 -0.6606
 4126TIP3    H233870   0.381   6.498   4.315 -0.9661  0.4608  0.3785
 4127TIP3   OH233871   1.923   3.107   0.609 -0.3351 -0.6799  0.5084
 4127TIP3    H133872   1.924   3.011   0.614 -0.0045 -0.7364 -0.4836
 4127TIP3    H233873   1.940   3.127   0.517  0.5431  0.3584  0.8674
 4128TIP3   OH233874   2.428   0.423   5.819 -0.3549  0.2525 -0.7966
 4128TIP3    H133875   2.422   0.429   5.723 -0.8398 -1.1757 -0.8779
 4128TIP3    H233876   2.416   0.513   5.849  1.1295  0.9682 -2.1284
 4129TIP3   OH233877   1.950   0.992  13.587  0.1212  0.1432 -0.3897
 4129TIP3    H133878   1.969   0.963  13.498 -1.1043  0.8923 -0.9175
 4129TIP3    H233879   2.025   1.047  13.611  0.2849  0.2239 -1.0767
 4130TIP3   OH233880   4.849   2.635  13.564  0.2836 -0.2996 -0.3673
 4130TIP3    H133881   4.838   2.725  13.595 -0.2408  0.6336 -2.9692
 4130TIP3    H233882   4.782   2.585  13.610 -1.0663  1.1627 -0.6594
 4131TIP3   OH233883   5.940   3.581  15.398 -0.2623  0.6255 -0.3819
 4131TIP3    H133884   5.976   3.664  15.428 -0.9037  0.4242  1.0190
 4131TIP3    H233885   5.852   3.578  15.435  0.0532 -1.0507  0.3004
 4132TIP3   OH233886   5.909   0.412   1.310 -0.0376  0.2007 -0.1164
 4132TIP3    H133887   5.844   0.357   1.266 -2.6164  1.2563  2.0931
 4132TIP3    H233888   5.908   0.494   1.261  1.3679 -0.5204 -1.4252
 4133TIP3   OH233889   5.246   0.835  14.745 -0.4842 -0.0844  0.0918
 4133TIP3    H133890   5.326   0.791  14.771 -0.3594  0.0909  0.0068
 4133TIP3    H233891   5.186   0.823  14.819 -0.2207  0.1888  0.3497
 4134TIP3   OH233892   0.611   5.510  11.020  0.9867  0.0792 -0.3624
 4134TIP3    H133893   0.567   5.573  11.077 -1.8216 -0.3125 -1.9703
 4134TIP3    H233894   0.659   5.564  10.957  0.9612  0.5511  0.0198
 4135TIP3   OH233895   6.655   2.544  12.833 -0.3163 -0.3078  0.6720
 4135TIP3    H133896   6.671   2.577  12.745 -1.0270  1.8948  1.2924
 4135TIP3    H233897   6.608   2.462  12.821 -1.6476  0.6516 -1.0033
 4136TIP3   OH233898   2.631   5.298   3.157  0.2378 -0.3113  0.6339
 4136TIP3    H133899   2.720   5.275   3.129  0.4600  0.0842  1.0088
 4136TIP3    H233900   2.640   5.323   3.249 -0.1334  0.4726  0.4605
 4137TIP3   OH233901   3.512   3.126   2.612  0.4920  0.1395  0.3229
 4137TIP3    H133902   3.485   3.170   2.532 -0.7706 -2.5092 -0.8201
 4137TIP3    H233903   3.436   3.131   2.670  0.4077 -0.3274  0.2602
 4138TIP3   OH233904   2.152   2.104   2.914 -0.5180 -0.1083 -1.0421
 4138TIP3    H133905   2.215   2.040   2.946 -1.3685 -0.7834 -0.6847
 4138TIP3    H233906   2.205   2.172   2.874  0.3871 -1.3616 -2.0471
 4139TIP3   OH233907   3.469   6.279   0.552  0.2810  0.7002  0.5149
 4139TIP3    H133908   3.471   6.267   0.457  0.0524 -0.1563  0.6098
 4139TIP3    H233909   3.386   6.242   0.579 -0.9196  3.3664  0.7734
 4140TIP3   OH233910   2.399   5.452  14.476 -0.6245  0.2747  0.3199
 4140TIP3    H133911   2.367   5.362  14.477 -0.3663  0.1828  0.4197
 4140TIP3    H233912   2.363   5.489  14.395  0.3850 -0.3371 -0.4414
 4141TIP3   OH233913   3.792   4.015   4.968  0.4332 -0.5612  0.0022
 4141TIP3    H133914   3.802   3.986   5.058 -0.0054  0.7855  0.5176
 4141TIP3    H233915   3.882   4.024   4.935  0.6804  0.9112  0.9984
 4142TIP3   OH233916   2.648   4.853  14.755  0.0289  0.0892 -0.4420
 4142TIP3    H133917   2.681   4.875  14.842  0.0005 -1.2826 -0.0706
 4142TIP3    H233918   2.685   4.921  14.698  3.2833 -1.1492 -0.0112
 4143TIP3   OH233919   4.886   3.686   3.172  0.1097 -0.7927 -0.3125
 4143TIP3    H133920   4.973   3.679   3.210 -0.1143 -0.3443  0.3013
 4143TIP3    H233921   4.871   3.603   3.128  1.2533 -0.5040 -1.2845
 4144TIP3   OH233922   4.579   5.643  12.077  0.7374  0.0405 -0.0413
 4144TIP3    H133923   4.494   5.688  12.077  1.2713  1.1408  1.3711
 4144TIP3    H233924   4.635   5.699  12.131  2.2163 -0.9442 -0.5087
 4145TIP3   OH233925   0.386   2.377   4.707 -0.0590 -0.3434  0.6287
 4145TIP3    H133926   0.344   2.319   4.771  0.7052 -1.1264  0.4401
 4145TIP3    H233927   0.479   2.375   4.731 -0.1173  1.5071  1.1648
 4146TIP3   OH233928   0.462   6.074  16.352 -0.3847  0.3561 -0.0340
 4146TIP3    H133929   0.455   6.085  16.446  1.0817 -0.3914  0.1949
 4146TIP3    H233930   0.542   6.022  16.339 -0.3514  0.7367 -1.6977
 4147TIP3   OH233931   4.967   2.053  14.185 -0.6609  0.1608 -0.5808
 4147TIP3    H133932   4.950   2.013  14.270 -0.1542 -1.5470 -1.2378
 4147TIP3    H233933   5.024   2.127  14.204 -0.1059 -0.5239  0.5261
 4148TIP3   OH233934   0.488   0.068   4.163  0.5289  0.0928 -0.2426
 4148TIP3    H133935   0.502   0.129   4.090  1.3433  0.2119 -0.0015
 4148TIP3    H233936   0.544  -0.007   4.142  0.1914 -0.1994 -0.1066
 4149TIP3   OH233937   5.298   0.752  17.061 -0.1225 -0.3449 -0.4585
 4149TIP3    H133938   5.226   0.713  17.110  0.9540 -0.1906  1.3285
 4149TIP3    H233939   5.377   0.723  17.107  0.8200  2.3722 -0.1945
 4150TIP3   OH233940   4.838   0.776   6.542  0.3080 -0.3941 -0.3846
 4150TIP3    H133941   4.788   0.715   6.596 -0.9485 -0.1941 -1.2669
 4150TIP3    H233942   4.839   0.857   6.593 -1.9959  0.1927 -1.1462
 4151TIP3   OH233943   5.254   0.155   5.065 -0.4349 -0.2734  0.1864
 4151TIP3    H133944   5.280   0.122   4.978  0.9019 -3.4349  1.6166
 4151TIP3    H233945   5.259   0.250   5.057 -1.2240 -0.3748 -3.4108
 4152TIP3   OH233946   5.597   1.837  12.029  0.3044  0.0105  0.0838
 4152TIP3    H133947   5.537   1.813  11.958 -1.4247 -2.2386  2.1328
 4152TIP3    H233948   5.558   1.916  12.068  0.4115  0.3424 -0.4663
 4153TIP3   OH233949   4.743   1.976   1.996 -0.2429 -0.6213 -0.8976
 4153TIP3    H133950   4.653   2.010   1.992 -0.7695 -1.6607  0.7348
 4153TIP3    H233951   4.734   1.883   1.975  0.0552 -1.2455  1.4432
 4154TIP3   OH233952   0.382   5.834   2.220  0.1268  0.1252 -0.0077
 4154TIP3    H133953   0.301   5.828   2.270  0.0259 -1.1953 -0.2969
 4154TIP3    H233954   0.367   5.906   2.158 -0.3865  0.6255  0.6878
 4155TIP3   OH233955   5.199   2.355  11.578  0.0214  0.1307 -0.1586
 4155TIP3    H133956   5.295   2.357  11.585  0.2874  0.2697 -2.7282
 4155TIP3    H233957   5.179   2.263  11.558 -0.5883 -0.2402  1.9736
 4156TIP3   OH233958   5.934   1.755   3.375  0.5395  0.2670 -0.0572
 4156TIP3    H133959   5.863   1.708   3.331  0.0100 -0.3487  1.4087
 4156TIP3    H233960   6.014   1.713   3.343  0.1467 -0.4433 -0.1150
 4157TIP3   OH233961   4.108   5.620  11.409  0.0577 -0.4406 -0.4268
 4157TIP3    H133962   4.073   5.632  11.320 -1.4222 -1.2366  0.0065
 4157TIP3    H233963   4.092   5.528  11.428  1.4360 -0.5634  0.2505
 4158TIP3   OH233964   6.394   3.051  13.771  0.2893 -0.3744 -0.5324
 4158TIP3    H133965   6.434   2.965  13.780 -0.3252 -0.5624  0.6529
 4158TIP3    H233966   6.305   3.040  13.804 -0.0456  0.5467 -1.0654
 4159TIP3   OH233967   3.181   2.789   5.792  0.3202 -0.0710 -0.3916
 4159TIP3    H133968   3.122   2.864   5.784  1.3287  0.7275 -0.5384
 4159TIP3    H233969   3.222   2.800   5.877 -2.3501 -2.6199  1.4394
 4160TIP3   OH233970   6.693   3.854  16.321 -0.1331 -0.1988  0.4347
 4160TIP3    H133971   6.666   3.860  16.229  1.1204 -0.0221  0.0501
 4160TIP3    H233972   6.739   3.771  16.327  1.1729  0.5066  0.4960
 4161TIP3   OH233973   0.582   0.737  11.648 -0.2180 -0.4193 -0.7024
 4161TIP3    H133974   0.533   0.655  11.647  1.0433 -1.2109 -0.6263
 4161TIP3    H233975   0.518   0.804  11.673 -0.8846 -1.6682  1.1081
 4162TIP3   OH233976   1.429   0.878  12.334 -0.2974  0.0134  0.3362
 4162TIP3    H133977   1.516   0.915  12.349 -0.4266  0.5493 -0.2007
 4162TIP3    H233978   1.401   0.846  12.420 -0.5106  1.8868  1.0078
 4163TIP3   OH233979   3.622   5.258   1.964 -0.0468  0.1977  0.9033
 4163TIP3    H133980   3.629   5.178   1.912 -3.0913  0.8050 -0.6376
 4163TIP3    H233981   3.529   5.266   1.983  0.0143  3.7996  0.2970
 4164TIP3   OH233982   5.034   6.391  11.227 -0.6034 -0.8258  0.0410
 4164TIP3    H133983   4.968   6.343  11.178 -3.3249  1.2513  1.3694
 4164TIP3    H233984   5.074   6.326  11.285 -0.4175 -2.4101 -1.8025
 4165TIP3   OH233985   2.594   5.419  13.924 -0.0056  0.3135  0.4192
 4165TIP3    H133986   2.534   5.416  13.999 -1.4463 -0.6187 -0.7220
 4165TIP3    H233987   2.606   5.328  13.899  1.6949  0.5039  0.4277
 4166TIP3   OH233988   0.760   6.360   0.899  0.4108 -0.2933 -0.2691
 4166TIP3    H133989   0.849   6.332   0.923 -0.1681 -2.1227 -0.0433
 4166TIP3    H233990   0.718   6.279   0.869 -0.7587  0.8119 -1.7186
 4167TIP3   OH233991   3.712   3.716  13.336  0.3633  0.1841  0.0044
 4167TIP3    H133992   3.747   3.702  13.424 -0.9193  4.5531  1.4952
 4167TIP3    H233993   3.789   3.735  13.282  0.9653  0.3979  0.9230
 4168TIP3   OH233994   1.511   2.496   0.728 -0.9061 -0.3706 -1.2764
 4168TIP3    H133995   1.475   2.567   0.675 -3.6939 -1.2179 -0.6957
 4168TIP3    H233996   1.467   2.505   0.813  1.5712 -0.5352  0.1167
 4169TIP3   OH233997   1.750   5.581   0.815 -0.0282 -0.2458 -0.1683
 4169TIP3    H133998   1.755   5.673   0.841  0.1229 -0.1293 -0.5982
 4169TIP3    H233999   1.752   5.584   0.719  0.9924 -0.7531 -0.1668
 4170TIP3   OH234000   4.901   1.241  11.480 -0.0954  0.8188 -0.0872
 4170TIP3    H134001   4.809   1.242  11.453 -0.3711  1.6469  0.7982
 4170TIP3    H234002   4.950   1.217  11.401 -0.9380  2.0021 -0.9990
 4171TIP3   OH234003   1.930   4.739   1.760 -0.4993 -0.2307 -0.2074
 4171TIP3    H134004   1.861   4.803   1.775  1.5089  1.7129  1.3499
 4171TIP3    H234005   1.944   4.699   1.846  0.6142 -0.2783 -0.4031
 4172TIP3   OH234006   3.461   1.470  12.353 -0.1464 -1.2156  0.1499
 4172TIP3    H134007   3.503   1.438  12.433  3.4720 -1.7614 -1.7790
 4172TIP3    H234008   3.434   1.390  12.308  0.3326 -1.0561 -0.4177
 4173TIP3   OH234009   3.904   0.426  15.394  0.1990  0.1556 -0.1089
 4173TIP3    H134010   3.994   0.445  15.369  0.3892  2.2312  1.7987
 4173TIP3    H234011   3.865   0.512  15.410 -0.9109 -0.7721  2.9090
 4174TIP3   OH234012   3.631   5.892  15.461 -0.3438 -0.3024 -0.4321
 4174TIP3    H134013   3.660   5.933  15.380  0.5994 -0.5551 -0.2409
 4174TIP3    H234014   3.619   5.800  15.438 -1.2750 -0.1494 -0.5738
 4175TIP3   OH234015   2.433   2.725   3.771  0.0374 -0.2894  0.5710
 4175TIP3    H134016   2.380   2.676   3.707  1.0460 -0.5869 -0.0669
 4175TIP3    H234017   2.464   2.801   3.723 -0.4759  0.3138  1.1870
 4176TIP3   OH234018   0.706   0.778  14.720 -0.0169 -0.3197  0.7045
 4176TIP3    H134019   0.766   0.834  14.770  0.6396 -2.0818  2.0046
 4176TIP3    H234020   0.676   0.834  14.649  3.6056  0.5327 -0.3990
 4177TIP3   OH234021   2.485   6.555  11.069 -0.2729 -0.2403 -0.5048
 4177TIP3    H134022   2.411   6.519  11.117 -0.6409  0.5620 -0.4571
 4177TIP3    H234023   2.533   6.606  11.134  0.2890 -0.7067 -0.5495
 4178TIP3   OH234024   1.700   3.898  14.583  0.0557 -0.2019 -0.2887
 4178TIP3    H134025   1.769   3.833  14.569 -0.6828 -0.8225 -1.1374
 4178TIP3    H234026   1.721   3.938  14.667  0.2860 -1.8535  0.4711
 4179TIP3   OH234027   3.826   1.737   4.834  0.0333 -0.1832 -0.0243
 4179TIP3    H134028   3.907   1.781   4.807 -0.9497  1.0547 -1.1179
 4179TIP3    H234029   3.823   1.747   4.929 -0.1028  2.1347 -0.2200
 4180TIP3   OH234030   0.930   4.634  12.678  0.3038 -0.1433 -0.0826
 4180TIP3    H134031   0.953   4.633  12.770  2.9326  2.1828 -0.5981
 4180TIP3    H234032   0.835   4.621  12.677  0.1591  0.0181  2.9185
 4181TIP3   OH234033   4.568   0.897  12.562 -0.2713 -0.0061  0.1282
 4181TIP3    H134034   4.527   0.838  12.499  0.5186  0.8872 -1.2539
 4181TIP3    H234035   4.652   0.919  12.523  0.3762  0.3302  1.6520
 4182TIP3   OH234036   1.751   6.787  13.170  0.8318 -0.3627  0.2646
 4182TIP3    H134037   1.726   6.746  13.087  0.8257  0.0294  0.0712
 4182TIP3    H234038   1.672   6.834  13.198  1.4388  1.1989 -0.5388
 4183TIP3   OH234039   4.977   2.783   6.539  0.2642 -0.4206  0.7663
 4183TIP3    H134040   5.055   2.838   6.529  1.9841 -2.8257  0.0462
 4183TIP3    H234041   5.005   2.710   6.594 -1.2458 -1.7646 -0.1484
 4184TIP3   OH234042   4.074   4.385   3.684  0.5917  0.4029 -0.0142
 4184TIP3    H134043   4.106   4.397   3.595  0.7388  2.0589  0.2157
 4184TIP3    H234044   4.106   4.462   3.731  0.4121 -0.3772  1.4415
 4185TIP3   OH234045   1.962   5.533   4.894  0.0059  0.4438 -0.1960
 4185TIP3    H134046   2.038   5.542   4.836  0.8238  0.9122  0.9079
 4185TIP3    H234047   1.948   5.438   4.899  1.1351  0.2852  0.3267
 4186TIP3   OH234048   3.412   2.033  15.869  0.0998  0.0244 -0.0214
 4186TIP3    H134049   3.389   2.101  15.932 -0.2663 -0.6355  0.5814
 4186TIP3    H234050   3.438   1.959  15.924  0.2555 -0.3923 -0.6589
 4187TIP3   OH234051   1.589   4.808   2.394  0.1558  0.0569  0.0480
 4187TIP3    H134052   1.681   4.785   2.379 -0.6131 -1.9867 -2.1202
 4187TIP3    H234053   1.576   4.890   2.346  0.6520 -0.0911 -0.3465
 4188TIP3   OH234054   3.222   3.265   5.731  0.1473  0.1111 -0.0245
 4188TIP3    H134055   3.150   3.207   5.757  0.5177  0.0355  0.8811
 4188TIP3    H234056   3.294   3.205   5.711  0.4914  0.2380  0.7868
 4189TIP3   OH234057   3.685   5.126   4.273 -0.1482 -0.2601 -0.4435
 4189TIP3    H134058   3.775   5.134   4.304 -0.8549 -0.6329  2.0122
 4189TIP3    H234059   3.669   5.205   4.222  1.4097  0.0437 -0.5011
 4190TIP3   OH234060   0.599   4.447  15.279 -0.1424  0.1759 -0.4689
 4190TIP3    H134061   0.680   4.494  15.297  0.2546 -0.9339  0.8912
 4190TIP3    H234062   0.529   4.505  15.309  0.4420 -1.1752  4.3541
 4191TIP3   OH234063   2.916   1.597   3.068  0.1930 -0.1535  0.0479
 4191TIP3    H134064   2.922   1.690   3.088 -1.1044 -0.0956  0.2410
 4191TIP3    H234065   2.959   1.588   2.983  0.9133  0.5037  0.3311
 4192TIP3   OH234066   6.073   4.843   3.180 -0.4852  0.2622 -0.0370
 4192TIP3    H134067   6.034   4.813   3.098 -2.1066 -0.9054  1.0994
 4192TIP3    H234068   6.001   4.840   3.243  0.7438  1.0265  1.4505
 4193TIP3   OH234069   4.317   5.558   6.325 -0.5266 -0.1998  0.2178
 4193TIP3    H134070   4.339   5.551   6.232 -0.1096 -0.4267  0.3279
 4193TIP3    H234071   4.267   5.639   6.332 -0.6172 -0.2159 -0.2167
 4194TIP3   OH234072   5.579   1.352   1.535  0.0571  0.1091 -0.0588
 4194TIP3    H134073   5.543   1.411   1.469  0.4195 -0.9639 -1.2559
 4194TIP3    H234074   5.515   1.354   1.606 -0.1412  1.6049 -0.2473
 4195TIP3   OH234075   1.110   0.140  14.584 -0.5208 -0.0703 -0.0973
 4195TIP3    H134076   1.077   0.162  14.497  1.6443  1.2093 -0.6879
 4195TIP3    H234077   1.178   0.075  14.568  1.1000  1.4337  0.3854
 4196TIP3   OH234078   6.606   4.903  17.146  0.1168 -0.6575  0.2875
 4196TIP3    H134079   6.532   4.898  17.086  0.2485  0.0221  0.0602
 4196TIP3    H234080   6.637   4.812  17.154  0.5529 -0.6694 -1.2435
 4197TIP3   OH234081   1.939   5.813   0.421  0.2456 -0.2131 -0.4257
 4197TIP3    H134082   1.861   5.868   0.427 -0.3739 -1.0118 -1.0176
 4197TIP3    H234083   1.980   5.821   0.507  0.0603  1.0023 -0.4349
 4198TIP3   OH234084   6.763   2.637  13.933 -0.2105 -0.0087  0.3153
 4198TIP3    H134085   6.806   2.617  14.016  0.1361 -1.4401 -0.1794
 4198TIP3    H234086   6.685   2.581  13.932 -0.2056 -0.0144 -0.3299
 4199TIP3   OH234087   4.198   4.748  14.279 -0.0045 -0.1115 -0.0719
 4199TIP3    H134088   4.166   4.785  14.362 -0.9318 -0.5899 -0.1998
 4199TIP3    H234089   4.262   4.812  14.248  0.1278  0.2308  0.8575
 4200TIP3   OH234090   0.434   5.428   3.882  0.1106 -0.4373  0.1030
 4200TIP3    H134091   0.439   5.508   3.934 -3.7902 -1.2867  2.2276
 4200TIP3    H234092   0.484   5.364   3.933 -1.4186 -0.5936  1.5086
 4201TIP3   OH234093   3.689   1.352   2.389  0.1682 -0.4760 -0.1203
 4201TIP3    H134094   3.729   1.431   2.423  0.7572  0.1813 -2.2264
 4201TIP3    H234095   3.747   1.281   2.418  1.6690  0.2454 -1.2504
 4202TIP3   OH234096   6.560   2.966  13.311 -0.1468  0.0981 -0.2377
 4202TIP3    H134097   6.569   2.929  13.224  0.9677 -0.4337  0.0772
 4202TIP3    H234098   6.645   2.950  13.352 -0.5675  0.5674  0.8564
 4203TIP3   OH234099   1.523   4.796  12.669 -0.1579 -0.5212  0.2005
 4203TIP3    H134100   1.509   4.811  12.576 -1.4837  1.9425  0.7223
 4203TIP3    H234101   1.442   4.755  12.700  0.1041 -0.9230  0.3651
 4204TIP3   OH234102   4.497   6.453  14.951  0.7301  0.7436 -0.0745
 4204TIP3    H134103   4.405   6.480  14.950  0.8668  1.1998 -0.7363
 4204TIP3    H234104   4.521   6.445  14.859  1.6003  1.4900  0.0672
 4205TIP3   OH234105   2.371   5.771  11.813  0.0309 -1.5303  0.0207
 4205TIP3    H134106   2.457   5.735  11.793  0.4636 -0.5010 -0.0186
 4205TIP3    H234107   2.387   5.836  11.882 -0.2331  0.7868 -1.9550
 4206TIP3   OH234108   2.420   0.369   1.354 -0.3580 -0.0407 -0.2309
 4206TIP3    H134109   2.327   0.390   1.355 -0.2082  0.6427  1.0012
 4206TIP3    H234110   2.423   0.274   1.338 -1.3007 -0.2301  0.6329
 4207TIP3   OH234111   1.373   2.830  15.355  0.3884 -0.0598 -0.2204
 4207TIP3    H134112   1.412   2.889  15.419  0.3647 -1.2483  0.9436
 4207TIP3    H234113   1.279   2.847  15.361  0.3761 -0.2353  0.1608
 4208TIP3   OH234114   4.696   0.276  12.793 -0.1829 -0.0764  0.0139
 4208TIP3    H134115   4.776   0.278  12.846 -1.0081  0.7246  1.3092
 4208TIP3    H234116   4.701   0.355  12.739  0.3531 -0.5440 -0.6263
 4209TIP3   OH234117   0.033   3.165   2.016  0.2851  0.1215  0.5089
 4209TIP3    H134118   0.122   3.192   2.040  0.6159 -0.5047  0.0492
 4209TIP3    H234119   0.023   3.195   1.925  0.3333 -0.5021  0.2902
 4210TIP3   OH234120   6.553   5.411  11.720  0.0885 -0.1061  0.1547
 4210TIP3    H134121   6.590   5.327  11.745  0.3424 -0.6593 -1.9428
 4210TIP3    H234122   6.628   5.470  11.717 -0.1180  0.3190  1.8451
 4211TIP3   OH234123   3.242   3.112   4.706  0.2623  1.4504 -0.0422
 4211TIP3    H134124   3.332   3.102   4.677  1.0456  1.1827  2.2794
 4211TIP3    H234125   3.227   3.207   4.706  1.0682  1.5946  0.9431
 4212TIP3   OH234126   5.586   5.089  14.480 -0.0549 -0.2610 -0.3728
 4212TIP3    H134127   5.521   5.048  14.537  0.1236  1.3198  1.0270
 4212TIP3    H234128   5.600   5.176  14.517  2.2848 -0.2533 -1.1108
 4213TIP3   OH234129   2.652   0.719  10.981  0.0602  0.0833  0.1211
 4213TIP3    H134130   2.582   0.678  10.930  0.5512  0.8891 -1.2389
 4213TIP3    H234131   2.712   0.647  11.000  0.8507  0.0821 -2.1435
 4214TIP3   OH234132   5.315   4.501   2.953 -0.2418 -0.5543  0.4071
 4214TIP3    H134133   5.351   4.537   2.872 -2.1838 -1.2318 -0.8295
 4214TIP3    H234134   5.280   4.577   2.999 -1.6170 -0.4236 -0.7587
 4215TIP3   OH234135   1.882   3.097  15.428  0.5225 -0.3790 -0.2662
 4215TIP3    H134136   1.905   3.024  15.371  0.0944 -0.6581 -0.0905
 4215TIP3    H234137   1.965   3.127  15.465  0.7571 -0.4509 -0.7259
 4216TIP3   OH234138   1.865   3.360   3.805  0.5889 -0.2908 -0.0068
 4216TIP3    H134139   1.909   3.277   3.822 -0.3330 -0.7983 -0.0578
 4216TIP3    H234140   1.911   3.397   3.730 -0.2471 -1.6978 -1.2578
 4217TIP3   OH234141   4.999   0.392  13.838  0.1734  0.5776 -0.4035
 4217TIP3    H134142   5.066   0.429  13.780  0.8787  1.0403  0.6711
 4217TIP3    H234143   5.034   0.406  13.926  0.2091 -2.1747  0.0885
 4218TIP3   OH234144   4.427   6.225  15.123  0.1649 -0.1614 -0.3235
 4218TIP3    H134145   4.484   6.162  15.079  0.9285  0.8014 -0.7565
 4218TIP3    H234146   4.453   6.310  15.087  1.3808  0.7860  2.4919
 4219TIP3   OH234147   3.572   0.424  15.543 -0.1375  0.6917 -0.0175
 4219TIP3    H134148   3.502   0.438  15.607  0.1841 -0.1940  0.5607
 4219TIP3    H234149   3.646   0.395  15.597  0.1586 -0.0079 -0.7866
 4220TIP3   OH234150   1.208   0.960   1.732 -0.1731  0.2555  0.1729
 4220TIP3    H134151   1.138   1.025   1.732  1.0856  1.7243 -2.1829
 4220TIP3    H234152   1.288   1.011   1.740  0.7877 -1.1534 -0.1227
 4221TIP3   OH234153   5.124   0.913  11.083 -0.4855  0.0260  0.0394
 4221TIP3    H134154   5.210   0.871  11.079 -1.0305 -1.1463 -0.0132
 4221TIP3    H234155   5.074   0.870  11.013 -0.8304  1.3649 -0.5597
 4222TIP3   OH234156   1.907   2.122  16.851 -0.0569 -0.2113  0.0294
 4222TIP3    H134157   1.889   2.185  16.781  0.8172  0.2791  0.2330
 4222TIP3    H234158   1.988   2.079  16.823  1.0396  0.8988  1.3292
 4223TIP3   OH234159   3.460   5.626   6.158 -0.3844 -0.7700  0.4481
 4223TIP3    H134160   3.538   5.614   6.211 -0.3369 -0.7817  0.3760
 4223TIP3    H234161   3.415   5.542   6.161 -1.1302 -0.3559  1.6535
 4224TIP3   OH234162   4.795   0.928  11.390  0.0113 -0.7020 -0.8248
 4224TIP3    H134163   4.717   0.970  11.354  0.4831  0.6852 -0.2933
 4224TIP3    H234164   4.761   0.852  11.438 -1.0656  0.1345 -0.2126
 4225TIP3   OH234165   3.489   4.975   1.723 -0.3463  0.1525 -0.2755
 4225TIP3    H134166   3.396   4.956   1.735 -0.1368 -1.0147 -0.4343
 4225TIP3    H234167   3.534   4.913   1.780  0.3367  0.9731  0.1011
 4226TIP3   OH234168   4.042   6.474   6.124 -0.1108 -0.2051 -0.0199
 4226TIP3    H134169   4.076   6.388   6.100  2.1890 -0.0011  2.1626
 4226TIP3    H234170   3.996   6.460   6.206 -1.7536  0.3007 -0.8129
 4227TIP3   OH234171   2.686   1.332   4.565  0.4493 -0.5843 -0.0671
 4227TIP3    H134172   2.705   1.415   4.609 -0.2608  0.2769 -1.3148
 4227TIP3    H234173   2.600   1.346   4.526  0.7259 -1.5833 -1.0676
 4228TIP3   OH234174   5.154   0.129  11.304  0.1701 -0.7049  0.0893
 4228TIP3    H134175   5.248   0.121  11.291  0.6782 -0.6877  2.9962
 4228TIP3    H234176   5.134   0.219  11.280  1.1215 -0.3806  0.4772
 4229TIP3   OH234177   2.878   0.072   5.014 -0.5545 -0.2839  0.1131
 4229TIP3    H134178   2.831   0.093   5.095 -0.7484  0.9087 -0.2970
 4229TIP3    H234179   2.815   0.089   4.944 -0.6897 -2.1663 -0.2743
 4230TIP3   OH234180   4.350   3.535  13.565 -0.0744 -0.2348  0.4863
 4230TIP3    H134181   4.412   3.493  13.506 -1.1398 -1.2060  0.0284
 4230TIP3    H234182   4.400   3.607  13.604  1.8354 -1.9229  1.3534
 4231TIP3   OH234183   1.070   6.329  15.283 -1.3729  0.4623  0.2193
 4231TIP3    H134184   1.068   6.314  15.188 -0.9171  1.7815 -0.0121
 4231TIP3    H234185   1.163   6.323  15.306 -1.6410 -2.0076  0.9894
 4232TIP3   OH234186   0.802   0.744   1.294 -0.4407  0.6603 -0.3438
 4232TIP3    H134187   0.709   0.723   1.295 -0.1886 -0.5698 -1.0626
 4232TIP3    H234188   0.818   0.778   1.206 -0.1049  0.3717 -0.3953
 4233TIP3   OH234189   3.739   3.260   1.121 -0.3366 -0.2862 -0.5350
 4233TIP3    H134190   3.697   3.185   1.079  1.6233 -2.1365  0.5978
 4233TIP3    H234191   3.786   3.304   1.050 -0.9428 -0.5348 -1.0988
 4234TIP3   OH234192   3.410   5.135  11.146  0.3700  0.1766 -0.2145
 4234TIP3    H134193   3.463   5.058  11.125  0.5943 -0.0196  0.9994
 4234TIP3    H234194   3.463   5.209  11.119 -0.5768 -0.0511 -3.1096
 4235TIP3   OH234195   5.571   5.100  11.473 -0.1990  0.1035 -0.1053
 4235TIP3    H134196   5.567   5.125  11.381 -0.3951  2.3365  0.4487
 4235TIP3    H234197   5.565   5.183  11.521  2.4006 -0.7065  1.8867
 4236TIP3   OH234198   4.930   4.619   1.812 -0.3716 -0.1802  0.2129
 4236TIP3    H134199   4.990   4.574   1.872 -0.0976 -1.7485 -1.1770
 4236TIP3    H234200   4.902   4.696   1.861 -0.0470 -1.3005  2.3116
 4237TIP3   OH234201   5.986   3.949   1.060 -0.0062 -0.4832 -0.2890
 4237TIP3    H134202   6.005   3.862   1.097  1.6700  0.6231  1.6283
 4237TIP3    H234203   5.971   4.005   1.136 -2.7372  0.6317 -1.5205
 4238TIP3   OH234204   2.332   3.032  13.270  0.0828 -0.0476 -0.1492
 4238TIP3    H134205   2.333   3.119  13.310 -1.8195  0.0903 -0.3023
 4238TIP3    H234206   2.374   3.045  13.185 -1.4838  1.1276 -0.8207
 4239TIP3   OH234207   2.913   2.822  12.839 -0.9615 -0.4902 -0.7670
 4239TIP3    H134208   2.832   2.787  12.799 -1.4615 -0.8767  0.5405
 4239TIP3    H234209   2.892   2.832  12.931  0.0868  0.6748 -0.6288
 4240TIP3   OH234210   5.588   2.235   3.625 -0.1378  0.6185 -0.3857
 4240TIP3    H134211   5.587   2.327   3.650 -1.2636  0.5029  0.0586
 4240TIP3    H234212   5.580   2.236   3.530  0.8316  0.9846 -0.4758
 4241TIP3   OH234213   5.742   4.935  13.577 -0.2893  0.5894 -0.0502
 4241TIP3    H134214   5.679   4.907  13.510  1.6872  1.5910 -2.4543
 4241TIP3    H234215   5.700   5.011  13.618 -0.9626  0.8164 -1.1126
 4242TIP3   OH234216   5.409   5.407   1.439  0.6716 -0.0441 -0.2625
 4242TIP3    H134217   5.499   5.374   1.430  1.0071  1.1194 -1.4970
 4242TIP3    H234218   5.403   5.478   1.375 -0.7016  0.8388  0.7856
 4243TIP3   OH234219   4.493   6.337  11.892  0.4729 -0.7042 -0.8041
 4243TIP3    H134220   4.425   6.322  11.827  0.2705 -1.1941 -0.4765
 4243TIP3    H234221   4.447   6.376  11.966  0.7158 -0.0735 -0.9714
 4244TIP3   OH234222   4.417   3.581   3.504  0.1124  0.1274  0.5298
 4244TIP3    H134223   4.342   3.638   3.518  0.3627  1.0630 -1.5697
 4244TIP3    H234224   4.386   3.514   3.444  1.1113  0.9848 -1.0114
 4245TIP3   OH234225   6.637   5.577  14.258 -0.8164  0.2280  0.2382
 4245TIP3    H134226   6.687   5.599  14.337  1.2973 -1.2404 -0.5980
 4245TIP3    H234227   6.604   5.488  14.275  1.8778 -1.2237 -1.4227
 4246TIP3   OH234228   0.185   4.208   0.457  0.2376  0.1656 -0.4127
 4246TIP3    H134229   0.212   4.299   0.459 -1.3493  0.6620 -0.0084
 4246TIP3    H234230   0.167   4.190   0.364 -0.7557  0.6942 -0.3338
 4247TIP3   OH234231   1.932   1.517  12.787 -0.2835 -0.0915 -0.1868
 4247TIP3    H134232   1.987   1.595  12.779  0.3337 -0.2847  1.7240
 4247TIP3    H234233   1.848   1.550  12.820  0.2165 -0.2752  1.3406
 4248TIP3   OH234234   0.185   4.929   3.446  0.3892 -0.6497  0.3218
 4248TIP3    H134235   0.124   5.002   3.453  0.6975 -0.4985  1.7407
 4248TIP3    H234236   0.135   4.852   3.472  0.5919 -0.6307  0.7872
 4249TIP3   OH234237   6.746   4.079  12.775  0.1652  0.0156  0.1068
 4249TIP3    H134238   6.658   4.077  12.811 -0.3798 -2.3355 -1.1129
 4249TIP3    H234239   6.745   4.013  12.705  2.7816  0.1685 -0.1978
 4250TIP3   OH234240   0.941   0.538   4.387  0.5187  0.0504  0.0790
 4250TIP3    H134241   0.931   0.443   4.393 -0.8322  0.2058  0.6947
 4250TIP3    H234242   0.927   0.557   4.294 -0.6738 -0.2292  0.1811
 4251TIP3   OH234243   0.698   4.182   1.550 -0.3554  0.3577 -0.3467
 4251TIP3    H134244   0.636   4.118   1.516  0.7518 -1.1595  0.3356
 4251TIP3    H234245   0.692   4.173   1.645 -0.6941  1.8003 -0.2218
 4252TIP3   OH234246   1.795   0.907   0.434 -0.7077  0.0543  0.3019
 4252TIP3    H134247   1.711   0.911   0.480 -0.6696 -0.0817  0.3847
 4252TIP3    H234248   1.860   0.903   0.504 -0.5335  1.6917  0.2646
 4253TIP3   OH234249   3.824   0.092  13.610 -0.5007 -0.1255  0.1498
 4253TIP3    H134250   3.796   0.088  13.519 -0.1216 -1.3780  0.0667
 4253TIP3    H234251   3.881   0.016  13.621  0.6475  0.8193  1.0471
 4254TIP3   OH234252   4.326   4.229   5.753  0.7576  0.9473 -0.2390
 4254TIP3    H134253   4.371   4.253   5.672 -0.0318  0.3420 -0.8874
 4254TIP3    H234254   4.346   4.136   5.765 -0.3541  0.6413 -0.5960
 4255TIP3   OH234255   2.607   0.408   1.856  0.0773 -0.1446  0.0735
 4255TIP3    H134256   2.589   0.376   1.945  2.4925  1.7506  1.3643
 4255TIP3    H234257   2.535   0.469   1.838  1.0343  1.7251  2.0481
 4256TIP3   OH234258   0.312   3.743   4.938  0.6300 -0.2922  0.3084
 4256TIP3    H134259   0.349   3.687   4.870 -0.0530  0.1501 -0.4526
 4256TIP3    H234260   0.219   3.751   4.914  0.1580 -0.8914  1.8290
 4257TIP3   OH234261   3.763   3.019  12.569 -0.1806 -0.1926  0.2598
 4257TIP3    H134262   3.788   2.949  12.631 -1.8275 -0.0338  1.1531
 4257TIP3    H234263   3.789   3.100  12.613 -0.5715 -0.1234  0.3668
 4258TIP3   OH234264   2.664   4.398   2.223 -0.1518  0.2869 -0.6021
 4258TIP3    H134265   2.715   4.327   2.262  0.7850  1.9539  1.4439
 4258TIP3    H234266   2.574   4.383   2.253  0.0311 -0.0593 -0.2251
 4259TIP3   OH234267   4.932   3.368   0.275  0.1181 -0.1390  0.5790
 4259TIP3    H134268   4.917   3.411   0.359  0.3205 -0.4855  0.7924
 4259TIP3    H234269   4.938   3.275   0.295  2.4209 -0.0729  0.5275
 4260TIP3   OH234270   5.298   4.472  11.467 -0.3073 -0.1867 -0.3687
 4260TIP3    H134271   5.366   4.525  11.508 -0.0676 -0.0173 -0.9781
 4260TIP3    H234272   5.283   4.401  11.529  0.4828 -0.2727 -0.2597
 4261TIP3   OH234273   6.334   3.958  15.514  0.1119  0.2845 -0.3581
 4261TIP3    H134274   6.296   4.046  15.506  0.8318  0.5921 -0.5063
 4261TIP3    H234275   6.315   3.932  15.604 -1.0609  0.1343 -0.6389
 4262TIP3   OH234276   4.262   0.725  14.205  0.0184 -0.3204 -0.1266
 4262TIP3    H134277   4.233   0.648  14.254  3.2639 -1.0399  0.9622
 4262TIP3    H234278   4.301   0.782  14.272  0.6068  0.7335 -1.3241
 4263TIP3   OH234279   4.747   3.912   5.320  0.3997  0.5430 -0.1265
 4263TIP3    H134280   4.737   3.898   5.414  2.0293  1.1885  0.1818
 4263TIP3    H234281   4.765   3.825   5.284  2.9936  0.6332  0.6815
 4264TIP3   OH234282   3.193   1.107   3.110 -0.3790  0.1580 -0.2012
 4264TIP3    H134283   3.268   1.091   3.052 -0.6900 -3.1441  0.0966
 4264TIP3    H234284   3.133   1.160   3.057  1.1703  0.9251 -1.2715
 4265TIP3   OH234285   5.850   5.320  11.189  0.5290 -0.2218  0.0023
 4265TIP3    H134286   5.827   5.332  11.097  1.0010  1.4885  0.0726
 4265TIP3    H234287   5.926   5.262  11.188  0.1779 -0.6760 -0.6426
 4266TIP3   OH234288   5.190   5.666   5.453  0.3358  0.0213  0.2223
 4266TIP3    H134289   5.251   5.733   5.422  0.3748  0.3099  0.9145
 4266TIP3    H234290   5.237   5.583   5.442  0.3172  0.1089 -0.5604
 4267TIP3   OH234291   0.281   5.080   0.067  0.6221  0.1032  0.3127
 4267TIP3    H134292   0.321   4.997   0.095  0.0037  0.0519  1.0792
 4267TIP3    H234293   0.327   5.147   0.118  1.3297  0.2884 -0.5222
 4268TIP3   OH234294   4.299   5.027   5.695 -0.2736 -0.1402  0.0772
 4268TIP3    H134295   4.340   4.966   5.634 -0.9510  0.1903 -0.7453
 4268TIP3    H234296   4.207   5.029   5.668 -0.4533  0.5156  0.7014
 4269TIP3   OH234297   0.853   4.568  13.606  0.3316  0.2248 -0.7035
 4269TIP3    H134298   0.910   4.602  13.537  1.6348 -3.2796 -1.5499
 4269TIP3    H234299   0.784   4.521  13.558 -0.2020 -0.1177  0.3830
 4270TIP3   OH234300   2.573   6.530  11.818 -0.6842 -0.0279 -0.4952
 4270TIP3    H134301   2.514   6.574  11.879 -1.7798  0.3171 -1.7732
 4270TIP3    H234302   2.589   6.444  11.857 -2.3716 -0.2823 -0.3248
 4271TIP3   OH234303   2.672   1.404   1.823  0.5995 -0.2988 -0.1205
 4271TIP3    H134304   2.680   1.467   1.752  0.1436  1.6759  1.4795
 4271TIP3    H234305   2.596   1.351   1.799  0.5440  0.2284 -1.1693
 4272TIP3   OH234306   4.843   0.186  15.010  0.0965 -0.1102  0.5836
 4272TIP3    H134307   4.803   0.112  15.055 -0.4853 -1.0624 -1.3971
 4272TIP3    H234308   4.777   0.215  14.947  1.4668  0.0689 -0.8269
 4273TIP3   OH234309   0.568   4.570  14.098 -0.0453  0.0655 -0.0710
 4273TIP3    H134310   0.544   4.531  14.014 -3.3970  1.0925  0.2892
 4273TIP3    H234311   0.528   4.657  14.097  0.3685  0.3533  2.3616
 4274TIP3   OH234312   5.701   3.989   5.747  0.1436  0.2026  0.1405
 4274TIP3    H134313   5.762   3.918   5.767 -0.2191 -0.5247 -1.1763
 4274TIP3    H234314   5.665   4.014   5.832  0.8798 -0.6416  0.7221
 4275TIP3   OH234315   6.479   2.028   2.144  0.0670  0.1896  0.1846
 4275TIP3    H134316   6.468   2.122   2.155  1.5064  0.3698  0.3336
 4275TIP3    H234317   6.510   1.998   2.229 -2.2613 -0.7787  0.7576
 4276TIP3   OH234318   2.141   3.032   4.899 -0.2522 -0.5866 -0.3237
 4276TIP3    H134319   2.076   3.076   4.954  0.1392 -0.4115  0.0042
 4276TIP3    H234320   2.156   2.948   4.943  0.0185 -0.4709 -0.1957
 4277TIP3   OH234321   3.885   4.306   5.500  0.7018  0.8313  0.1233
 4277TIP3    H134322   3.840   4.286   5.582 -0.5977  1.0745 -0.4980
 4277TIP3    H234323   3.974   4.329   5.526  0.5857 -0.0561  1.3625
 4278TIP3   OH234324   0.104   0.561  13.543  0.2550  0.6900  0.6587
 4278TIP3    H134325   0.169   0.499  13.576 -1.1944 -0.6020  1.2026
 4278TIP3    H234326   0.030   0.551  13.603 -1.5743 -0.0370 -1.6028
 4279TIP3   OH234327   6.282   2.310  14.354  0.4732  0.1890 -0.3719
 4279TIP3    H134328   6.193   2.276  14.342  0.3979  0.2087  0.1069
 4279TIP3    H234329   6.337   2.256  14.298  0.5801 -1.6907  1.4165
 4280TIP3   OH234330   3.457   4.650  16.926  0.1938 -0.0876  0.1373
 4280TIP3    H134331   3.531   4.708  16.908 -0.1730  0.6971  1.0745
 4280TIP3    H234332   3.482   4.567  16.887  1.5359  0.1897  0.3551
 4281TIP3   OH234333   1.047   1.656  12.323 -0.2333  0.1545  0.3237
 4281TIP3    H134334   1.076   1.700  12.243  0.9054  0.8441  1.0978
 4281TIP3    H234335   1.017   1.727  12.380 -2.3260 -0.4279  0.0396
 4282TIP3   OH234336   5.774   1.597  14.338  0.0629 -0.2969  0.0161
 4282TIP3    H134337   5.812   1.515  14.308  1.5484  0.2658  0.2947
 4282TIP3    H234338   5.838   1.664  14.314  0.0529  0.4895  1.9811
 4283TIP3   OH234339   5.900   0.526  16.338  0.2160  0.1653  0.3727
 4283TIP3    H134340   5.932   0.456  16.395  1.1720  0.4836  0.2440
 4283TIP3    H234341   5.979   0.566  16.303 -0.3015  1.5298  0.7018
 4284TIP3   OH234342   1.986   3.948   0.042  0.0781 -0.3087  0.9001
 4284TIP3    H134343   2.031   3.895   0.108  0.1348 -2.2743 -0.5999
 4284TIP3    H234344   1.894   3.920   0.049 -0.0698  0.1227  0.7225
 4285TIP3   OH234345   5.053   6.041  14.443  0.3529 -0.2146 -0.2161
 4285TIP3    H134346   5.111   6.106  14.405 -1.3524  1.1825 -0.5520
 4285TIP3    H234347   5.056   5.967  14.382 -0.1015  0.8241 -1.5416
 4286TIP3   OH234348   6.626   2.661  11.687 -0.4639 -0.3479 -0.1310
 4286TIP3    H134349   6.563   2.614  11.742  0.7808 -0.3059  1.4006
 4286TIP3    H234350   6.609   2.753  11.705  0.1423 -0.3397  0.4594
 4287TIP3   OH234351   0.003   2.930  13.408 -0.0913  0.5854  0.0225
 4287TIP3    H134352   0.014   2.839  13.379 -2.2221 -0.0655  1.0290
 4287TIP3    H234353   0.068   2.941  13.477 -0.1337 -0.3619  0.2319
 4288TIP3   OH234354   1.759   4.348  13.696  0.4880 -0.4187 -0.6350
 4288TIP3    H134355   1.782   4.265  13.737 -0.8153 -1.0806 -1.1743
 4288TIP3    H234356   1.758   4.329  13.602 -1.1682 -0.1963 -0.6962
 4289TIP3   OH234357   6.026   0.821   5.807 -0.1738  0.0943  0.3247
 4289TIP3    H134358   6.027   0.738   5.854 -1.2990 -0.5436 -0.7365
 4289TIP3    H234359   6.119   0.838   5.788  0.0282 -1.2626 -0.0263
 4290TIP3   OH234360   0.893   5.410   4.273 -0.1675  0.1193 -0.8134
 4290TIP3    H134361   0.812   5.367   4.301  0.9687 -2.0764 -0.6533
 4290TIP3    H234362   0.945   5.418   4.354 -0.1075  1.2900 -0.9513
 4291TIP3   OH234363   6.837   0.211  17.070  0.4374  0.1021  0.2970
 4291TIP3    H134364   6.856   0.143  17.134  1.3839  0.4646  0.4275
 4291TIP3    H234365   6.772   0.172  17.012  0.2551 -0.5636  0.9339
 4292TIP3   OH234366   6.107   4.834   4.373  0.0307  0.0358 -0.0745
 4292TIP3    H134367   6.027   4.813   4.326 -0.8967  1.5255  0.7475
 4292TIP3    H234368   6.078   4.857   4.461  1.6033 -1.5021  0.9004
 4293TIP3   OH234369   0.884   3.914  12.550 -0.5459 -0.4930  0.0551
 4293TIP3    H134370   0.860   3.826  12.579  2.2022 -1.3764 -0.0716
 4293TIP3    H234371   0.872   3.969  12.628 -0.4232 -1.3754  0.7087
 4294TIP3   OH234372   1.424   5.933  12.789  0.3080  0.5909 -0.0362
 4294TIP3    H134373   1.414   5.972  12.876 -0.7439 -0.0056  0.1304
 4294TIP3    H234374   1.433   5.839  12.806 -1.3438  0.2961 -0.6226
 4295TIP3   OH234375   6.039   1.199  15.486  0.2576  0.0041  0.4381
 4295TIP3    H134376   6.069   1.289  15.498 -1.8759  1.0062 -1.1632
 4295TIP3    H234377   5.944   1.205  15.480 -0.2058 -2.6763  2.6463
 4296TIP3   OH234378   4.355   3.609   5.747 -0.3709 -0.0641 -0.6080
 4296TIP3    H134379   4.272   3.573   5.779  0.2736 -1.2682 -0.2602
 4296TIP3    H234380   4.410   3.616   5.824 -0.1507  0.7898 -0.8324
 4297TIP3   OH234381   5.766   0.637   4.107 -0.4114  0.0183  0.1085
 4297TIP3    H134382   5.861   0.633   4.113 -0.4045 -2.2224 -0.5352
 4297TIP3    H234383   5.735   0.582   4.179 -1.2159  0.4681  0.1229
 4298TIP3   OH234384   3.258   3.646  14.283  0.0588 -0.2037 -0.4635
 4298TIP3    H134385   3.211   3.564  14.269  0.7196 -0.6680 -0.0291
 4298TIP3    H234386   3.262   3.656  14.378 -0.2142  0.4553 -0.5133
 4299TIP3   OH234387   2.278   3.038  15.386 -0.0781  0.5193 -0.0899
 4299TIP3    H134388   2.311   2.954  15.419 -2.5180 -0.1183  0.9574
 4299TIP3    H234389   2.351   3.073  15.334  2.0385 -0.9256  1.6766
 4300TIP3   OH234390   1.433   4.248   3.500 -0.2643  0.0339  0.3249
 4300TIP3    H134391   1.481   4.268   3.581 -2.0075 -0.1777  1.4829
 4300TIP3    H234392   1.353   4.299   3.507 -0.0326  0.7807 -1.7926
 4301TIP3   OH234393   5.271   4.285   0.410  0.3449 -0.4014 -0.2185
 4301TIP3    H134394   5.241   4.195   0.420  0.7220 -0.6260 -1.0912
 4301TIP3    H234395   5.235   4.330   0.487 -0.3701 -1.1497 -0.0999
 4302TIP3   OH234396   3.278   0.323   0.888 -0.3620  0.2547 -0.0062
 4302TIP3    H134397   3.237   0.344   0.972 -0.1798  1.4591 -0.1959
 4302TIP3    H234398   3.206   0.300   0.831 -0.6411  0.8991  0.0778
 4303TIP3   OH234399   4.024   3.624  14.071 -0.1042 -0.1079  0.1375
 4303TIP3    H134400   3.939   3.618  14.028 -0.0852  0.6148 -0.0070
 4303TIP3    H234401   4.086   3.593  14.005 -0.1083  0.7136 -0.2642
 4304TIP3   OH234402   5.627   2.075   4.219  0.3076  0.3125 -0.5350
 4304TIP3    H134403   5.582   2.042   4.141  1.4332 -0.6044 -0.8280
 4304TIP3    H234404   5.715   2.037   4.213  0.4186  0.2541  1.1867
 4305TIP3   OH234405   0.099   0.969   2.627  0.2066  0.3257  0.4897
 4305TIP3    H134406   0.188   0.936   2.625 -0.0657 -0.6254  2.1780
 4305TIP3    H234407   0.108   1.064   2.620  1.4421  0.3336  1.8007
 4306TIP3   OH234408   5.023   0.999  13.629 -0.0183  0.0867 -0.7697
 4306TIP3    H134409   4.998   1.015  13.537 -0.2616  0.7448 -0.5980
 4306TIP3    H234410   4.940   0.981  13.673  0.2126 -1.3190 -0.8777
 4307TIP3   OH234411   1.482   5.046  11.214 -0.3232 -0.5741 -0.1828
 4307TIP3    H134412   1.553   5.031  11.152 -1.6858 -0.9799 -1.7174
 4307TIP3    H234413   1.444   4.959  11.228 -0.3567 -0.4069  0.8277
 4308TIP3   OH234414   1.902   4.954   4.611  0.0025  0.2276  0.8203
 4308TIP3    H134415   1.872   4.868   4.641  0.6157 -0.1116  0.4973
 4308TIP3    H234416   1.873   5.015   4.678 -3.1574  0.2423 -0.4203
 4309TIP3   OH234417   3.828   1.619   1.839  0.1953 -0.1348 -0.4016
 4309TIP3    H134418   3.851   1.622   1.932  0.1198  0.2353 -0.3930
 4309TIP3    H234419   3.889   1.680   1.797 -1.0597  1.2652 -0.3061
 4310TIP3   OH234420   4.912   4.764  16.151  0.1004 -0.1469 -0.0298
 4310TIP3    H134421   4.944   4.768  16.241  2.4955 -0.9455 -0.7732
 4310TIP3    H234422   4.940   4.846  16.112  0.5039 -0.4851 -0.4604
 4311TIP3   OH234423   5.586   1.134   2.939 -0.4182 -0.0835 -0.1075
 4311TIP3    H134424   5.534   1.072   2.989 -1.0777  0.6757  0.1857
 4311TIP3    H234425   5.522   1.197   2.905  0.0871 -0.2464 -1.4122
 4312TIP3   OH234426   4.595   0.814   5.502  0.0636  0.9154 -0.6483
 4312TIP3    H134427   4.686   0.795   5.478  0.5519  0.5536  1.3640
 4312TIP3    H234428   4.577   0.899   5.461  1.5221  1.3041 -0.5348
 4313TIP3   OH234429   1.498   3.817   3.088 -0.1107 -0.2165  0.1479
 4313TIP3    H134430   1.493   3.790   3.180 -0.7209 -1.5755 -0.2603
 4313TIP3    H234431   1.591   3.811   3.067  0.1818  1.1131  0.9435
 4314TIP3   OH234432   4.485   6.206  14.558 -0.0017 -0.2618 -0.2650
 4314TIP3    H134433   4.509   6.231  14.468 -1.8059 -0.8303 -0.9362
 4314TIP3    H234434   4.434   6.280  14.590  1.2632  0.2724  0.6063
 4315TIP3   OH234435   3.971   4.743   4.117 -0.2719  0.5476 -0.6994
 4315TIP3    H134436   3.938   4.700   4.196 -1.6103  0.7477 -1.1284
 4315TIP3    H234437   4.044   4.797   4.148 -1.3759  1.3725  0.5800
 4316TIP3   OH234438   4.462   2.373   5.138 -0.8152 -0.0408  0.3611
 4316TIP3    H134439   4.538   2.325   5.171 -0.5749  0.7517  1.0039
 4316TIP3    H234440   4.451   2.342   5.048  1.4243  1.1595 -0.4197
 4317TIP3   OH234441   5.849   2.949   1.861 -0.2056 -0.1912 -0.5771
 4317TIP3    H134442   5.804   2.871   1.893  0.2325 -0.6119 -0.9562
 4317TIP3    H234443   5.843   3.012   1.932 -1.7558 -0.0788 -0.7758
 4318TIP3   OH234444   0.502   1.202   3.663 -0.3406  0.2551  0.6815
 4318TIP3    H134445   0.569   1.219   3.729 -0.9758  0.4883  1.2700
 4318TIP3    H234446   0.471   1.114   3.683 -0.4746  0.2940  0.6432
 4319TIP3   OH234447   4.602   3.398   1.481 -0.1879  0.1524 -0.0870
 4319TIP3    H134448   4.544   3.330   1.446 -0.9050  0.7872 -0.1609
 4319TIP3    H234449   4.590   3.472   1.421  0.3877  0.4287  0.1381
 4320TIP3   OH234450   3.713   2.115   4.676  0.1710  0.0062 -0.1905
 4320TIP3    H134451   3.715   2.179   4.747  1.0894  1.5229 -1.5147
 4320TIP3    H234452   3.782   2.052   4.698 -0.3199 -0.2009  0.8068
 4321TIP3   OH234453   4.179   5.001  15.049 -0.3721  0.0981 -0.2144
 4321TIP3    H134454   4.114   5.022  14.982  0.7675  1.0133 -1.0916
 4321TIP3    H234455   4.194   4.907  15.041  0.3215  0.3169 -1.8271
 4322TIP3   OH234456   3.394   6.294  15.855  0.3784  0.0941 -0.1624
 4322TIP3    H134457   3.430   6.352  15.788  0.4627 -1.7626 -1.7825
 4322TIP3    H234458   3.329   6.241  15.809 -0.5712 -0.3078  1.5499
 4323TIP3   OH234459   2.762   1.763  15.422  0.5735 -0.0142  0.8131
 4323TIP3    H134460   2.825   1.714  15.370  0.4630  0.9566 -0.2622
 4323TIP3    H234461   2.815   1.829  15.468  0.2634  1.7192 -1.1552
 4324TIP3   OH234462   3.233   5.665  17.009 -0.5916 -0.8640 -0.4446
 4324TIP3    H134463   3.253   5.649  17.101 -1.4999 -1.9017 -0.4099
 4324TIP3    H234464   3.319   5.669  16.966  0.1356  3.3052  0.9142
 4325TIP3   OH234465   1.442   1.449   2.838  0.1707 -0.3790  0.3212
 4325TIP3    H134466   1.474   1.416   2.753 -0.9539  1.0733 -0.7242
 4325TIP3    H234467   1.514   1.502   2.872  0.9543 -1.6432  0.7253
 4326TIP3   OH234468   2.141   3.490   0.481 -0.4833 -0.6272 -0.2555
 4326TIP3    H134469   2.132   3.463   0.389 -0.7406 -1.6591  0.0616
 4326TIP3    H234470   2.233   3.471   0.501  0.0197  1.1399 -0.7645
 4327TIP3   OH234471   3.107   2.060   1.995 -0.2763  0.2308 -0.1372
 4327TIP3    H134472   3.123   2.046   2.088  0.7986  0.0590 -0.3395
 4327TIP3    H234473   3.021   2.102   1.992  0.0713  1.0883  0.9886
 4328TIP3   OH234474   2.684   6.148  11.368  0.0372  0.3280 -0.1364
 4328TIP3    H134475   2.615   6.120  11.428 -0.4024 -2.1930 -1.7205
 4328TIP3    H234476   2.758   6.092  11.389  0.6705  1.0563 -0.3856
 4329TIP3   OH234477   5.371   4.903   5.877 -0.1735 -0.2111 -0.2752
 4329TIP3    H134478   5.375   4.837   5.947  3.3865 -2.0004 -1.9175
 4329TIP3    H234479   5.396   4.985   5.920  0.1610 -0.9123  0.9228
 4330TIP3   OH234480   4.316   4.182  15.121 -0.0943 -0.1953 -0.7301
 4330TIP3    H134481   4.253   4.250  15.146  0.3548 -0.3046  0.8494
 4330TIP3    H234482   4.266   4.101  15.124  0.4886 -0.5782  2.6854
 4331TIP3   OH234483   5.392   2.955  12.684 -0.2154 -0.2051 -0.0366
 4331TIP3    H134484   5.365   3.002  12.605 -1.5065  1.4620  1.3117
 4331TIP3    H234485   5.345   2.872  12.679 -1.6200  0.5584 -0.2510
 4332TIP3   OH234486   3.616   1.165   4.747 -0.2173 -0.4528  1.2430
 4332TIP3    H134487   3.549   1.115   4.700  0.6567  1.5210 -2.4443
 4332TIP3    H234488   3.574   1.249   4.765 -0.2659 -0.8972  3.5333
 4333TIP3   OH234489   5.977   5.368  15.185 -0.1601 -0.1903  0.0000
 4333TIP3    H134490   5.992   5.409  15.270 -0.2259  1.7601 -0.8942
 4333TIP3    H234491   6.065   5.354  15.150 -0.1587  0.1143 -0.1186
 4334TIP3   OH234492   5.754   6.410  14.461  0.2769 -0.2045 -0.0220
 4334TIP3    H134493   5.667   6.388  14.427  0.2943 -1.2028  0.5111
 4334TIP3    H234494   5.754   6.505  14.468 -0.6850 -0.1731 -0.2672
 4335TIP3   OH234495   0.859   1.206  15.757 -0.0684  0.0205 -0.5885
 4335TIP3    H134496   0.781   1.177  15.805 -0.8791  1.5162 -0.9299
 4335TIP3    H234497   0.919   1.131  15.760 -1.1917 -0.8749  0.3833
 4336TIP3   OH234498   2.784   2.276  13.612 -0.2438 -0.1352 -0.0426
 4336TIP3    H134499   2.832   2.356  13.636  0.9430 -0.0787 -2.3039
 4336TIP3    H234500   2.692   2.300  13.622  0.1101  0.9114  1.0357
 4337TIP3   OH234501   0.295   5.822   6.094 -0.0929  0.0942 -0.3238
 4337TIP3    H134502   0.246   5.829   6.175  2.1264  1.5861  1.0086
 4337TIP3    H234503   0.316   5.729   6.087  0.6712  0.0896  1.4936
 4338TIP3   OH234504   6.832   6.663   4.646  0.0566  0.1253 -0.2032
 4338TIP3    H134505   6.741   6.691   4.634 -0.1162 -0.9468 -1.6368
 4338TIP3    H234506   6.847   6.599   4.577  1.2815 -1.2409  1.2529
 4339TIP3   OH234507   3.284   5.217   0.548  0.0896  0.2598 -0.0300
 4339TIP3    H134508   3.331   5.258   0.621 -0.3064  1.2245 -0.2975
 4339TIP3    H234509   3.237   5.144   0.588  0.2819  0.4699  0.5901
 4340TIP3   OH234510   3.610   1.828  11.288 -0.0017 -0.1130  0.1974
 4340TIP3    H134511   3.676   1.768  11.255  1.7488  1.8981 -0.1734
 4340TIP3    H234512   3.605   1.897  11.222  0.0932  1.5663  1.8513
 4341TIP3   OH234513   2.066   0.735  11.765  0.8890 -0.1906  0.7695
 4341TIP3    H134514   2.045   0.763  11.676 -2.0977 -2.0353  0.7551
 4341TIP3    H234515   1.989   0.759  11.816  1.7170 -0.9398  2.4389
 4342TIP3   OH234516   4.027   6.245  11.361  0.1640  0.1498 -0.1403
 4342TIP3    H134517   4.029   6.312  11.293  1.4641  0.9136  0.6127
 4342TIP3    H234518   4.118   6.219  11.372  0.1556  0.7561  1.9576
 4343TIP3   OH234519   5.387   4.394  13.181 -0.6899  0.2690 -0.6207
 4343TIP3    H134520   5.416   4.317  13.229  1.2759  1.2326 -0.1556
 4343TIP3    H234521   5.317   4.362  13.123 -1.9195 -1.2559  1.5660
 4344TIP3   OH234522   4.229   2.938   6.600  0.1332  0.1063 -0.0533
 4344TIP3    H134523   4.166   3.008   6.579 -0.2782 -0.2627 -0.0743
 4344TIP3    H234524   4.296   2.980   6.653  0.0852  0.5997 -0.3785
 4345TIP3   OH234525   5.447   0.322   3.392 -0.0671  0.5876 -0.4172
 4345TIP3    H134526   5.357   0.354   3.384  0.3997  1.8795 -0.8295
 4345TIP3    H234527   5.467   0.331   3.485  0.0058  1.4188 -0.5020
 4346TIP3   OH234528   6.334   1.015   5.356 -0.0424 -0.2035 -0.2900
 4346TIP3    H134529   6.340   1.109   5.339  1.4063 -0.3069 -0.4622
 4346TIP3    H234530   6.283   0.981   5.283 -2.0067  0.6330  0.6089
 4347TIP3   OH234531   2.933   5.424  13.305 -0.1332 -0.0780 -0.1471
 4347TIP3    H134532   2.959   5.375  13.228 -0.6860  0.3622 -0.6295
 4347TIP3    H234533   2.905   5.509  13.271  0.0837  0.3000  0.5881
 4348TIP3   OH234534   1.998   6.269   2.805  0.6910  0.5218  0.0362
 4348TIP3    H134535   1.961   6.292   2.891  0.5438  2.1216 -0.4200
 4348TIP3    H234536   2.092   6.263   2.820  0.6422  0.5604  0.3585
 4349TIP3   OH234537   1.797   1.762   5.311  0.5581 -0.4354  0.1204
 4349TIP3    H134538   1.755   1.704   5.375  0.4598  0.7095  1.1245
 4349TIP3    H234539   1.726   1.790   5.254  0.4484 -0.6073  0.1714
 4350TIP3   OH234540   4.373   0.490   4.208 -0.5211 -0.3252  0.5913
 4350TIP3    H134541   4.309   0.549   4.249  1.1008  1.0291  1.2831
 4350TIP3    H234542   4.321   0.438   4.146 -2.1660  1.1818  0.6162
 4351TIP3   OH234543   3.724   2.837  15.241 -0.4477 -0.2186 -0.5526
 4351TIP3    H134544   3.634   2.829  15.209 -0.0600  1.4410 -2.2566
 4351TIP3    H234545   3.775   2.859  15.163  1.4031 -0.7809  0.4405
 4352TIP3   OH234546   1.329   4.515  16.446 -0.0372 -0.2608  0.0026
 4352TIP3    H134547   1.344   4.604  16.478  2.3408 -0.6236  0.0417
 4352TIP3    H234548   1.375   4.511  16.362  0.6968 -1.7015  0.4343
 4353TIP3   OH234549   1.401   2.423   1.030 -0.3086 -0.5388 -0.2060
 4353TIP3    H134550   1.485   2.424   1.075 -0.3799  0.2793 -0.0616
 4353TIP3    H234551   1.351   2.494   1.071  0.5778  2.1237 -3.2403
 4354TIP3   OH234552   6.069   4.852   4.926 -0.0457  0.1924 -0.3857
 4354TIP3    H134553   6.080   4.761   4.954 -0.6273  0.5435  1.0848
 4354TIP3    H234554   5.980   4.875   4.953  0.4972  1.5501  0.3808
 4355TIP3   OH234555   4.825   6.311   4.985 -0.4864 -0.1623  0.3584
 4355TIP3    H134556   4.881   6.348   4.917 -2.0534  0.9788 -0.3523
 4355TIP3    H234557   4.878   6.318   5.065  0.2246  1.3404 -0.1969
 4356TIP3   OH234558   3.289   0.354   1.473 -0.0020  0.2054 -0.4994
 4356TIP3    H134559   3.349   0.426   1.494  0.8702 -0.7024  0.2475
 4356TIP3    H234560   3.222   0.394   1.418  0.6418  1.5136 -0.3823
 4357TIP3   OH234561   2.220   0.297  10.653 -0.1744  0.3865  0.1923
 4357TIP3    H134562   2.185   0.309  10.564 -0.2965 -2.1993 -0.1937
 4357TIP3    H234563   2.314   0.282  10.639 -0.0914  0.5737  0.5590
 4358TIP3   OH234564   1.726   6.019   4.285  0.0815 -0.1719 -0.1859
 4358TIP3    H134565   1.665   6.054   4.350  1.4936 -1.0749  1.7286
 4358TIP3    H234566   1.763   6.097   4.243 -2.7270  0.4050 -1.8640
 4359TIP3   OH234567   5.315   2.376  11.234 -0.2008  0.0844  0.2833
 4359TIP3    H134568   5.309   2.365  11.139 -2.2392 -0.7572  0.4635
 4359TIP3    H234569   5.257   2.450  11.254  1.9532  1.7725  0.6948
 4360TIP3   OH234570   5.549   0.986   1.560  0.4140  0.0089 -0.2465
 4360TIP3    H134571   5.555   1.078   1.586  2.4607 -0.4612  1.2321
 4360TIP3    H234572   5.549   0.937   1.642 -0.3953 -1.3466 -1.0114
 4361TIP3   OH234573   0.058   1.236   0.197  0.7074 -0.5427  0.3314
 4361TIP3    H134574   0.132   1.184   0.165  2.2182  1.8955 -0.3458
 4361TIP3    H234575  -0.018   1.197   0.153  1.9341 -1.3453 -1.2124
 4362TIP3   OH234576   6.331   4.766  10.364 -0.2760  0.0405  0.5017
 4362TIP3    H134577   6.362   4.675  10.361 -0.6728 -0.1465  1.6609
 4362TIP3    H234578   6.282   4.772  10.446 -0.7743  1.1420  0.1423
 4363TIP3   OH234579   1.353   0.806  16.591 -0.3116  0.2026 -0.2974
 4363TIP3    H134580   1.365   0.714  16.614  1.0135  0.8016  1.6197
 4363TIP3    H234581   1.370   0.809  16.497 -0.5715 -1.5233 -0.4378
 4364TIP3   OH234582   0.012   0.053   1.587  0.0332 -0.4255 -0.3159
 4364TIP3    H134583   0.061   0.115   1.532 -0.1606 -1.2629 -1.4697
 4364TIP3    H234584   0.079   0.010   1.640  0.0518  1.7786  1.6522
 4365TIP3   OH234585   1.900   6.259  10.722 -0.5380 -0.0344 -0.3084
 4365TIP3    H134586   1.954   6.336  10.707 -0.1257  0.1321  1.7290
 4365TIP3    H234587   1.947   6.209  10.789 -2.4297 -0.3469  0.8815
 4366TIP3   OH234588   5.472   5.100  15.797  0.1263  0.7813  0.1039
 4366TIP3    H134589   5.544   5.068  15.743 -0.2669  0.7090 -0.3891
 4366TIP3    H234590   5.491   5.194  15.809 -0.1873  0.9725 -0.8289
 4367TIP3   OH234591   1.037   1.823   3.613 -0.4980 -0.2086  0.3953
 4367TIP3    H134592   1.029   1.867   3.697  0.4884  0.5791  0.0977
 4367TIP3    H234593   1.131   1.818   3.597 -0.6567 -0.7565 -0.4538
 4368TIP3   OH234594   1.502   6.565   2.303 -0.0151  0.6418 -0.3582
 4368TIP3    H134595   1.521   6.477   2.272  2.5549  0.3383  1.7718
 4368TIP3    H234596   1.576   6.618   2.272 -1.0365  1.8888 -0.7788
 4369TIP3   OH234597   6.427   0.601   5.707  0.1676 -0.1092  0.1257
 4369TIP3    H134598   6.506   0.547   5.698 -0.1213 -0.4940 -0.1368
 4369TIP3    H234599   6.381   0.563   5.782  1.4969  1.7348  1.9781
 4370TIP3   OH234600   3.030   5.475  11.546  0.1417  0.0069 -0.8411
 4370TIP3    H134601   3.125   5.467  11.555  0.1972  0.1137 -1.3081
 4370TIP3    H234602   3.010   5.436  11.461 -0.3584 -0.9445 -0.3066
 4371TIP3   OH234603   3.106   5.650  15.333 -0.1850 -0.4983  0.2080
 4371TIP3    H134604   3.136   5.576  15.281  0.9418  0.8260 -1.1251
 4371TIP3    H234605   3.117   5.622  15.424  2.6899 -1.0751 -0.2157
 4372TIP3   OH234606   0.611   3.706  16.055 -0.6684  0.2025 -0.3601
 4372TIP3    H134607   0.676   3.660  16.001  0.7848  0.1937  1.3127
 4372TIP3    H234608   0.601   3.791  16.013 -1.1166 -0.5101 -1.7725
 4373TIP3   OH234609   1.257   1.614  14.001  0.2852  0.6039  0.0710
 4373TIP3    H134610   1.323   1.557  14.039  0.1012  0.0942 -0.3665
 4373TIP3    H234611   1.182   1.607  14.059  0.2938  0.4693  0.0649
 4374TIP3   OH234612   3.350   1.409  11.482  0.0501  0.3616  0.0539
 4374TIP3    H134613   3.350   1.491  11.532  0.5187  0.4342 -0.0640
 4374TIP3    H234614   3.413   1.424  11.412 -1.3712  0.6414 -1.1933
 4375TIP3   OH234615   1.272   2.806  12.278 -0.1688  0.5179  0.1484
 4375TIP3    H134616   1.253   2.889  12.234  0.4209  0.0705 -0.9940
 4375TIP3    H234617   1.210   2.744  12.241  0.1609  0.1906  0.1393
 4376TIP3   OH234618   6.709   2.090  14.137 -0.1193 -0.2056  0.2477
 4376TIP3    H134619   6.766   2.153  14.181 -1.9766 -0.5519  3.4600
 4376TIP3    H234620   6.747   2.080  14.050  2.2253  2.6990  0.7799
 4377TIP3   OH234621   1.993   4.212  11.578 -0.1004  0.7727  0.1476
 4377TIP3    H134622   1.955   4.230  11.664 -0.3097  1.7077 -0.1381
 4377TIP3    H234623   2.087   4.225  11.590  0.3514 -2.4086  1.0893
 4378TIP3   OH234624   0.226   4.126  15.850  0.4589  0.0945 -0.0643
 4378TIP3    H134625   0.197   4.092  15.935  0.3556  1.9613  0.7124
 4378TIP3    H234626   0.233   4.221  15.864 -3.1535  1.0747 -3.0887
 4379TIP3   OH234627   1.482   4.838  15.192  0.3687 -0.6698 -0.1663
 4379TIP3    H134628   1.390   4.864  15.198 -0.4009 -3.2926  1.3188
 4379TIP3    H234629   1.531   4.914  15.223 -1.4657  0.0318  1.2217
 4380TIP3   OH234630   2.691   1.093   5.553 -0.2119  0.3213  0.1961
 4380TIP3    H134631   2.667   1.028   5.487 -1.9978  0.0198  1.0693
 4380TIP3    H234632   2.736   1.162   5.504 -0.7755 -0.2591 -1.1938
 4381TIP3   OH234633   6.627   4.775   6.177 -0.5357  0.0050 -0.3845
 4381TIP3    H134634   6.686   4.700   6.182 -1.1429 -0.4444  0.2903
 4381TIP3    H234635   6.650   4.829   6.253 -1.3118 -0.4354  0.1886
 4382TIP3   OH234636   3.713   5.044   0.373  0.0556  0.2140  0.4180
 4382TIP3    H134637   3.751   5.029   0.286 -1.8908 -1.4336 -0.2247
 4382TIP3    H234638   3.671   5.129   0.366  0.9778  0.6650  0.1739
 4383TIP3   OH234639   2.394   0.164  14.778 -0.6564 -0.0261  0.0933
 4383TIP3    H134640   2.321   0.198  14.829  0.7095 -1.4911  3.2444
 4383TIP3    H234641   2.456   0.237  14.772 -0.6443  0.0321  0.9182
 4384TIP3   OH234642   0.951   3.090  11.337  0.2392  0.0272 -0.1070
 4384TIP3    H134643   0.895   3.160  11.372 -1.7389 -1.8481  0.7200
 4384TIP3    H234644   1.027   3.136  11.301 -0.9677  2.5853  0.3621
 4385TIP3   OH234645   6.029   6.763  15.742  0.7338 -0.4041 -0.8349
 4385TIP3    H134646   6.083   6.701  15.790 -0.4053 -1.3147 -0.6875
 4385TIP3    H234647   6.066   6.763  15.653  0.7410 -1.3228 -0.8456
 4386TIP3   OH234648   1.855   5.843  13.379 -0.3488  0.1561  0.2617
 4386TIP3    H134649   1.923   5.865  13.443  0.7352  2.1504 -1.4738
 4386TIP3    H234650   1.780   5.817  13.433  1.3293 -0.8661  2.2680
 4387TIP3   OH234651   6.466   1.958  14.728  0.4397  0.3192 -0.4051
 4387TIP3    H134652   6.539   1.940  14.668 -1.5431  2.3009 -3.7666
 4387TIP3    H234653   6.461   2.053  14.732 -1.1290  0.2320  0.8429
 4388TIP3   OH234654   2.267   1.703  16.580 -0.1050 -0.1086  0.0745
 4388TIP3    H134655   2.259   1.769  16.511 -0.4500 -0.5254 -0.2805
 4388TIP3    H234656   2.211   1.631  16.552  0.1947 -0.5168  0.5158
 4389TIP3   OH234657   1.789   1.340   4.759  0.4574 -0.1354 -0.1230
 4389TIP3    H134658   1.838   1.316   4.680  0.6504 -1.3152  0.3412
 4389TIP3    H234659   1.856   1.354   4.826  0.2630  0.3374 -0.0224
 4390TIP3   OH234660   0.133   0.610  17.078  0.3121  0.4376  0.8551
 4390TIP3    H134661   0.066   0.590  17.012 -0.1087  0.7478  1.1801
 4390TIP3    H234662   0.108   0.558  17.154  3.7199 -4.2786 -0.7628
 4391TIP3   OH234663   5.980   5.735  12.680  0.4524  0.1696  0.1581
 4391TIP3    H134664   5.900   5.765  12.722  0.2229  0.8403 -0.7326
 4391TIP3    H234665   5.951   5.672  12.614  0.8088 -0.8708  0.9601
 4392TIP3   OH234666   2.275   2.005   5.735 -0.2483 -0.2732  0.3105
 4392TIP3    H134667   2.182   2.013   5.715 -0.4827 -0.7650  1.1801
 4392TIP3    H234668   2.280   2.012   5.830  0.5844 -0.4479  0.2860
 4393TIP3   OH234669   5.193   5.534   3.181 -0.0907  0.5461  0.3382
 4393TIP3    H134670   5.283   5.510   3.156 -0.2682  2.1378 -2.2386
 4393TIP3    H234671   5.195   5.630   3.188 -1.8076  0.7386 -1.0323
 4394TIP3   OH234672   3.115   3.033  12.183  0.4324 -0.0994 -0.3351
 4394TIP3    H134673   3.109   3.129  12.175  2.0479  0.1662  1.0404
 4394TIP3    H234674   3.039   3.009  12.236  0.5644  0.5721  0.1785
 4395TIP3   OH234675   5.384   4.401  15.029  0.2345 -0.0429 -0.2936
 4395TIP3    H134676   5.406   4.437  15.115 -0.3252  1.3305 -0.7088
 4395TIP3    H234677   5.467   4.365  14.996  0.5471 -0.1802  0.6224
 4396TIP3   OH234678   1.422   5.702   4.077  0.3857  0.2238 -0.8666
 4396TIP3    H134679   1.353   5.646   4.040  0.5158 -0.6989  0.2406
 4396TIP3    H234680   1.391   5.791   4.062 -0.3413 -0.1520 -1.7008
 4397TIP3   OH234681   3.780   2.795   3.025 -0.1323 -0.3523  0.0497
 4397TIP3    H134682   3.729   2.812   2.946  0.4663 -0.6127 -0.4048
 4397TIP3    H234683   3.849   2.861   3.024  0.5117 -1.0050 -0.2254
 4398TIP3   OH234684   2.619   2.811   0.037 -0.0861 -0.2014 -0.0836
 4398TIP3    H134685   2.603   2.719   0.014  0.3249 -0.3451  0.1909
 4398TIP3    H234686   2.533   2.845   0.062 -0.4377 -0.2070 -1.2339
 4399TIP3   OH234687   0.357   2.258   0.247  0.0587  0.1940 -0.2193
 4399TIP3    H134688   0.409   2.281   0.170  2.4063  0.8423  1.4471
 4399TIP3    H234689   0.364   2.335   0.304 -1.8441 -0.1632  0.5678
 4400TIP3   OH234690   2.213   2.413  12.409 -0.7895  0.3570 -0.4539
 4400TIP3    H134691   2.264   2.387  12.486  0.0954  1.6259 -0.5789
 4400TIP3    H234692   2.158   2.337  12.390  2.9664 -2.3532 -1.9561
 4401TIP3   OH234693   2.790   2.973  10.906 -0.2720 -0.1094  0.4941
 4401TIP3    H134694   2.814   2.988  10.998  0.4308 -1.3707  0.5411
 4401TIP3    H234695   2.859   3.015  10.856 -0.2493 -0.0713  0.5572
 4402TIP3   OH234696   0.953   1.179  13.276  0.1682  0.0433 -0.1634
 4402TIP3    H134697   1.043   1.209  13.262  0.4549  2.0792  4.3524
 4402TIP3    H234698   0.899   1.257  13.266 -0.0579  0.6279  3.8766
 4403TIP3   OH234699   1.282   4.750   3.161  0.5674 -0.5221  0.1536
 4403TIP3    H134700   1.361   4.784   3.120  0.6988  0.0939  0.8937
 4403TIP3    H234701   1.314   4.693   3.231  0.3522 -0.5609  0.2218
 4404TIP3   OH234702   0.635   0.775   5.010  0.3873  0.0096  0.6998
 4404TIP3    H134703   0.651   0.681   5.020  1.4904  0.3968  3.2638
 4404TIP3    H234704   0.722   0.815   5.015 -0.0554  1.1831 -0.4835
 4405TIP3   OH234705   4.034   4.876  16.818 -0.6368  0.0263 -0.2015
 4405TIP3    H134706   4.119   4.841  16.791 -0.3907 -0.1202  0.7496
 4405TIP3    H234707   4.037   4.968  16.792  0.5096  0.4654  1.3784
 4406TIP3   OH234708   3.621   5.151   3.155 -0.3843  0.3793 -0.4357
 4406TIP3    H134709   3.585   5.151   3.066  0.5462  0.6047 -0.8279
 4406TIP3    H234710   3.569   5.086   3.202  0.1120 -0.8999 -1.5803
 4407TIP3   OH234711   4.638   1.673  11.740  0.2021 -0.6757 -0.2319
 4407TIP3    H134712   4.545   1.692  11.751  0.8937  3.1192  0.4968
 4407TIP3    H234713   4.675   1.686  11.827  1.5566 -1.1118 -0.7279
 4408TIP3   OH234714   4.264   0.824   5.375  0.5906  0.2019 -0.4965
 4408TIP3    H134715   4.175   0.820   5.409  0.2342 -1.4176 -1.4901
 4408TIP3    H234716   4.294   0.733   5.375  2.0815  0.6620 -0.6224
 4409TIP3   OH234717   2.822   0.740  14.133 -0.5590  0.0628 -0.1458
 4409TIP3    H134718   2.855   0.825  14.162  0.5994 -0.2226 -0.5468
 4409TIP3    H234719   2.775   0.758  14.052 -0.4835  0.3407 -0.1293
 4410TIP3   OH234720   0.964   4.249   2.396  0.0481 -0.2732  0.4473
 4410TIP3    H134721   0.984   4.289   2.481  0.4419 -0.3476  0.3896
 4410TIP3    H234722   0.910   4.314   2.351  0.4282  0.0607  0.4738
 4411TIP3   OH234723   5.391   0.590   5.574 -0.0003  0.1796 -0.1610
 4411TIP3    H134724   5.473   0.571   5.529 -0.0562  2.0774 -1.1338
 4411TIP3    H234725   5.366   0.506   5.614  1.9303 -0.6481 -0.5886
 4412TIP3   OH234726   3.949   4.114  14.497 -0.0906 -0.2429  0.1354
 4412TIP3    H134727   3.954   4.021  14.472 -0.7235 -0.1518 -0.3601
 4412TIP3    H234728   3.961   4.161  14.415  1.5349  0.1605  0.5771
 4413TIP3   OH234729   6.707   0.233  14.685  0.2352  0.0961 -0.0371
 4413TIP3    H134730   6.702   0.153  14.737 -2.3412 -0.0550 -0.3781
 4413TIP3    H234731   6.776   0.216  14.621  1.8366 -0.6229  1.7764
 4414TIP3   OH234732   6.055   2.440   6.122 -0.4622 -0.2414  0.0714
 4414TIP3    H134733   6.029   2.528   6.148  0.4320  0.5846 -1.6420
 4414TIP3    H234734   6.039   2.386   6.200 -2.3802  1.1353  0.7014
 4415TIP3   OH234735   1.157   0.584   4.977  0.0942  0.7928 -0.4398
 4415TIP3    H134736   1.107   0.526   4.919  0.4118  0.6781 -0.6034
 4415TIP3    H234737   1.248   0.570   4.952  0.3696 -0.3033  1.0215
 4416TIP3   OH234738   4.061   6.173   0.731  0.3373 -0.1484 -0.0067
 4416TIP3    H134739   4.015   6.196   0.650  0.7724  0.0724 -0.1939
 4416TIP3    H234740   4.103   6.254   0.759  1.4157 -0.5596 -0.3622
 4417TIP3   OH234741   0.857   2.304  13.570  0.2372 -0.1015  0.0247
 4417TIP3    H134742   0.891   2.225  13.526 -1.6759 -0.6542 -0.5844
 4417TIP3    H234743   0.897   2.377  13.523 -0.6141 -0.7067 -1.7522
 4418TIP3   OH234744   4.421   5.265   2.763 -0.2066 -0.2138 -0.2857
 4418TIP3    H134745   4.487   5.331   2.748  0.4336 -0.8084 -0.1410
 4418TIP3    H234746   4.456   5.211   2.834 -0.3219 -1.2060 -0.9484
 4419TIP3   OH234747   0.524   3.189  15.588  0.5771  0.5970 -0.3593
 4419TIP3    H134748   0.475   3.231  15.659 -0.4325  1.8441 -1.7336
 4419TIP3    H234749   0.486   3.225  15.508  2.1142 -0.2853 -1.5404
 4420TIP3   OH234750   1.982   0.600   5.386 -0.4788 -0.0181  0.0919
 4420TIP3    H134751   2.056   0.548   5.355 -1.0211 -0.5734 -0.3049
 4420TIP3    H234752   1.931   0.540   5.440 -0.6899  0.3292  0.2824
 4421TIP3   OH234753   0.541   5.451   1.145 -0.5273  0.4276 -0.2455
 4421TIP3    H134754   0.503   5.363   1.134  0.5050 -0.3199  1.6275
 4421TIP3    H234755   0.584   5.469   1.062 -0.4692 -0.9996 -0.5650
 4422TIP3   OH234756   6.509   2.954   6.107  0.6803  0.3930 -0.0185
 4422TIP3    H134757   6.494   3.042   6.074  2.4565  0.2518 -1.3284
 4422TIP3    H234758   6.535   2.966   6.198  0.8520  1.2163 -0.1752
 4423TIP3   OH234759   5.956   6.361   6.192 -0.2596  0.1296  0.0341
 4423TIP3    H134760   5.971   6.452   6.166  1.3490  0.0734  0.6483
 4423TIP3    H234761   6.011   6.309   6.134 -0.5035 -0.3893  0.2532
 4424TIP3   OH234762   5.128   5.563   1.534 -0.1287  0.2384 -0.1587
 4424TIP3    H134763   5.212   5.605   1.517  0.2409 -0.0714  0.8371
 4424TIP3    H234764   5.112   5.510   1.456  0.6972  0.1405 -0.2716
 4425TIP3   OH234765   4.671   0.877   0.138  0.2541  0.8050  0.6641
 4425TIP3    H134766   4.617   0.799   0.128  0.5295  0.7365 -0.4155
 4425TIP3    H234767   4.755   0.844   0.172  0.0322  0.7683  1.1905
 4426TIP3   OH234768   2.210   6.456  12.656  0.0296  0.2787 -0.2903
 4426TIP3    H134769   2.260   6.428  12.732  3.0647  0.0521 -2.1953
 4426TIP3    H234770   2.145   6.516  12.691  0.4779 -0.7334  2.5792
 4427TIP3   OH234771   6.332   0.727   0.022 -0.6154 -0.1532  0.0700
 4427TIP3    H134772   6.267   0.670  -0.019  0.7584 -1.2553 -0.6469
 4427TIP3    H234773   6.388   0.756  -0.049  1.2924 -1.4037  0.9624
 4428TIP3   OH234774   5.663   1.577   0.992 -0.3984  0.4760 -0.3019
 4428TIP3    H134775   5.607   1.549   1.064  0.2414  0.7042  0.3021
 4428TIP3    H234776   5.611   1.563   0.914 -1.0761  0.1364  0.2000
 4429TIP3   OH234777   6.434   4.555   5.307  0.3687 -0.4267 -0.0663
 4429TIP3    H134778   6.339   4.566   5.305  0.0914 -1.8880  2.0073
 4429TIP3    H234779   6.447   4.467   5.341  2.4844 -1.5875 -3.3542
 4430TIP3   OH234780   3.499   3.295  15.168 -0.2218  0.2459  0.2496
 4430TIP3    H134781   3.479   3.243  15.246 -0.2772 -0.1901 -0.0569
 4430TIP3    H234782   3.584   3.263  15.138 -1.1720 -1.1064 -1.1303
 4431TIP3   OH234783   4.920   2.079   2.577  0.1148  0.3908  0.8307
 4431TIP3    H134784   4.920   1.984   2.566 -0.4602  0.3793  0.8770
 4431TIP3    H234785   5.001   2.108   2.536  0.8989 -0.2387  1.8989
 4432TIP3   OH234786   2.170   1.846  16.206 -0.4429  0.4361 -0.0248
 4432TIP3    H134787   2.168   1.930  16.160 -0.5372 -0.5256 -1.8234
 4432TIP3    H234788   2.224   1.790  16.152 -2.0499 -1.2887  0.0591
 4433TIP3   OH234789   1.809   1.445  14.987  0.2930 -0.1970 -0.2463
 4433TIP3    H134790   1.727   1.397  14.995  0.8332 -1.1278 -0.1539
 4433TIP3    H234791   1.814   1.497  15.067 -1.5073  2.0189 -1.4540
 4434TIP3   OH234792   1.852   0.646  13.903  0.4435  0.0804 -0.5367
 4434TIP3    H134793   1.781   0.652  13.840  1.4016  0.3825 -1.6301
 4434TIP3    H234794   1.931   0.641  13.850  1.1885 -1.3504  0.6169
 4435TIP3   OH234795   1.063   5.252   5.396  0.0733 -0.2981  0.6991
 4435TIP3    H134796   1.024   5.168   5.423 -0.7045 -0.4283 -0.7097
 4435TIP3    H234797   0.994   5.293   5.344  1.0945  0.4264 -0.0989
 4436TIP3   OH234798   4.845   3.945   2.280  0.4413  0.7603 -0.4563
 4436TIP3    H134799   4.760   3.937   2.323  1.2439  1.2390  1.2761
 4436TIP3    H234800   4.823   3.967   2.189 -1.3189 -1.4597 -0.6672
 4437TIP3   OH234801   6.056   2.698   3.484  0.1537 -0.1849 -0.5066
 4437TIP3    H134802   5.988   2.734   3.541  1.6323 -0.7380  1.7013
 4437TIP3    H234803   6.110   2.773   3.460  0.5595 -0.2053  0.3153
 4438TIP3   OH234804   1.205   6.470  11.638 -0.4209  0.4776 -0.6278
 4438TIP3    H134805   1.229   6.563  11.633  0.3685  0.7634  3.9114
 4438TIP3    H234806   1.289   6.425  11.650 -1.0246 -0.3330  0.7096
 4439TIP3   OH234807   3.201   3.574   5.760 -0.0685  0.3153 -0.1158
 4439TIP3    H134808   3.148   3.547   5.834  2.2939  0.7808  1.9129
 4439TIP3    H234809   3.236   3.493   5.723  1.2244  0.1481  1.3527
 4440TIP3   OH234810   6.166   0.080   5.530 -0.3854  0.7406 -0.2723
 4440TIP3    H134811   6.105   0.039   5.591  0.4912  0.2826  0.3220
 4440TIP3    H234812   6.191   0.162   5.571  0.1901  0.4416 -0.0144
 4441TIP3   OH234813   3.336   0.498   6.262 -0.2435  0.1109  0.0587
 4441TIP3    H134814   3.294   0.583   6.276 -3.1679 -1.6117  3.4592
 4441TIP3    H234815   3.393   0.487   6.338 -0.9856 -1.4477  0.4404
 4442TIP3   OH234816   5.322   5.603  13.999  0.2835 -0.1729 -0.0618
 4442TIP3    H134817   5.316   5.517  13.958  0.5295 -1.0654  1.6852
 4442TIP3    H234818   5.395   5.646  13.954  0.0714 -0.8059 -1.0430
 4443TIP3   OH234819   3.251   5.653  11.354  0.6149  0.1710 -0.6274
 4443TIP3    H134820   3.192   5.726  11.335  1.1445  0.9650  0.6138
 4443TIP3    H234821   3.198   5.575  11.341 -0.0627  0.7851 -1.6776
 4444TIP3   OH234822   6.271   0.478   4.820 -0.2440 -0.1451  0.5346
 4444TIP3    H134823   6.228   0.398   4.791 -1.2562  1.3076 -2.4098
 4444TIP3    H234824   6.364   0.462   4.803 -0.4655 -0.6259 -0.2797
 4445TIP3   OH234825   6.074   0.247  13.367  0.8020  0.6038  0.0178
 4445TIP3    H134826   6.158   0.282  13.338  2.4500 -1.1871  2.2147
 4445TIP3    H234827   6.084   0.152  13.359 -1.4649  0.3676 -0.6679
 4446TIP3   OH234828   5.351   4.577  11.977 -0.7605 -0.5501  0.0626
 4446TIP3    H134829   5.438   4.610  11.954 -0.8903 -0.0208  0.3024
 4446TIP3    H234830   5.314   4.545  11.895 -1.5243  2.0095 -0.6965
 4447TIP3   OH234831   4.111   5.143  14.307  0.5415  0.0656  0.3711
 4447TIP3    H134832   4.033   5.107  14.349 -0.2755  0.8275 -0.4724
 4447TIP3    H234833   4.103   5.118  14.215  0.9580  0.7210  0.1533
 4448TIP3   OH234834   1.883   1.796   0.152 -0.4120  0.4736  0.0886
 4448TIP3    H134835   1.808   1.767   0.101 -1.3399 -0.4171  1.8723
 4448TIP3    H234836   1.947   1.724   0.144 -0.1993  0.7152 -0.4733
 4449TIP3   OH234837   6.834   5.806   3.096  0.0003  0.1860 -0.2330
 4449TIP3    H134838   6.756   5.842   3.054 -0.7913 -0.7161  0.3936
 4449TIP3    H234839   6.903   5.870   3.080 -1.2031  1.6696  0.3434
 4450TIP3   OH234840   5.367   1.238  15.178  0.2057 -0.1378  0.5880
 4450TIP3    H134841   5.463   1.238  15.179  0.2019 -0.4214  1.1897
 4450TIP3    H234842   5.342   1.324  15.210  0.2609 -0.7639  2.4558
 4451TIP3   OH234843   1.942   6.301  12.188 -0.1123  0.4976 -0.5419
 4451TIP3    H134844   1.878   6.336  12.250 -0.2745  0.9875 -0.9767
 4451TIP3    H234845   1.990   6.235  12.238 -0.7685  0.3238 -0.1276
 4452TIP3   OH234846   6.162   3.788   0.863  0.0029 -0.1447 -0.2690
 4452TIP3    H134847   6.235   3.849   0.870  1.4059 -1.6569 -1.1931
 4452TIP3    H234848   6.138   3.769   0.953  0.9013  0.1868  0.0519
 4453TIP3   OH234849   5.815   0.087  16.313 -0.2175  0.2578  0.3033
 4453TIP3    H134850   5.890   0.079  16.254  0.1989 -1.7637  1.0035
 4453TIP3    H234851   5.840   0.037  16.391 -1.9988  0.1578  0.8685
 4454TIP3   OH234852   3.717   5.496  10.991 -0.4807 -0.2183  0.2108
 4454TIP3    H134853   3.808   5.524  10.983 -0.1438 -1.4300 -0.4839
 4454TIP3    H234854   3.677   5.520  10.908 -1.0596  1.1442  0.8543
 4455TIP3   OH234855   1.413   2.102   3.184 -0.4990  0.1117 -0.2242
 4455TIP3    H134856   1.380   2.020   3.220 -1.4029  0.6710  0.2624
 4455TIP3    H234857   1.372   2.108   3.098 -1.1300  0.4675  0.0957
 4456TIP3   OH234858   3.570   0.498   5.455 -0.0562 -0.2192 -0.3342
 4456TIP3    H134859   3.577   0.539   5.369 -1.6694 -0.0313 -0.3929
 4456TIP3    H234860   3.567   0.404   5.436 -2.4758 -0.1187 -0.6784
 4457TIP3   OH234861   5.841   2.468   4.771  0.0428  0.0432 -0.1020
 4457TIP3    H134862   5.879   2.405   4.710  0.3664 -0.2549  0.4084
 4457TIP3    H234863   5.915   2.505   4.818 -0.2681 -0.3915  0.7533
 4458TIP3   OH234864   2.289   2.571   2.822  0.3735 -0.2333 -0.9450
 4458TIP3    H134865   2.201   2.609   2.824  0.4998  0.0389 -0.6160
 4458TIP3    H234866   2.278   2.490   2.772 -0.3111 -0.8122  0.0881
 4459TIP3   OH234867   3.094   2.328  14.236 -0.1130  0.1061  0.3270
 4459TIP3    H134868   3.141   2.409  14.256  0.4748 -0.1452 -0.0232
 4459TIP3    H234869   3.159   2.259  14.249 -0.5075 -0.2819  0.2560
 4460TIP3   OH234870   2.010   4.342  10.623  0.1483  0.1634  0.2573
 4460TIP3    H134871   2.018   4.428  10.663  1.2379 -0.0970  0.6501
 4460TIP3    H234872   2.053   4.351  10.538  1.6239 -0.3497  0.9119
 4461TIP3   OH234873   0.814   2.927  13.451 -0.0997 -0.0223 -0.5189
 4461TIP3    H134874   0.765   2.977  13.516  1.5222  0.9686 -0.0018
 4461TIP3    H234875   0.811   2.980  13.372  0.9075  0.5193 -0.2112
 4462TIP3   OH234876   6.699   0.770   3.719  0.4034  0.5917 -0.5738
 4462TIP3    H134877   6.655   0.714   3.783  1.6871  1.6293  1.3453
 4462TIP3    H234878   6.690   0.724   3.636 -3.7971  0.4792 -0.3038
 4463TIP3   OH234879   1.012   4.993   0.391 -0.4455 -0.0494 -0.4581
 4463TIP3    H134880   0.985   4.986   0.483 -1.4171 -1.5157 -0.8101
 4463TIP3    H234881   1.080   4.927   0.381 -0.8580 -0.4140 -0.9393
 4464TIP3   OH234882   2.429   2.906  15.798  0.4102 -0.5974  0.1680
 4464TIP3    H134883   2.498   2.952  15.845  0.7443 -1.8555  0.9533
 4464TIP3    H234884   2.377   2.864  15.866 -1.2841  0.4725 -0.3909
 4465TIP3   OH234885   1.924   1.002   4.570  0.2655  0.6422  0.8250
 4465TIP3    H134886   1.953   0.935   4.508 -2.8541 -1.0358  0.9994
 4465TIP3    H234887   1.921   1.082   4.519 -0.6818 -0.3845 -0.8176
 4466TIP3   OH234888   2.729   6.546   3.475 -0.0659  0.4945  0.0246
 4466TIP3    H134889   2.800   6.558   3.412 -2.0234  0.2105 -2.3725
 4466TIP3    H234890   2.716   6.632   3.514  3.0563  0.1052  2.3673
 4467TIP3   OH234891   6.284   1.327   2.985  0.3537  0.2531  0.0539
 4467TIP3    H134892   6.272   1.398   2.922 -0.3492  1.1751  1.1800
 4467TIP3    H234893   6.264   1.247   2.936  1.2880  0.7908 -1.2732
 4468TIP3   OH234894   6.222   3.785   0.101 -0.0155 -0.8399  0.2238
 4468TIP3    H134895   6.303   3.836   0.094 -0.3441 -0.3667 -0.2410
 4468TIP3    H234896   6.249   3.694   0.090  0.8246 -0.9645  2.7503
 4469TIP3   OH234897   2.594   4.175  16.824  0.4419  0.2666 -0.0319
 4469TIP3    H134898   2.536   4.136  16.759  0.8189  1.4143 -1.0967
 4469TIP3    H234899   2.639   4.245  16.777  1.1514  0.7592  1.3227
 4470TIP3   OH234900   4.050   3.938   4.697  0.2137 -0.3473 -0.0310
 4470TIP3    H134901   4.032   3.871   4.762  0.2800 -1.5032 -1.1717
 4470TIP3    H234902   4.102   4.004   4.743 -0.7745 -0.5229  1.3929
 4471TIP3   OH234903   1.815   0.893  14.134 -0.1371  0.4582 -0.0543
 4471TIP3    H134904   1.856   0.808  14.149 -2.2098 -1.1520 -2.5728
 4471TIP3    H234905   1.846   0.919  14.047 -0.4117  1.7234  0.2151
 4472TIP3   OH234906   6.029   3.730  14.549  0.1134 -0.2480  0.2808
 4472TIP3    H134907   6.014   3.644  14.509 -0.1115  0.1302 -0.4778
 4472TIP3    H234908   6.013   3.717  14.642 -3.3181 -0.3014 -0.1883
 4473TIP3   OH234909   5.972   5.010   2.390  0.1091 -0.3033 -0.4059
 4473TIP3    H134910   6.015   5.090   2.362  0.3365  0.4013  1.8107
 4473TIP3    H234911   5.895   5.039   2.439  0.9102 -1.3328  1.5911
 4474TIP3   OH234912   5.773   4.744  16.373  0.6265  0.1058  0.1886
 4474TIP3    H134913   5.768   4.694  16.454  2.1919 -1.0877 -0.3971
 4474TIP3    H234914   5.703   4.809  16.380  0.1091 -0.5971  2.0499
 4475TIP3   OH234915   3.751   5.108  15.407 -0.0583 -0.1865  0.1499
 4475TIP3    H134916   3.833   5.108  15.456  0.4454  2.1437 -0.5360
 4475TIP3    H234917   3.714   5.021  15.421  1.5617 -0.6363  2.0710
 4476TIP3   OH234918   2.533   6.489  12.671 -0.6400 -0.5530  0.0955
 4476TIP3    H134919   2.566   6.415  12.620  1.9956  1.4837 -1.4403
 4476TIP3    H234920   2.483   6.450  12.742  2.3374 -3.9384  0.5912
 4477TIP3   OH234921   3.299   3.482  12.120 -0.0635  0.1609 -0.1841
 4477TIP3    H134922   3.375   3.539  12.121  0.3033 -0.3182  0.0614
 4477TIP3    H234923   3.326   3.406  12.068 -1.2201  1.0796 -2.2138
 4478TIP3   OH234924   2.883   5.527   0.442 -0.0348  0.0087 -0.0194
 4478TIP3    H134925   2.926   5.548   0.524 -1.8412 -1.0066  1.2784
 4478TIP3    H234926   2.935   5.456   0.404 -0.1998 -0.7776  1.1936
 4479TIP3   OH234927   3.788   2.914  12.890 -0.3212 -0.2905  0.0756
 4479TIP3    H134928   3.841   2.848  12.935  0.8603 -0.1157 -1.0231
 4479TIP3    H234929   3.826   2.998  12.917  1.7920 -0.1988 -2.7620
 4480TIP3   OH234930   6.155   5.793  14.454  0.3081  0.8533 -0.0137
 4480TIP3    H134931   6.126   5.704  14.474 -0.9927  1.2686  0.0667
 4480TIP3    H234932   6.129   5.806  14.363 -0.8769  1.6328  0.4011
 4481TIP3   OH234933   0.927   0.026   3.893  0.0041  0.1012  0.0129
 4481TIP3    H134934   0.855  -0.006   3.838  2.1307 -1.9106 -1.8027
 4481TIP3    H234935   0.914  -0.018   3.978 -1.0710  0.0406 -0.1701
 4482TIP3   OH234936   1.674   4.090   5.480  0.1841  0.7799 -0.6121
 4482TIP3    H134937   1.589   4.131   5.465  0.7793  2.4641  0.3050
 4482TIP3    H234938   1.728   4.119   5.407  0.1853  0.3595 -0.7782
 4483TIP3   OH234939   6.553   3.216   4.081 -0.5121  0.2900 -0.2355
 4483TIP3    H134940   6.496   3.139   4.085  2.3375 -1.9266  0.5462
 4483TIP3    H234941   6.569   3.230   3.988 -0.6321 -0.4028 -0.3616
 4484TIP3   OH234942   5.549   3.141  14.900  0.2054  0.8751 -0.2570
 4484TIP3    H134943   5.636   3.110  14.875 -0.9699 -1.7465 -1.4892
 4484TIP3    H234944   5.520   3.078  14.966 -1.0405  1.2429 -0.4361
 4485TIP3   OH234945   5.833   0.001   2.765 -0.2577  0.5291 -0.4692
 4485TIP3    H134946   5.784   0.031   2.841 -0.6921  1.8671 -1.2420
 4485TIP3    H234947   5.770  -0.048   2.713  0.4681 -1.9427  0.8250
 4486TIP3   OH234948   6.265   6.618  15.921  0.5757 -0.2186 -0.2039
 4486TIP3    H134949   6.318   6.673  15.864  0.3653 -0.4844 -0.6656
 4486TIP3    H234950   6.316   6.538  15.932  1.2080  0.3341  1.0488
 4487TIP3   OH234951   4.981   2.645  15.464 -0.3241 -0.0055  0.4568
 4487TIP3    H134952   4.959   2.608  15.550 -1.2462  0.8757  0.6212
 4487TIP3    H234953   5.005   2.736  15.482  0.4194 -0.0781 -0.1142
 4488TIP3   OH234954   3.945   2.791   5.092 -0.1197 -0.7454  0.3586
 4488TIP3    H134955   4.012   2.730   5.061 -1.1381 -1.2801 -0.8787
 4488TIP3    H234956   3.947   2.783   5.187  2.0138 -0.2467  0.4095
 4489TIP3   OH234957   6.778   4.180  14.502 -0.4809 -0.5165 -0.5073
 4489TIP3    H134958   6.716   4.213  14.567 -0.6125  0.6688 -1.2131
 4489TIP3    H234959   6.832   4.117  14.550  0.4519  1.4484  1.1799
 4490TIP3   OH234960   4.320   5.373   0.505  0.1563  0.1151  0.1893
 4490TIP3    H134961   4.312   5.334   0.591 -0.9961 -1.5797 -0.6294
 4490TIP3    H234962   4.277   5.459   0.514 -2.1892 -1.0284  0.7446
 4491TIP3   OH234963   5.911   3.282   2.550 -0.3577  0.2358 -0.0835
 4491TIP3    H134964   5.852   3.349   2.517  0.2893  0.8239 -0.0699
 4491TIP3    H234965   5.943   3.238   2.472 -1.6088 -0.7982 -0.0471
 4492TIP3   OH234966   2.585   1.108   2.137 -0.2807  0.1389  0.1304
 4492TIP3    H134967   2.541   1.024   2.150  1.1235 -0.7620 -0.6439
 4492TIP3    H234968   2.653   1.090   2.072  0.6097  1.6856  0.5666
 4493TIP3   OH234969   5.912   1.704   4.017 -0.0808 -0.5560  1.1060
 4493TIP3    H134970   5.826   1.728   3.984  0.3377  0.7134  0.9082
 4493TIP3    H234971   5.904   1.712   4.112  0.2310  1.0780  1.0231
 4494TIP3   OH234972   5.753   3.609  14.563 -0.3044 -0.2294 -0.3095
 4494TIP3    H134973   5.785   3.563  14.486  0.2303 -0.8829  0.2887
 4494TIP3    H234974   5.782   3.556  14.637 -2.7884 -0.8816  0.3011
 4495TIP3   OH234975   0.247   3.978  12.504  0.0407  0.1698 -0.1655
 4495TIP3    H134976   0.165   3.968  12.457  0.9922  0.0579 -1.9045
 4495TIP3    H234977   0.285   3.890  12.506  0.8345  0.4783 -0.8217
 4496TIP3   OH234978   4.889   0.778  10.154  0.1432 -0.0780 -0.0863
 4496TIP3    H134979   4.970   0.757  10.199 -0.2340 -2.2230 -0.3109
 4496TIP3    H234980   4.839   0.830  10.217  0.5120 -1.1923  1.1597
 4497TIP3   OH234981   3.538   0.942  16.362 -0.2245 -0.0921 -0.6661
 4497TIP3    H134982   3.457   0.954  16.412  1.3713  1.2266  1.8039
 4497TIP3    H234983   3.533   1.009  16.294 -1.1219  0.0953 -0.4395
 4498TIP3   OH234984   5.095   0.116   0.615 -0.1656 -0.1069 -0.0317
 4498TIP3    H134985   5.149   0.155   0.683 -0.2257 -0.7844  0.4088
 4498TIP3    H234986   5.040   0.053   0.661 -0.2254 -0.5503 -0.7013
 4499TIP3   OH234987   5.795   2.241   0.357  0.3839  0.4698 -0.1882
 4499TIP3    H134988   5.842   2.187   0.420 -0.1079  0.9763  0.6215
 4499TIP3    H234989   5.852   2.242   0.280  0.4518 -1.1193 -0.1962
 4500TIP3   OH234990   4.214   1.469   2.818 -0.1071  0.2994  0.1997
 4500TIP3    H134991   4.267   1.547   2.802  0.7498 -0.4900 -1.0128
 4500TIP3    H234992   4.177   1.483   2.905  0.4978  1.7795  0.2558
 4501TIP3   OH234993   3.677   3.027  13.258 -0.2672  0.7081  0.4879
 4501TIP3    H134994   3.747   3.091  13.268 -0.2272  0.6329  0.6928
 4501TIP3    H234995   3.606   3.058  13.315 -0.1208  0.3949  0.8447
 4502TIP3   OH234996   6.381   2.829  12.334  0.0660 -0.0414 -0.1496
 4502TIP3    H134997   6.450   2.821  12.268  1.2425 -0.6835  1.0882
 4502TIP3    H234998   6.299   2.818  12.286  0.8408  0.2397 -1.5944
 4503TIP3   OH234999   2.325   3.432  13.283 -0.5562  0.1134 -0.1988
 4503TIP3    H135000   2.368   3.518  13.280 -0.7458  0.1965 -2.4613
 4503TIP3    H235001   2.359   3.391  13.362  0.3377  1.8678  0.3936
 4504TIP3   OH235002   0.515   3.205  12.906 -0.4095  0.0602 -0.1198
 4504TIP3    H135003   0.477   3.130  12.952 -0.1227 -1.7961 -2.7537
 4504TIP3    H235004   0.449   3.229  12.841 -0.5282  2.2429  0.7048
 4505TIP3   OH235005   2.978   4.979   3.457  0.1556 -0.0704  0.2572
 4505TIP3    H135006   3.069   5.005   3.443  0.1408 -0.5187 -0.7847
 4505TIP3    H235007   2.936   5.055   3.497  1.0384  0.0553  0.9578
 4506TIP3   OH235008   2.556   5.322   5.152 -0.7554 -0.4466  0.1576
 4506TIP3    H135009   2.510   5.369   5.082 -1.3880 -0.3059  0.6554
 4506TIP3    H235010   2.583   5.240   5.112 -1.5623 -0.5881 -0.1285
 4507TIP3   OH235011   1.175   2.370  16.079  0.0910  0.3076  0.4306
 4507TIP3    H135012   1.207   2.450  16.037 -2.0020  1.7592  1.4009
 4507TIP3    H235013   1.239   2.303  16.056 -0.3400  1.1765 -4.1128
 4508TIP3   OH235014   4.969   1.375   4.277 -0.2494 -0.3836  0.4867
 4508TIP3    H135015   4.941   1.425   4.354 -1.4266  0.2506 -0.3393
 4508TIP3    H235016   4.897   1.316   4.259  0.4519 -1.2527  0.4588
 4509TIP3   OH235017   3.777   2.910   0.464  0.1608  0.1242  0.4692
 4509TIP3    H135018   3.758   2.899   0.371  1.9472 -0.8178  0.1555
 4509TIP3    H235019   3.866   2.876   0.474  0.0173  0.2194  2.5261
 4510TIP3   OH235020   2.652   6.450  15.633 -0.3235 -0.3082  0.2084
 4510TIP3    H135021   2.694   6.408  15.558 -0.5591  0.6572 -0.4825
 4510TIP3    H235022   2.669   6.543  15.622  0.6588 -0.2212  1.9994
 4511TIP3   OH235023   6.810   3.612  16.380  0.2537 -0.0738  0.1169
 4511TIP3    H135024   6.743   3.547  16.403  1.7389 -0.7967  2.8257
 4511TIP3    H235025   6.872   3.563  16.326 -0.7845  0.3338 -1.5351
 4512TIP3   OH235026   5.590   3.416  14.160 -0.6494 -0.1780 -0.3000
 4512TIP3    H135027   5.553   3.370  14.085 -0.1069 -1.3771  0.1503
 4512TIP3    H235028   5.620   3.500  14.124  0.0699 -0.9340 -1.5272
 4513TIP3   OH235029   2.146   1.292  14.684 -0.1521 -0.2826  0.3947
 4513TIP3    H135030   2.074   1.299  14.622  1.7693 -1.9831 -2.2477
 4513TIP3    H235031   2.198   1.371  14.669  0.2073 -0.6009 -0.1040
 4514TIP3   OH235032   3.627   5.360  12.293 -0.1899  0.2732  0.4415
 4514TIP3    H135033   3.642   5.417  12.369  1.3543  0.9425 -0.3281
 4514TIP3    H235034   3.539   5.383  12.263  1.1321  3.9671 -1.1812
 4515TIP3   OH235035   2.319   4.126   0.340  0.6039  0.4306  0.3743
 4515TIP3    H135036   2.290   4.120   0.431 -1.7769  1.2665 -0.2661
 4515TIP3    H235037   2.388   4.192   0.341  0.0533  1.0150  1.4579
 4516TIP3   OH235038   0.357   2.881   2.077 -0.4257  0.1113 -0.4077
 4516TIP3    H135039   0.417   2.808   2.093 -1.3047 -0.6631 -0.5273
 4516TIP3    H235040   0.285   2.842   2.026 -1.1028  0.9737 -0.1410
 4517TIP3   OH235041   0.589   4.603  10.571 -0.5101  0.3756  0.0736
 4517TIP3    H135042   0.497   4.628  10.575  0.1021  3.4022 -1.3386
 4517TIP3    H235043   0.591   4.526  10.514 -2.3294 -1.4598  2.2922
 4518TIP3   OH235044   1.229   5.068  13.882 -0.0519  0.1816 -0.4993
 4518TIP3    H135045   1.275   5.131  13.827  1.2045 -1.2620 -1.1937
 4518TIP3    H235046   1.199   5.001  13.821  0.8933 -1.1811  0.4527
 4519TIP3   OH235047   3.731   0.870  11.972  0.0452 -0.5136 -0.0989
 4519TIP3    H135048   3.644   0.866  11.933  0.3140  1.3668 -1.0430
 4519TIP3    H235049   3.743   0.785  12.014 -1.6050 -1.3880 -1.2802
 4520TIP3   OH235050   3.095   4.338   5.684 -0.4318  0.5582 -0.4501
 4520TIP3    H135051   3.126   4.280   5.614 -1.7048  0.5116 -1.0141
 4520TIP3    H235052   3.174   4.366   5.729  0.3601 -0.0438 -1.4205
 4521TIP3   OH235053   1.235   1.762  12.628 -0.1322  0.4033 -0.0551
 4521TIP3    H135054   1.280   1.712  12.561  0.1146  1.1366 -0.4477
 4521TIP3    H235055   1.157   1.797  12.584 -0.0670  0.7331  0.0861
 4522TIP3   OH235056   5.579   3.799   3.922 -0.1763 -0.2269  0.0886
 4522TIP3    H135057   5.531   3.879   3.898  0.0345  0.6040  2.2057
 4522TIP3    H235058   5.609   3.763   3.839  0.2662  2.2496 -0.9079
 4523TIP3   OH235059   0.372   0.009  16.876 -0.3150  0.2322 -0.3461
 4523TIP3    H135060   0.297  -0.021  16.825 -0.6803  2.7662 -1.4596
 4523TIP3    H235061   0.340   0.086  16.924  1.2358  0.6536  0.1000
 4524TIP3   OH235062   4.966   4.209   4.818 -0.0443  0.1717 -0.1189
 4524TIP3    H135063   5.054   4.173   4.814 -0.2533 -0.4226  0.5370
 4524TIP3    H235064   4.921   4.156   4.883 -0.7580  0.7529 -0.1249
 4525TIP3   OH235065   1.878   5.194   2.298  0.3651  0.6305 -0.0286
 4525TIP3    H135066   1.942   5.263   2.317  1.0656  0.6697 -2.2918
 4525TIP3    H235067   1.870   5.146   2.380  1.2588  2.2644  1.0746
 4526TIP3   OH235068   0.298   6.181   1.287  0.4911  0.0032 -0.0766
 4526TIP3    H135069   0.393   6.191   1.295  0.2329  1.6505  1.4945
 4526TIP3    H235070   0.271   6.251   1.228 -0.2835  3.2913  3.7944
 4527TIP3   OH235071   5.486   6.763   6.027 -0.5214 -0.2155  0.0122
 4527TIP3    H135072   5.550   6.766   6.098  1.4071 -0.4039 -1.6334
 4527TIP3    H235073   5.416   6.707   6.061  0.5564 -0.6736  1.5973
 4528TIP3   OH235074   1.335   5.353  11.645  0.0602 -0.2824  0.1608
 4528TIP3    H135075   1.421   5.389  11.622 -0.8056  1.1393 -1.0368
 4528TIP3    H235076   1.326   5.275  11.591 -0.6925  1.3628 -2.2474
 4529TIP3   OH235077   0.385   5.597  11.577 -0.3714  0.2784  0.6334
 4529TIP3    H135078   0.412   5.514  11.539  0.1712  0.5325  0.4497
 4529TIP3    H235079   0.449   5.615  11.645 -0.4396  0.5770  0.6239
 4530TIP3   OH235080   6.576   3.747   1.416 -0.3162 -0.0869  0.1296
 4530TIP3    H135081   6.554   3.777   1.504 -3.7545 -1.6375 -0.0405
 4530TIP3    H235082   6.605   3.657   1.428  2.1514  0.5805 -0.1492
 4531TIP3   OH235083   5.736   3.298   1.651  0.2186 -0.0837 -0.6344
 4531TIP3    H135084   5.670   3.229   1.648  0.1963 -0.2567  1.6055
 4531TIP3    H235085   5.819   3.251   1.661  0.3030  0.1766 -0.0584
 4532TIP3   OH235086   1.117   0.185  16.934 -0.3686  0.1388 -0.1647
 4532TIP3    H135087   1.186   0.215  16.994  0.1917 -1.1149 -0.1446
 4532TIP3    H235088   1.058   0.260  16.926  0.7357  1.0820  0.1959
 4533TIP3   OH235089   1.171   4.641   0.710  0.2360 -0.0255  0.3270
 4533TIP3    H135090   1.201   4.594   0.632 -0.1991  1.3701 -0.7255
 4533TIP3    H235091   1.159   4.732   0.680 -0.8329  0.3547  1.7910
 4534TIP3   OH235092   3.246   4.736   3.896 -0.3533 -0.5994  0.4785
 4534TIP3    H135093   3.298   4.814   3.878  0.1331 -0.9727  0.2263
 4534TIP3    H235094   3.311   4.668   3.916 -0.5979 -1.5806 -1.7431
 4535TIP3   OH235095   2.905   3.984  11.450  0.6889  0.2197 -0.2023
 4535TIP3    H135096   2.902   4.033  11.368  0.4481  0.9975  0.2536
 4535TIP3    H235097   2.815   3.989  11.484  1.1331  1.3847  0.9249
 4536TIP3   OH235098   5.157   1.075  12.876 -0.0303  0.0360 -0.5252
 4536TIP3    H135099   5.220   1.139  12.908 -0.5717  0.3237 -0.0172
 4536TIP3    H235100   5.175   1.068  12.782  0.7737  0.0858 -0.3830
 4537TIP3   OH235101   2.703   2.034  15.774  0.8986 -0.0729 -0.1256
 4537TIP3    H135102   2.781   2.064  15.819 -0.4684  0.5594  1.9834
 4537TIP3    H235103   2.719   1.941  15.757  2.4125  0.2310 -0.5273
 4538TIP3   OH235104   2.194   2.042  14.006  0.3916  0.4120 -0.2168
 4538TIP3    H135105   2.201   1.969  14.067 -0.2575  0.6394  0.1400
 4538TIP3    H235106   2.158   2.004  13.926 -0.7936  0.4827  0.2609
 4539TIP3   OH235107   4.766   6.258   2.842 -0.1459  0.4549 -0.0349
 4539TIP3    H135108   4.797   6.233   2.755 -0.4945 -0.2050  0.0198
 4539TIP3    H235109   4.817   6.335   2.865  0.3793  0.2754 -0.5718
 4540TIP3   OH235110   1.310   4.457   4.741  0.5796 -0.3460 -0.2225
 4540TIP3    H135111   1.268   4.538   4.712  1.3953 -0.4816 -1.8944
 4540TIP3    H235112   1.350   4.479   4.825 -1.2417  0.2823  0.5279
 4541TIP3   OH235113   5.077   3.493  12.362 -0.1331  0.0722  0.0310
 4541TIP3    H135114   5.106   3.578  12.394 -0.8787  0.4837 -0.3470
 4541TIP3    H235115   5.015   3.463  12.429  0.1918 -0.2197  0.2067
 4542TIP3   OH235116   0.327   5.987   5.883 -0.5835  0.1660  0.7192
 4542TIP3    H135117   0.312   5.943   5.967  0.4497 -0.6126  0.5104
 4542TIP3    H235118   0.311   6.080   5.901  1.3365  0.2481  2.2349
 4543TIP3   OH235119   4.353   5.848  12.089  0.3983 -0.4487  0.0756
 4543TIP3    H135120   4.278   5.807  12.047  1.1141 -0.8795 -0.8370
 4543TIP3    H235121   4.387   5.910  12.024  1.8963 -1.5797 -0.3076
 4544TIP3   OH235122   1.676   6.114   2.618  0.4305  0.2033  0.1147
 4544TIP3    H135123   1.616   6.184   2.594 -0.1967 -0.1950  0.5090
 4544TIP3    H235124   1.753   6.130   2.563  0.7367  1.8216  0.9395
 4545TIP3   OH235125   5.087   5.480  10.571  0.8283 -0.6590 -0.1388
 4545TIP3    H135126   5.173   5.485  10.528  0.4119 -0.3951 -0.9615
 4545TIP3    H235127   5.070   5.387  10.580  0.5872 -0.7438 -1.2715
 4546TIP3   OH235128   3.675   5.341   6.050 -0.6109  0.4091  0.8088
 4546TIP3    H135129   3.752   5.333   5.993  1.0041  1.7798  2.6425
 4546TIP3    H235130   3.657   5.252   6.079 -0.7037 -0.1410 -0.8356
 4547TIP3   OH235131   1.608   6.711   0.071 -0.1110  0.0994  0.3085
 4547TIP3    H135132   1.701   6.688   0.073 -0.5724 -1.9859  0.1235
 4547TIP3    H235133   1.576   6.691   0.158 -0.2080  1.8491  0.7121
 4548TIP3   OH235134   3.330   5.010   1.306  0.0238  0.0906  0.2642
 4548TIP3    H135135   3.342   4.932   1.360  1.3728 -0.7721 -1.1996
 4548TIP3    H235136   3.412   5.060   1.317  0.4429 -0.2419 -1.1503
 4549TIP3   OH235137   6.237   6.615   3.778  0.5345 -0.1616  0.9166
 4549TIP3    H135138   6.258   6.702   3.813  1.4715  0.6220 -1.3817
 4549TIP3    H235139   6.152   6.627   3.736  0.4936 -0.4464  0.9204
 4550TIP3   OH235140   4.445   1.389   2.172 -0.2675 -0.2499 -0.3473
 4550TIP3    H135141   4.410   1.397   2.261  1.1613  0.1466  0.2061
 4550TIP3    H235142   4.534   1.424   2.178  0.6854 -2.3160 -1.3985
 4551TIP3   OH235143   3.910   0.131  14.051 -0.2576  0.2342 -0.6905
 4551TIP3    H135144   3.918   0.036  14.049 -1.2072  0.1186  0.2215
 4551TIP3    H235145   3.865   0.153  13.970  0.0814 -0.0806 -0.9654
 4552TIP3   OH235146   1.473   2.727  11.668 -0.1706 -0.1520  0.3528
 4552TIP3    H135147   1.405   2.713  11.733 -0.7842  0.5012 -0.1292
 4552TIP3    H235148   1.529   2.649  11.674 -0.4343 -0.2723  1.3787
 4553TIP3   OH235149   0.119   1.336   0.688 -0.3972 -0.4018  0.0195
 4553TIP3    H135150   0.042   1.375   0.647 -0.8164 -0.2301  0.9295
 4553TIP3    H235151   0.190   1.397   0.671 -1.0043  0.7152  1.2711
 4554TIP3   OH235152   2.794   2.668  15.934  0.0964  0.4217 -0.4226
 4554TIP3    H135153   2.775   2.611  15.859  0.2878  1.7860 -1.5450
 4554TIP3    H235154   2.832   2.609  15.999  0.3129 -0.7290 -1.5421
 4555TIP3   OH235155   4.867   4.310   5.766  0.2997 -0.0647  0.3332
 4555TIP3    H135156   4.904   4.398   5.769 -0.0641  0.0675  0.9975
 4555TIP3    H235157   4.833   4.295   5.854 -0.9324 -0.3116 -0.1734
 4556TIP3   OH235158   0.520   5.790  13.747  0.4194 -0.4847 -0.2834
 4556TIP3    H135159   0.454   5.857  13.764  1.1572  0.2209 -0.1618
 4556TIP3    H235160   0.522   5.739  13.828 -0.1517 -0.6752 -0.3817
 4557TIP3   OH235161   5.859   5.098  16.360  0.5909 -0.0213 -0.6509
 4557TIP3    H135162   5.912   5.145  16.424 -1.2440 -0.5849  1.3826
 4557TIP3    H235163   5.916   5.027  16.328  1.1678 -0.4886  1.3089
 4558TIP3   OH235164   2.484   6.302   2.497 -0.1241 -0.0073 -0.3541
 4558TIP3    H135165   2.393   6.318   2.520  0.0219 -1.1188  1.1662
 4558TIP3    H235166   2.534   6.328   2.575  0.7394 -0.4948 -0.7271
 4559TIP3   OH235167   6.394   4.933   6.401 -0.1752 -0.0070 -0.5218
 4559TIP3    H135168   6.369   4.841   6.394  2.2368 -1.3595  4.4819
 4559TIP3    H235169   6.330   4.970   6.462  0.5873  0.8587 -0.2356
 4560TIP3   OH235170   6.434   0.319   3.392  0.1183  0.0593  0.4859
 4560TIP3    H135171   6.384   0.341   3.313  1.4272  0.4457 -0.2657
 4560TIP3    H235172   6.511   0.272   3.360  0.0624 -0.8584  1.6457
 4561TIP3   OH235173   2.176   0.105  11.983 -0.0545  0.6571 -0.2667
 4561TIP3    H135174   2.084   0.092  11.962 -0.4490  1.7861  0.6782
 4561TIP3    H235175   2.182   0.086  12.077  0.7476  0.2777 -0.3795
 4562TIP3   OH235176   5.756   4.484  12.894 -0.4121 -0.3115  0.1207
 4562TIP3    H135177   5.728   4.564  12.938 -0.1998  0.4715 -1.1401
 4562TIP3    H235178   5.835   4.509  12.846 -1.0051 -0.9737 -1.2382
 4563TIP3   OH235179   2.815   2.854   5.494  0.0726 -0.4753 -0.1510
 4563TIP3    H135180   2.898   2.805   5.500 -0.2059 -1.0213 -0.6939
 4563TIP3    H235181   2.799   2.862   5.400 -1.5537 -2.2298 -0.0931
 4564TIP3   OH235182   1.892   1.558  14.153 -0.3088 -0.1507  0.1099
 4564TIP3    H135183   1.948   1.527  14.083 -1.4319 -0.4582 -0.6739
 4564TIP3    H235184   1.950   1.566  14.229  0.7711 -0.4842 -0.6672
 4565TIP3   OH235185   2.443   3.686   1.935  0.1912 -0.2296  0.3891
 4565TIP3    H135186   2.401   3.603   1.911  0.3017 -0.8560  2.1849
 4565TIP3    H235187   2.512   3.697   1.870 -0.3099 -1.1546 -0.3361
 4566TIP3   OH235188   5.371   0.794   2.012 -0.8292 -0.3472  0.8439
 4566TIP3    H135189   5.310   0.728   2.045 -2.3683  0.7482  0.3173
 4566TIP3    H235190   5.321   0.876   2.015  0.8013  0.6902  0.8544
 4567TIP3   OH235191   1.135   0.510  12.155  0.2203 -0.2845 -0.0293
 4567TIP3    H135192   1.055   0.525  12.207 -0.7242 -0.8295 -1.2725
 4567TIP3    H235193   1.125   0.421  12.121  1.7357 -0.6466  0.3912
 4568TIP3   OH235194   1.840   2.926  15.219 -0.2953 -0.2186  0.0416
 4568TIP3    H135195   1.769   2.935  15.155 -1.8848  2.3929  1.9334
 4568TIP3    H235196   1.913   2.976  15.182 -1.3723  1.7205  0.3812
 4569TIP3   OH235197   6.732   5.385  13.895 -0.3280  0.4976 -0.2286
 4569TIP3    H135198   6.644   5.347  13.895 -0.1472  0.0082 -1.8041
 4569TIP3    H235199   6.717   5.480  13.902 -0.9358  0.3639  0.3406
 4570TIP3   OH235200   6.125   6.820  13.409 -0.5412 -0.0784 -0.9661
 4570TIP3    H135201   6.130   6.775  13.493 -1.4614  1.1538 -0.2119
 4570TIP3    H235202   6.044   6.788  13.369 -1.3372  1.0516 -0.3100
 4571TIP3   OH235203   2.574   6.255  12.560 -0.6051 -0.2283  0.3947
 4571TIP3    H135204   2.498   6.204  12.535 -0.1418 -1.1590  0.8442
 4571TIP3    H235205   2.643   6.227  12.499 -0.2566 -0.3857  0.8571
 4572TIP3   OH235206   3.650   5.232  15.978 -0.2192  0.2099  0.2088
 4572TIP3    H135207   3.603   5.293  16.035 -3.3402 -1.1704 -0.6989
 4572TIP3    H235208   3.652   5.274  15.893 -4.0159 -1.4469 -0.9008
 4573TIP3   OH235209   2.674   4.801  15.693 -0.0388  0.6189  0.4626
 4573TIP3    H135210   2.619   4.876  15.670 -1.9393  0.1573  3.0402
 4573TIP3    H235211   2.738   4.837  15.755  0.0160  0.4110  0.5252
 4574TIP3   OH235212   3.859   4.918  13.608 -0.0409  0.5605  0.1186
 4574TIP3    H135213   3.948   4.890  13.631 -0.1484 -1.7371 -1.8542
 4574TIP3    H235214   3.816   4.838  13.578 -2.1978  1.9595 -0.7394
 4575TIP3   OH235215   6.222   1.546  15.276 -0.4736  0.0448  0.1826
 4575TIP3    H135216   6.211   1.631  15.232 -0.4427 -0.8092 -1.5351
 4575TIP3    H235217   6.315   1.527  15.268 -0.5268 -0.2730  0.3355
 4576TIP3   OH235218   5.661   2.135  13.390 -0.2151 -0.1234  0.6441
 4576TIP3    H135219   5.689   2.164  13.304 -1.0177 -1.3309 -0.0535
 4576TIP3    H235220   5.637   2.043  13.378 -1.5467  0.0242  1.8699
 4577TIP3   OH235221   3.940   5.342  16.678  0.1223 -0.1068  0.1091
 4577TIP3    H135222   3.957   5.260  16.724  3.3813  0.7069  0.5782
 4577TIP3    H235223   3.849   5.334  16.649 -1.2079 -1.9517  4.0313
 4578TIP3   OH235224   0.725   2.047   3.609 -0.3714  0.1305  0.1140
 4578TIP3    H135225   0.676   2.125   3.634  0.4537  0.3735  1.0735
 4578TIP3    H235226   0.804   2.051   3.663  1.0879  0.1619 -1.9329
 4579TIP3   OH235227   6.726   2.154  11.209 -0.2462 -0.3220  0.0093
 4579TIP3    H135228   6.659   2.088  11.194 -0.7650  0.4141 -1.0416
 4579TIP3    H235229   6.787   2.113  11.271 -0.6100 -1.7261 -0.5249
 4580TIP3   OH235230   4.533   1.620  12.322 -0.3841  0.4654 -0.8017
 4580TIP3    H135231   4.595   1.688  12.295 -0.0220 -0.3426 -2.0691
 4580TIP3    H235232   4.508   1.576  12.241 -0.9258 -0.6596 -0.0576
 4581TIP3   OH235233   4.501   2.009  11.790  0.1354  0.4356  0.6086
 4581TIP3    H135234   4.514   2.018  11.696 -0.1475 -0.7279  0.4392
 4581TIP3    H235235   4.415   2.048  11.807 -0.3810 -0.4792  0.1650
 4582TIP3   OH235236   6.653   5.118   2.893 -0.7330 -0.4633  0.3610
 4582TIP3    H135237   6.664   5.190   2.955 -0.7278  1.3906 -1.6554
 4582TIP3    H235238   6.559   5.116   2.876 -0.7090 -0.8122  0.2711
 4583TIP3   OH235239   1.006   2.490   2.875 -0.7531  0.1941 -0.0040
 4583TIP3    H135240   1.047   2.455   2.954  1.7938 -0.1675 -1.4089
 4583TIP3    H235241   1.006   2.417   2.813 -1.1914  0.9378 -0.9089
 4584TIP3   OH235242   6.149   3.577   1.935  0.2370  0.1690  0.1340
 4584TIP3    H135243   6.131   3.523   2.012  0.2809  0.2662  0.2123
 4584TIP3    H235244   6.065   3.618   1.914  0.6261  1.5898  1.2393
 4585TIP3   OH235245   1.308   6.308   1.259  0.5816 -0.4951  0.1661
 4585TIP3    H135246   1.236   6.332   1.317  1.6799  0.5474  1.1568
 4585TIP3    H235247   1.369   6.258   1.314  0.1856 -2.2638 -0.9064
 4586TIP3   OH235248   3.672   5.246   5.069  0.4930 -0.2902  0.1313
 4586TIP3    H135249   3.609   5.177   5.049  0.7077 -0.7859  1.1389
 4586TIP3    H235250   3.733   5.245   4.995 -0.2674 -0.2693 -0.5089
 4587TIP3   OH235251   6.241   6.827  15.114  0.0691  0.1300 -0.7930
 4587TIP3    H135252   6.156   6.788  15.134  0.5817 -1.0331 -0.7751
 4587TIP3    H235253   6.300   6.790  15.180  0.7929  0.0737 -1.4576
 4588TIP3   OH235254   0.820   3.643   4.721 -0.3639  0.1619  0.2150
 4588TIP3    H135255   0.864   3.663   4.638 -0.6268 -0.7035 -0.1490
 4588TIP3    H235256   0.849   3.555   4.743 -0.5414  0.2637  0.8924
 4589TIP3   OH235257   1.227   5.221   4.735 -0.1192  0.1047 -0.3556
 4589TIP3    H135258   1.279   5.299   4.755  0.4107  0.0965 -1.5529
 4589TIP3    H235259   1.259   5.154   4.796  1.9589 -0.1495 -1.6149
 4590TIP3   OH235260   3.683   4.490  15.928 -0.1342  0.1241  0.1545
 4590TIP3    H135261   3.742   4.450  15.864 -1.5576 -2.2236  0.2176
 4590TIP3    H235262   3.693   4.437  16.007 -0.3985  1.3298  1.0338
 4591TIP3   OH235263   6.266   3.939  11.290  0.1101  0.5372 -0.0762
 4591TIP3    H135264   6.350   3.899  11.314 -0.9350 -0.6673  1.7499
 4591TIP3    H235265   6.208   3.920  11.364 -1.9748  0.7917 -1.5681
 4592TIP3   OH235266   4.606   4.546  15.524 -0.0422 -0.0642  0.1112
 4592TIP3    H135267   4.645   4.632  15.537  2.4866 -0.8264 -1.6084
 4592TIP3    H235268   4.519   4.564  15.488 -0.2399  1.7399  1.3605
 4593TIP3   OH235269   2.838   0.278  14.824  0.9651 -0.8729  0.3047
 4593TIP3    H135270   2.871   0.311  14.907 -2.0331  2.2157  0.4591
 4593TIP3    H235271   2.772   0.213  14.848 -0.9650  1.0782  0.5102
 4594TIP3   OH235272   5.978   1.222   3.435 -0.8969  0.1742 -0.0164
 4594TIP3    H135273   5.985   1.271   3.517 -2.4397  0.8436 -0.2542
 4594TIP3    H235274   5.996   1.131   3.460 -0.2165  0.5364  0.8477
 4595TIP3   OH235275   0.617   3.920  13.177  0.3344  0.6804  0.3858
 4595TIP3    H135276   0.611   3.831  13.211  1.2753  0.3866 -0.1694
 4595TIP3    H235277   0.537   3.931  13.125  2.3462 -1.7562 -3.8275
 4596TIP3   OH235278   1.922   0.534  16.270  0.4160 -0.2930 -0.6525
 4596TIP3    H135279   1.995   0.581  16.230  0.5089  1.0074  0.9398
 4596TIP3    H235280   1.845   0.590  16.254  0.2454 -0.3638 -0.1309
 4597TIP3   OH235281   2.580   2.513   3.414 -0.4865 -0.1244  0.8342
 4597TIP3    H135282   2.485   2.528   3.416 -0.3618  0.7555  0.3228
 4597TIP3    H235283   2.613   2.562   3.490 -0.3846 -0.0279  0.7269
 4598TIP3   OH235284   6.253   1.363  11.681  0.1628 -0.1531 -0.2439
 4598TIP3    H135285   6.190   1.409  11.625  0.3174  0.2068 -0.1299
 4598TIP3    H235286   6.274   1.427  11.750  1.7190  0.2500 -1.0493
 4599TIP3   OH235287   4.430   3.201   1.394  0.0739  0.0571 -1.0419
 4599TIP3    H135288   4.486   3.141   1.346 -0.3323  0.1200 -1.5896
 4599TIP3    H235289   4.358   3.222   1.335  0.2992  1.2237 -0.9388
 4600TIP3   OH235290   4.551   5.450   6.419 -0.5342 -0.4638 -0.1978
 4600TIP3    H135291   4.522   5.363   6.449 -0.0618 -0.6788 -0.3684
 4600TIP3    H235292   4.470   5.501   6.415 -0.8255 -0.9117 -0.1491
 4601TIP3   OH235293   1.001   1.991   3.364  0.0132  0.0011  0.2120
 4601TIP3    H135294   1.008   1.896   3.359  0.2601  0.0508 -0.3639
 4601TIP3    H235295   1.036   2.013   3.451  0.7448 -0.3530  0.0090
 4602TIP3   OH235296   0.063   0.924  12.910  0.1789 -0.1731 -0.2006
 4602TIP3    H135297  -0.007   0.960  12.856  1.2717  0.6837 -1.1078
 4602TIP3    H235298   0.138   0.919  12.851  1.2017  0.0617  1.0342
 4603TIP3   OH235299   4.268   3.377   2.836  0.3776 -0.5374 -0.0986
 4603TIP3    H135300   4.352   3.410   2.804  0.0425  0.6275  0.2081
 4603TIP3    H235301   4.209   3.452   2.833 -0.5896 -1.2668 -0.0296
 4604TIP3   OH235302   2.042   3.293  12.312 -0.2716  0.4245  0.6345
 4604TIP3    H135303   1.992   3.359  12.264  1.2231  0.6046 -0.7778
 4604TIP3    H235304   2.117   3.341  12.347  0.2091 -0.2881  0.6049
 4605TIP3   OH235305   0.115   0.329   4.362 -0.1050 -0.5848 -0.4130
 4605TIP3    H135306   0.041   0.349   4.304  0.2763 -0.3787 -0.8313
 4605TIP3    H235307   0.074   0.291   4.439 -0.6196 -0.8654 -0.8157
 4606TIP3   OH235308   0.107   4.284   5.938  0.4075 -0.3434  0.1619
 4606TIP3    H135309   0.133   4.365   5.983  0.0484 -0.3576  0.3962
 4606TIP3    H235310   0.190   4.240   5.920  0.6709  0.5169 -0.8210
 4607TIP3   OH235311   1.174   2.048  11.353 -0.1098 -0.3072  0.1622
 4607TIP3    H135312   1.231   1.976  11.325 -1.6177 -1.0416 -1.2100
 4607TIP3    H235313   1.219   2.087  11.428  2.4070 -0.5267 -1.1321
 4608TIP3   OH235314   1.078   5.724  11.569 -0.3916  0.6747 -0.1288
 4608TIP3    H135315   1.111   5.803  11.611 -1.2450  1.2615 -0.5374
 4608TIP3    H235316   1.012   5.755  11.507  1.9234  0.0169 -3.1522
 4609TIP3   OH235317   1.067   4.541  14.878  0.0770  0.4540  0.2683
 4609TIP3    H135318   0.996   4.540  14.815  0.7345  2.6102 -0.6070
 4609TIP3    H235319   1.055   4.461  14.930 -1.2415 -0.7176 -1.7161
 4610TIP3   OH235320   0.270   0.508   4.780  0.7108  0.2401  0.9818
 4610TIP3    H135321   0.329   0.579   4.805  1.3548 -0.2643  0.9312
 4610TIP3    H235322   0.323   0.451   4.724  0.2175 -0.2958  1.0448
 4611TIP3   OH235323   3.477   2.763  16.022  0.0732  0.4596 -0.2904
 4611TIP3    H135324   3.394   2.798  15.990 -0.8522  0.4989  1.9437
 4611TIP3    H235325   3.506   2.703  15.954 -1.4095  1.0140 -1.4629
 4612TIP3   OH235326   0.394   5.301   0.205 -0.0205  0.5777 -0.6845
 4612TIP3    H135327   0.357   5.356   0.274  1.0418  1.8214 -1.0590
 4612TIP3    H235328   0.488   5.306   0.218  0.1662  0.3099 -1.8327
 4613TIP3   OH235329   2.467   6.618  16.639 -0.0160 -0.5133  0.4959
 4613TIP3    H135330   2.424   6.699  16.666 -0.4764 -0.0537 -1.4664
 4613TIP3    H235331   2.551   6.619  16.685 -0.6925  0.2478  1.7667
 4614TIP3   OH235332   6.629   5.072  15.028  0.1970  0.4087 -0.1089
 4614TIP3    H135333   6.550   5.107  14.986 -0.5527  0.7801  1.5211
 4614TIP3    H235334   6.697   5.136  15.006 -0.0408  0.3413 -1.1278
 4615TIP3   OH235335   6.092   3.832   2.117 -0.0384 -0.4304  0.3925
 4615TIP3    H135336   6.099   3.928   2.125 -0.1960 -0.3760 -0.0457
 4615TIP3    H235337   6.027   3.819   2.048  1.7320 -0.8063 -1.3323
 4616TIP3   OH235338   0.231   4.597  11.405 -0.1323 -0.3573  0.0708
 4616TIP3    H135339   0.213   4.514  11.450  0.7181 -0.7199 -0.2483
 4616TIP3    H235340   0.288   4.645  11.466  1.1688 -0.9214 -0.6651
 4617TIP3   OH235341   0.076   1.237   2.616  0.8624 -0.7347 -0.4013
 4617TIP3    H135342   0.080   1.308   2.680 -1.7561 -1.9790  1.3120
 4617TIP3    H235343   0.107   1.276   2.535  0.5982  2.0362  0.7176
 4618TIP3   OH235344   3.470   0.910   5.010  0.2159 -0.3012  0.3407
 4618TIP3    H135345   3.486   0.941   5.099  0.1801 -2.4318  1.1529
 4618TIP3    H235346   3.375   0.914   4.999  0.2821  0.7032  0.0987
 4619TIP3   OH235347   0.840   2.190  12.746  0.3974 -0.2311 -0.2520
 4619TIP3    H135348   0.818   2.128  12.815  1.2493 -0.2969 -0.0366
 4619TIP3    H235349   0.756   2.232  12.724 -0.0836 -1.0341  0.0028
 4620TIP3   OH235350   1.499   5.551   0.698  0.0443  0.0680 -0.2222
 4620TIP3    H135351   1.572   5.521   0.752 -1.9259 -1.5506  1.7259
 4620TIP3    H235352   1.503   5.499   0.619 -0.1121 -1.4785  0.7518
 4621TIP3   OH235353   2.026   4.854   0.815 -0.3693 -0.0396 -0.2970
 4621TIP3    H135354   1.997   4.900   0.895 -1.4144  0.5883 -1.0140
 4621TIP3    H235355   1.990   4.766   0.824 -0.7734  0.1300 -0.2342
 4622TIP3   OH235356   0.835   5.167   1.193  0.1386  0.4766 -0.0067
 4622TIP3    H135357   0.902   5.126   1.246  0.3715  1.7720  0.7421
 4622TIP3    H235358   0.764   5.103   1.190  1.4576 -0.9995 -0.9994
 4623TIP3   OH235359   4.526   0.654   1.708  0.3166  0.3986 -0.0597
 4623TIP3    H135360   4.568   0.690   1.786  0.8622  0.2401 -0.2762
 4623TIP3    H235361   4.511   0.729   1.651  1.5019  0.2975 -0.5351
 4624TIP3   OH235362   0.233   0.206  14.871 -0.1845 -0.4942 -0.0097
 4624TIP3    H135363   0.249   0.214  14.777  0.1182 -2.0275 -0.1209
 4624TIP3    H235364   0.193   0.119  14.881  0.6973 -0.7771  1.3788
 4625TIP3   OH235365   4.985   5.910  11.607  0.5276 -0.2251  0.1525
 4625TIP3    H135366   4.929   5.851  11.658 -1.6544  1.5710 -0.0224
 4625TIP3    H235367   4.925   5.975  11.571  2.6105  1.1418 -1.0492
 4626TIP3   OH235368   3.084   5.897  11.284  0.0086  0.1006 -0.4647
 4626TIP3    H135369   3.177   5.919  11.284  0.3853 -1.3854 -0.4097
 4626TIP3    H235370   3.052   5.929  11.200  0.9061 -0.6034 -1.1047
 4627TIP3   OH235371   4.561   4.228   5.339  0.0422  0.2883 -0.4354
 4627TIP3    H135372   4.633   4.197   5.393  0.7035 -0.4081 -1.6507
 4627TIP3    H235373   4.515   4.292   5.393  0.5796 -0.4776  0.9684
 4628TIP3   OH235374   3.649   4.240  11.377  0.5877  0.1263  0.9264
 4628TIP3    H135375   3.612   4.159  11.340 -0.6548  0.1243  2.0746
 4628TIP3    H235376   3.585   4.308  11.353 -0.1118  0.1689  2.7579
 4629TIP3   OH235377   4.256   6.697  15.524  0.4008 -0.0831 -0.1415
 4629TIP3    H135378   4.247   6.771  15.585  0.4151  0.0808 -0.3351
 4629TIP3    H235379   4.166   6.680  15.495  0.6914  2.0094 -2.6015
 4630TIP3   OH235380   5.729   6.833   6.168  0.3567  0.2788 -0.0423
 4630TIP3    H135381   5.720   6.926   6.146  2.3390  0.4473 -0.3431
 4630TIP3    H235382   5.760   6.833   6.259 -1.4414 -0.1946  0.6139
 4631TIP3   OH235383   3.716   1.654   0.935 -0.5504 -0.0529 -0.5621
 4631TIP3    H135384   3.676   1.739   0.952 -0.5245 -0.5165  2.1287
 4631TIP3    H235385   3.786   1.647   0.999  0.6161 -1.3915 -1.9141
 4632TIP3   OH235386   1.546   1.198  12.570  0.1473 -0.3454  0.1087
 4632TIP3    H135387   1.542   1.103  12.562 -3.3854 -0.3549  0.4434
 4632TIP3    H235388   1.607   1.226  12.502  0.9733 -2.7836 -0.2395
 4633TIP3   OH235389   1.433   5.893  16.637 -0.1540  0.0453  0.4962
 4633TIP3    H135390   1.350   5.882  16.592 -1.1954  0.3730  2.2241
 4633TIP3    H235391   1.441   5.988  16.650  0.8097  0.0720 -0.1934
 4634TIP3   OH235392   4.102   3.258   2.251 -0.1583  0.4510  0.3484
 4634TIP3    H135393   4.079   3.348   2.230 -0.0268  0.8873  1.9576
 4634TIP3    H235394   4.046   3.205   2.194  0.4378  1.5230 -1.3025
 4635TIP3   OH235395   4.192   6.334   2.255  0.0938 -0.3657 -0.1653
 4635TIP3    H135396   4.233   6.417   2.231  0.7069 -0.5379  0.2620
 4635TIP3    H235397   4.115   6.360   2.306 -1.5641  0.0262 -2.6883
 4636TIP3   OH235398   3.971   5.954   0.065 -0.3688 -0.3463 -0.0324
 4636TIP3    H135399   3.957   5.862   0.042 -1.7981  0.2903 -1.9304
 4636TIP3    H235400   3.883   5.989   0.079 -0.0871  1.3950 -2.2160
 4637TIP3   OH235401   3.209   4.554  16.695 -0.2647  0.2233 -0.4743
 4637TIP3    H135402   3.271   4.487  16.724  0.6847  0.0768 -2.6121
 4637TIP3    H235403   3.262   4.613  16.642 -1.4326  1.7322 -0.0095
 4638TIP3   OH235404   4.735   4.057   1.659 -0.2059 -0.0628  0.1428
 4638TIP3    H135405   4.657   4.042   1.607 -1.9542  3.1836  1.5622
 4638TIP3    H235406   4.799   4.093   1.598  0.8031 -3.7348 -1.2691
 4639TIP3   OH235407   2.636   1.573   3.560 -0.6662  0.1444 -0.4942
 4639TIP3    H135408   2.653   1.486   3.524  1.1717 -0.6484  2.0232
 4639TIP3    H235409   2.723   1.613   3.570 -1.4901  2.5406 -2.0790
 4640TIP3   OH235410   6.080   0.361   6.393 -0.2358 -0.4178  0.5235
 4640TIP3    H135411   6.008   0.395   6.339  0.8273 -2.4290 -2.4412
 4640TIP3    H235412   6.036   0.310   6.461 -1.6400 -0.2283 -0.1919
 4641TIP3   OH235413   2.794   4.652   5.059 -0.0365  0.1756  0.4064
 4641TIP3    H135414   2.802   4.744   5.035  1.1817 -0.3793 -1.5132
 4641TIP3    H235415   2.746   4.653   5.142 -1.6423  2.4270 -0.4502
 4642TIP3   OH235416   3.146   5.729   0.881  0.2537  0.4942 -0.6008
 4642TIP3    H135417   3.205   5.791   0.838 -0.1432  0.1103 -1.7527
 4642TIP3    H235418   3.164   5.739   0.974  2.0568  0.4714 -0.9059
 4643TIP3   OH235419   5.203   0.298   4.329  0.1536 -0.5024  0.7953
 4643TIP3    H135420   5.116   0.267   4.355 -0.0115  0.7268  1.8432
 4643TIP3    H235421   5.219   0.374   4.386  0.5943  1.2218 -1.4909
 4644TIP3   OH235422   5.127   5.298  10.843  0.0220  0.4386 -0.0359
 4644TIP3    H135423   5.092   5.227  10.897  3.5130 -2.1643 -0.8460
 4644TIP3    H235424   5.110   5.271  10.753  1.3459  0.5791 -0.3545
 4645TIP3   OH235425   3.223   4.432  16.378 -0.4136 -0.2539  0.1996
 4645TIP3    H135426   3.154   4.469  16.322 -1.4776 -1.0626  0.9249
 4645TIP3    H235427   3.283   4.389  16.317 -0.1338  1.0755 -0.5042
 4646TIP3   OH235428   0.282   1.669  13.647 -0.1735 -0.0571  0.5023
 4646TIP3    H135429   0.316   1.758  13.647 -3.3500  1.5061  4.7327
 4646TIP3    H235430   0.347   1.618  13.694 -0.6401  1.4123  2.9100
 4647TIP3   OH235431   0.691   0.361   1.112  0.5613  0.5480 -0.0860
 4647TIP3    H135432   0.728   0.289   1.163  0.2216  0.4265 -0.0069
 4647TIP3    H235433   0.752   0.434   1.125  0.5197  0.4956  0.4286
 4648TIP3   OH235434   1.483   5.120   5.038 -0.2852 -0.3785  0.7668
 4648TIP3    H135435   1.407   5.158   5.080  1.7892  2.0552  2.6484
 4648TIP3    H235436   1.543   5.100   5.110  1.1710 -1.5239 -0.6831
 4649TIP3   OH235437   5.553   2.589   5.077  0.0812 -0.5601  0.1209
 4649TIP3    H135438   5.524   2.588   4.986  2.6851 -1.1483 -0.7890
 4649TIP3    H235439   5.596   2.504   5.090  2.7497  0.7842  0.7839
 4650TIP3   OH235440   1.452   2.605  10.839 -0.5034  0.1944  0.1586
 4650TIP3    H135441   1.508   2.604  10.916 -0.7406 -2.1254  0.3885
 4650TIP3    H235442   1.379   2.663  10.863  0.1095  0.5734  1.1520
 4651TIP3   OH235443   5.074   6.819  12.625  0.2402 -0.6652  0.1743
 4651TIP3    H135444   5.070   6.824  12.721 -1.5158 -0.1856  0.1257
 4651TIP3    H235445   4.990   6.857  12.597 -0.2956 -2.8998 -1.4788
 4652TIP3   OH235446   6.580   2.394  13.068 -0.3289 -0.1578  0.0430
 4652TIP3    H135447   6.604   2.344  13.146 -0.5253 -0.4673 -0.0913
 4652TIP3    H235448   6.594   2.334  12.995  0.2346  0.2627 -0.2020
 4653TIP3   OH235449   1.448   4.900  15.684  0.0988  0.2856 -0.8261
 4653TIP3    H135450   1.479   4.984  15.716  0.6035 -0.2534  0.1725
 4653TIP3    H235451   1.509   4.836  15.723  0.5685 -0.4463 -2.6387
 4654TIP3   OH235452   1.294   3.744  12.728  0.3282 -0.2736 -0.4237
 4654TIP3    H135453   1.305   3.832  12.766  1.0075 -1.2241  1.7829
 4654TIP3    H235454   1.259   3.759  12.640  0.3645  2.1914 -0.0766
 4655TIP3   OH235455   5.762   4.763  11.503  0.1341 -0.3675  0.2117
 4655TIP3    H135456   5.829   4.808  11.452 -0.7137  0.1676 -0.4622
 4655TIP3    H235457   5.680   4.806  11.479 -0.4846 -1.1295  0.8686
 4656TIP3   OH235458   2.373   3.060  16.371  0.1371 -0.8830 -0.9183
 4656TIP3    H135459   2.360   3.082  16.278  1.2008 -1.0605 -1.1129
 4656TIP3    H235460   2.327   3.130  16.418 -1.8735 -1.6880 -1.5514
 4657TIP3   OH235461   4.345   0.486   3.124 -0.3069 -0.1436  0.0046
 4657TIP3    H135462   4.285   0.552   3.091 -0.2710 -0.1628 -0.0984
 4657TIP3    H235463   4.320   0.475   3.216  1.1193  1.6264  0.6600
 4658TIP3   OH235464   6.772   1.078  15.176  0.0130  0.7838  0.4667
 4658TIP3    H135465   6.815   0.995  15.197  1.2393  0.9488 -1.1615
 4658TIP3    H235466   6.718   1.058  15.099 -1.5256  0.9966  1.4377
 4659TIP3   OH235467   6.372   0.053  17.184  0.1955 -0.2448 -0.3475
 4659TIP3    H135468   6.428  -0.012  17.143 -0.5797  0.1232 -2.0913
 4659TIP3    H235469   6.427   0.131  17.190  0.9840 -0.8819  1.3396
 4660TIP3   OH235470   0.550   0.196   0.063  0.1686 -0.3757  0.6989
 4660TIP3    H135471   0.572   0.162  -0.024  0.7143 -1.3731  1.2151
 4660TIP3    H235472   0.629   0.240   0.093 -0.4902  1.2988  0.0930
 4661TIP3   OH235473   4.158   2.435   4.022 -0.6305 -0.2033  0.4603
 4661TIP3    H135474   4.096   2.495   4.065 -0.8769  0.0279 -0.2163
 4661TIP3    H235475   4.110   2.353   4.014 -0.5277 -0.2964  0.7643
 4662TIP3   OH235476   4.420   3.774  11.499  0.0366  0.3053 -0.2567
 4662TIP3    H135477   4.504   3.742  11.465  0.1159  1.2831 -1.0233
 4662TIP3    H235478   4.395   3.710  11.566  0.5479 -0.9333 -1.2141
 4663TIP3   OH235479   5.876   4.331  11.771 -0.0103 -0.1108  0.1388
 4663TIP3    H135480   5.787   4.295  11.765 -0.6736  1.6642 -2.3765
 4663TIP3    H235481   5.867   4.405  11.832 -0.6038  0.7565 -0.9414
 4664TIP3   OH235482   0.645   3.652   4.940 -0.0910  0.0055  0.4664
 4664TIP3    H135483   0.698   3.675   4.864  0.6718 -0.0763  0.9694
 4664TIP3    H235484   0.635   3.734   4.988 -0.6594  0.0784  0.2314
 4665TIP3   OH235485   2.776   3.360  12.727  0.4372 -0.0160  0.0159
 4665TIP3    H135486   2.687   3.386  12.748  0.1888 -0.2597 -0.7210
 4665TIP3    H235487   2.828   3.389  12.802 -0.1383  0.8203  0.0989
 4666TIP3   OH235488   6.275   1.308  14.014  0.2326 -0.6125  0.0588
 4666TIP3    H135489   6.344   1.326  13.950 -0.1507 -0.5675 -0.3407
 4666TIP3    H235490   6.311   1.341  14.097  1.0701 -1.4376  0.0321
 4667TIP3   OH235491   4.891   2.581  16.898  0.0706  0.3395  0.2058
 4667TIP3    H135492   4.829   2.519  16.936  0.8970 -0.1528  0.7877
 4667TIP3    H235493   4.972   2.568  16.947  0.5073  1.2993 -0.2215
 4668TIP3   OH235494   5.345   3.397  12.258 -0.2687  0.5577  0.5764
 4668TIP3    H135495   5.300   3.470  12.301  0.0288  0.4215  1.1280
 4668TIP3    H235496   5.298   3.385  12.175 -0.8515  0.8261  0.8603
 4669TIP3   OH235497   2.493   4.457  14.188 -0.0219 -0.7444 -0.3776
 4669TIP3    H135498   2.533   4.532  14.144 -1.1441 -0.2860 -0.6462
 4669TIP3    H235499   2.414   4.438  14.137 -1.8290  0.3255  1.8267
 4670TIP3   OH235500   2.207   4.039  11.983  0.4148 -0.2193  0.0352
 4670TIP3    H135501   2.235   4.044  12.074  0.9448 -2.2249  0.0332
 4670TIP3    H235502   2.114   4.063  11.985  0.1513 -1.2440  1.2749
 4671TIP3   OH235503   4.676   3.003  14.914  0.2340  0.4594 -0.0552
 4671TIP3    H135504   4.750   2.956  14.953  0.2807  0.2145 -0.4334
 4671TIP3    H235505   4.642   2.943  14.847 -0.1401  0.6802 -0.0666
 4672TIP3   OH235506   3.335   6.216  17.184  1.0011  0.0932 -0.3778
 4672TIP3    H135507   3.339   6.121  17.179 -0.8357 -0.0278 -0.4824
 4672TIP3    H235508   3.247   6.238  17.151  0.8005  1.7064  1.0467
 4673TIP3   OH235509   6.202   0.957   6.016  0.3784  0.0883  0.6439
 4673TIP3    H135510   6.258   0.913   5.952 -0.4974 -2.1327  1.3262
 4673TIP3    H235511   6.256   1.029   6.049  1.7970 -0.3015 -0.6914
 4674TIP3   OH235512   1.904   4.221  16.039  0.1751  0.2608 -0.1554
 4674TIP3    H135513   1.995   4.248  16.051  0.9118 -1.4673 -1.4072
 4674TIP3    H235514   1.861   4.299  16.005  1.5998  0.6630 -1.1551
 4675TIP3   OH235515   4.046   3.237   0.431 -0.2869  0.2758 -0.1857
 4675TIP3    H135516   4.056   3.212   0.340  0.4242  1.0607 -0.3314
 4675TIP3    H235517   4.095   3.171   0.480  0.8785  0.8909 -0.5047
 4676TIP3   OH235518   1.468   0.184  11.175  0.0961  0.3433 -0.6909
 4676TIP3    H135519   1.550   0.179  11.224 -0.7737 -1.1514  0.6960
 4676TIP3    H235520   1.495   0.202  11.085  1.9030  0.3745 -0.1764
 4677TIP3   OH235521   1.281   2.198   3.555  0.1883  0.2442 -0.6298
 4677TIP3    H135522   1.369   2.233   3.542  0.9037 -1.2908 -0.2172
 4677TIP3    H235523   1.224   2.254   3.503  1.0488  2.7715  0.9491
 4678TIP3   OH235524   4.064   0.938   0.743 -0.0237  0.1950  0.0579
 4678TIP3    H135525   4.002   0.874   0.779  1.3394 -0.2988  1.6572
 4678TIP3    H235526   4.066   1.008   0.807  2.8527 -0.9382  1.3718
 4679TIP3   OH235527   5.075   5.110  12.008  0.1466  0.1587 -0.3641
 4679TIP3    H135528   5.042   5.159  11.933  0.0988  1.6484  0.6083
 4679TIP3    H235529   5.170   5.111  11.997  0.1870  1.1091  0.0332
 4680TIP3   OH235530   4.956   3.284   0.575  0.1626  0.1904  0.2508
 4680TIP3    H135531   5.039   3.304   0.617  1.0631  0.2937 -1.5033
 4680TIP3    H235532   4.944   3.190   0.588  0.4892  0.1967  0.6041
 4681TIP3   OH235533   2.784   5.641  13.125 -0.6479 -0.0969  0.0058
 4681TIP3    H135534   2.690   5.628  13.113 -0.4861 -1.3673  0.0380
 4681TIP3    H235535   2.825   5.589  13.056  0.0253  1.3910 -0.7607
 4682TIP3   OH235536   6.336   3.006   3.629  0.0429 -0.0096  0.4083
 4682TIP3    H135537   6.423   3.046   3.628  0.1294 -0.1997 -0.2326
 4682TIP3    H235538   6.331   2.963   3.714  1.3760 -1.6981 -0.3071
 4683TIP3   OH235539   3.554   6.635  12.335  0.3220  0.0405  0.5814
 4683TIP3    H135540   3.564   6.566  12.271  2.4661 -0.5303  1.4342
 4683TIP3    H235541   3.547   6.716  12.284  1.9240 -0.4061 -0.4014
 4684TIP3   OH235542   6.023   2.047  15.810  0.0675 -0.3651 -0.2963
 4684TIP3    H135543   5.998   2.025  15.900 -1.0447  0.6137 -0.3364
 4684TIP3    H235544   5.957   2.004  15.756  0.9301 -1.2309 -0.6706
 4685TIP3   OH235545   3.369   6.364   3.059 -0.3584 -0.0213  0.1270
 4685TIP3    H135546   3.434   6.330   3.121 -0.0945 -0.8764 -0.5876
 4685TIP3    H235547   3.420   6.387   2.981 -0.6140  1.5491  0.3937
 4686TIP3   OH235548   2.301   2.427  15.635  0.1426 -0.3199 -0.0396
 4686TIP3    H135549   2.329   2.413  15.545 -0.2422 -0.2575 -0.1678
 4686TIP3    H235550   2.291   2.339  15.671  0.4572 -0.3446 -0.0046
 4687TIP3   OH235551   4.636   4.686  10.714  0.2323  0.1012 -0.6960
 4687TIP3    H135552   4.636   4.650  10.626 -0.6771 -2.3145  0.2131
 4687TIP3    H235553   4.729   4.691  10.737  0.4682  0.5731 -1.6901
 4688TIP3   OH235554   4.119   4.634   3.766 -0.1474 -0.0595 -0.5659
 4688TIP3    H135555   4.040   4.668   3.808  1.2051  2.2231  0.3533
 4688TIP3    H235556   4.122   4.678   3.681  0.1140 -0.1643 -0.6118
 4689TIP3   OH235557   4.365   4.822  17.083 -0.1029 -0.4434 -0.0844
 4689TIP3    H135558   4.333   4.875  17.156  0.2141 -1.6356  0.9447
 4689TIP3    H235559   4.460   4.827  17.089 -0.0298  0.9827 -1.5881
 4690TIP3   OH235560   6.821   3.357  12.746  0.0811 -0.5179 -0.3262
 4690TIP3    H135561   6.907   3.314  12.747 -0.2097 -1.1278 -1.0531
 4690TIP3    H235562   6.767   3.303  12.803  0.5250  0.6638  1.3097
 4691TIP3   OH235563   5.176   2.732  16.272 -0.6737  0.4734  0.6474
 4691TIP3    H135564   5.204   2.821  16.291 -0.3483  0.6963 -0.7521
 4691TIP3    H235565   5.235   2.703  16.203 -1.2470 -0.5668  0.5745
 4692TIP3   OH235566   4.670   0.585  15.714 -0.0193 -0.2448  0.0759
 4692TIP3    H135567   4.761   0.583  15.685 -0.1268 -1.2204 -0.2447
 4692TIP3    H235568   4.635   0.499  15.691 -0.9737  0.0411  0.3676
 4693TIP3   OH235569   6.686   5.006  16.667  0.7496 -0.2873 -0.6635
 4693TIP3    H135570   6.685   5.095  16.632 -0.6568 -0.8192 -2.0722
 4693TIP3    H235571   6.688   5.018  16.762 -0.0314  1.2573 -0.8070
 4694TIP3   OH235572   3.625   5.168   5.352  0.1722 -0.3941  0.0388
 4694TIP3    H135573   3.631   5.222   5.274  1.1297  0.6047  0.7816
 4694TIP3    H235574   3.612   5.079   5.319 -0.4089  0.1382 -1.2210
 4695TIP3   OH235575   0.354   4.342   3.268 -0.0179 -0.3690 -0.3009
 4695TIP3    H135576   0.381   4.288   3.343  0.9072  1.7434  1.0046
 4695TIP3    H235577   0.355   4.432   3.303  1.7267  0.8551 -3.1775
 4696TIP3   OH235578   4.558   2.831  15.260  0.6287  0.3537 -0.2651
 4696TIP3    H135579   4.489   2.779  15.301  0.3042  0.4239 -0.7181
 4696TIP3    H235580   4.632   2.771  15.254  0.1806 -0.1381 -1.0113
 4697TIP3   OH235581   6.603   2.150  11.789  0.1290  0.3234  0.0679
 4697TIP3    H135582   6.656   2.071  11.775 -2.4358 -1.5585  0.1040
 4697TIP3    H235583   6.513   2.122  11.768 -0.7773  3.5432 -0.8841
 4698TIP3   OH235584   4.544   2.185  13.946  0.4653  0.3241  0.2940
 4698TIP3    H135585   4.525   2.112  13.888  0.5408 -0.1832  0.8888
 4698TIP3    H235586   4.622   2.157  13.994  0.2524  0.6154  0.8142
 4699TIP3   OH235587   3.201   1.156  13.126 -0.6248 -0.4757 -0.4786
 4699TIP3    H135588   3.247   1.131  13.046 -0.0617  0.6337 -0.5144
 4699TIP3    H235589   3.270   1.178  13.188 -1.0540  1.3656 -0.5867
 4700TIP3   OH235590   6.097   3.780  11.766  0.8342  0.0447  0.0155
 4700TIP3    H135591   6.060   3.692  11.775  3.0423 -1.0046 -0.4774
 4700TIP3    H235592   6.099   3.815  11.855 -0.2229 -0.3084  0.1957
 4701TIP3   OH235593   4.157   4.995   4.257  0.0680  0.2699  0.4128
 4701TIP3    H135594   4.212   4.921   4.283  0.0265  0.3049  0.6006
 4701TIP3    H235595   4.193   5.022   4.173  2.2345  2.1221  1.8025
 4702TIP3   OH235596   0.447   3.041   5.461  0.2655 -0.0923 -0.1657
 4702TIP3    H135597   0.369   3.051   5.516  0.7331 -1.3166  0.7771
 4702TIP3    H235598   0.498   2.973   5.505  0.2803 -1.7541 -2.5752
 4703TIP3   OH235599   2.176   4.356  16.090  0.0999  0.8399 -0.1983
 4703TIP3    H135600   2.257   4.331  16.133 -0.9528 -1.0539  0.8217
 4703TIP3    H235601   2.154   4.442  16.128  1.2438  1.0365  0.0354
 4704TIP3   OH235602   2.988   6.621   4.751  0.3348 -0.1761  0.4052
 4704TIP3    H135603   2.900   6.657   4.765  1.2888  2.4182  0.2847
 4704TIP3    H235604   3.026   6.616   4.839 -0.1905 -2.2420  0.5775
 4705TIP3   OH235605   3.896   0.826   2.289  0.1646 -0.4026 -1.1992
 4705TIP3    H135606   3.925   0.736   2.303 -0.7068 -0.3160  1.8226
 4705TIP3    H235607   3.965   0.880   2.329 -1.5647 -0.0051  1.4671
 4706TIP3   OH235608   6.562   0.452   1.880 -0.0799  0.6455 -0.1712
 4706TIP3    H135609   6.638   0.495   1.917 -0.8450  0.8804  1.1959
 4706TIP3    H235610   6.562   0.478   1.788  0.3775  2.2713  0.2571
 4707TIP3   OH235611   0.044   1.098   0.611 -0.1309  0.2527 -0.1335
 4707TIP3    H135612   0.073   1.187   0.625  0.4428  0.1047 -0.3781
 4707TIP3    H235613   0.108   1.043   0.656 -0.3997 -0.0463 -0.1022
 4708TIP3   OH235614   1.529   4.861  11.932 -0.0789  0.3655 -0.9717
 4708TIP3    H135615   1.554   4.925  11.866 -1.1010  0.3893 -1.3582
 4708TIP3    H235616   1.600   4.797  11.932  2.3394  2.7514  1.2398
 4709TIP3   OH235617   6.536   0.008   1.402  0.1115 -0.0182  0.4118
 4709TIP3    H135618   6.532  -0.000   1.498  0.3704  1.2977  0.5548
 4709TIP3    H235619   6.472   0.076   1.381 -1.2809 -1.5441 -0.5674
 4710TIP3   OH235620   3.235   2.110  14.295  0.3699 -0.4075  0.1913
 4710TIP3    H135621   3.200   2.065  14.218  2.1218  0.1830 -1.0101
 4710TIP3    H235622   3.302   2.051  14.328 -0.7438 -0.9147  1.6628
 4711TIP3   OH235623   5.016   2.197   2.201 -0.1101  0.1633  1.2797
 4711TIP3    H135624   4.996   2.275   2.148 -0.7653 -0.3427  0.7649
 4711TIP3    H235625   4.930   2.163   2.226  0.0260 -2.0802 -0.9903
 4712TIP3   OH235626   3.640   3.801   2.761  0.1379 -0.4157 -0.2075
 4712TIP3    H135627   3.663   3.789   2.854 -0.8382  0.9653  0.2437
 4712TIP3    H235628   3.580   3.729   2.742  1.9565 -1.9743 -0.4148
 4713TIP3   OH235629   5.326   4.086   1.312 -0.8482  0.0628  0.3430
 4713TIP3    H135630   5.343   4.043   1.228 -2.9350  0.7121 -0.4730
 4713TIP3    H235631   5.350   4.021   1.378 -0.9448 -1.1708 -0.7941
 4714TIP3   OH235632   6.363   5.142   1.966 -0.2454 -0.0210 -0.2296
 4714TIP3    H135633   6.309   5.175   1.895 -0.6430 -1.4182 -0.6148
 4714TIP3    H235634   6.397   5.220   2.009 -0.2934  0.8552 -1.7172
 4715TIP3   OH235635   3.125   0.640  13.934  0.1557  0.1675  0.2254
 4715TIP3    H135636   3.094   0.723  13.969  1.5954  0.8859 -0.1560
 4715TIP3    H235637   3.168   0.597  14.009 -1.7799 -0.9049  0.8005
 4716TIP3   OH235638   2.404   3.536   5.268 -0.5109 -0.1968 -0.5257
 4716TIP3    H135639   2.428   3.628   5.281 -0.5191  0.0064 -1.7432
 4716TIP3    H235640   2.383   3.530   5.174  1.0465 -1.7854 -0.8308
 4717TIP3   OH235641   3.100   2.173  16.139 -0.4735 -0.6013  0.5238
 4717TIP3    H135642   3.005   2.180  16.124 -0.5214 -1.3563  0.4390
 4717TIP3    H235643   3.126   2.093  16.093  0.6585  0.8527 -1.5073
 4718TIP3   OH235644   1.785   6.278   6.369 -0.1094  0.0503 -0.0988
 4718TIP3    H135645   1.855   6.317   6.317  2.1399 -0.8428  2.0749
 4718TIP3    H235646   1.778   6.188   6.336 -1.2321  0.4981 -1.1862
 4719TIP3   OH235647   2.985   3.151  16.869 -0.1714 -0.2436  0.7108
 4719TIP3    H135648   3.031   3.179  16.948  0.7330 -0.4264  0.2521
 4719TIP3    H235649   2.922   3.086  16.901 -0.8861  0.7998  1.4880
 4720TIP3   OH235650   1.677   6.666  14.780 -0.0415 -0.3640  0.1123
 4720TIP3    H135651   1.755   6.678  14.727  0.1261  0.9361  0.6229
 4720TIP3    H235652   1.622   6.605  14.729  0.4083  0.3008 -1.2076
 4721TIP3   OH235653   4.848   4.880  12.320 -0.1184  0.0832  0.2217
 4721TIP3    H135654   4.774   4.819  12.317 -1.4175  1.5536  0.3788
 4721TIP3    H235655   4.916   4.838  12.268 -1.4840 -0.8296 -0.9311
 4722TIP3   OH235656   0.473   4.749   2.500  0.0366  0.3903 -0.0850
 4722TIP3    H135657   0.418   4.816   2.461 -0.0530  1.3054  1.5535
 4722TIP3    H235658   0.554   4.794   2.523  0.1539 -0.1646  0.6336
 4723TIP3   OH235659   1.137   4.096  13.141 -0.1649  0.3990 -0.1207
 4723TIP3    H135660   1.141   4.180  13.186 -0.8196  0.4614 -0.1766
 4723TIP3    H235661   1.154   4.031  13.209  1.5186  0.6098 -0.2757
 4724TIP3   OH235662   6.028   5.362   4.432  0.1170  0.5366  0.2360
 4724TIP3    H135663   5.971   5.293   4.467  0.7457 -0.1825 -0.1208
 4724TIP3    H235664   6.111   5.349   4.477  0.3173  0.8962 -0.0322
 4725TIP3   OH235665   3.357   4.915   2.004 -0.4181 -0.2602  0.5276
 4725TIP3    H135666   3.316   4.889   1.921 -0.7654 -0.0405  0.6300
 4725TIP3    H235667   3.317   4.857   2.069 -0.7363  0.1128  0.6631
 4726TIP3   OH235668   5.233   2.709  12.747 -0.0617  0.2151  0.0619
 4726TIP3    H135669   5.191   2.625  12.725 -0.5002  0.3951  0.2099
 4726TIP3    H235670   5.164   2.774  12.737 -0.4995  0.2438  2.6455
 4727TIP3   OH235671   5.052   1.128   0.839  0.0938 -0.0100 -0.1403
 4727TIP3    H135672   5.106   1.165   0.769 -0.6078 -1.1334 -1.3145
 4727TIP3    H235673   4.989   1.196   0.860 -1.3893 -0.5513 -2.4993
 4728TIP3   OH235674   3.412   1.740   2.878 -0.5068  0.0270  0.4351
 4728TIP3    H135675   3.453   1.730   2.792 -1.4947  0.0849 -0.0614
 4728TIP3    H235676   3.350   1.811   2.866 -2.1644 -1.3338  0.5975
 4729TIP3   OH235677   1.197   6.354   1.772 -0.3140  0.2231 -0.1665
 4729TIP3    H135678   1.103   6.366   1.761 -0.6596 -0.6625  1.5621
 4729TIP3    H235679   1.208   6.262   1.795  0.6492  0.8791  2.4177
 4730TIP3   OH235680   2.097   0.919   1.089  0.3764 -0.1140  0.4404
 4730TIP3    H135681   2.015   0.909   1.137 -0.4248  0.8308 -0.6729
 4730TIP3    H235682   2.146   0.985   1.137  1.2809 -1.8673  2.0742
 4731TIP3   OH235683   3.973   1.565  12.097  0.3827  0.3124 -0.0290
 4731TIP3    H135684   3.931   1.509  12.031 -2.1775  1.4051  0.5315
 4731TIP3    H235685   3.917   1.556  12.175  3.1373 -0.6881  1.9695
 4732TIP3   OH235686   2.282   6.106   3.210 -0.6664  0.2072  0.1996
 4732TIP3    H135687   2.271   6.200   3.225 -1.5531  0.4152 -1.5764
 4732TIP3    H235688   2.341   6.077   3.281  1.7842  2.5769 -0.7153
 4733TIP3   OH235689   0.844   1.605  11.063 -0.1573 -0.3612 -0.1225
 4733TIP3    H135690   0.876   1.588  10.975 -0.8912 -2.0997 -0.0899
 4733TIP3    H235691   0.838   1.519  11.104 -2.6336  0.0832  0.6271
 4734TIP3   OH235692   0.912   4.773   6.445  0.0354  0.2817  0.4960
 4734TIP3    H135693   0.848   4.832   6.406 -1.2092 -1.3742 -0.0767
 4734TIP3    H235694   0.971   4.831   6.493 -1.5427  1.9196  0.5858
 4735TIP3   OH235695   3.439   0.164   1.046  0.3010  0.0461 -0.2978
 4735TIP3    H135696   3.381   0.203   0.980  0.1491  0.7918  0.2643
 4735TIP3    H235697   3.504   0.116   0.994  1.1691  1.9549 -1.1080
 4736TIP3   OH235698   1.962   0.593  12.182 -0.0188  0.1750 -0.4809
 4736TIP3    H135699   2.051   0.594  12.218 -0.4530  0.5364  0.6176
 4736TIP3    H235700   1.964   0.657  12.111  0.5052  0.4458 -0.2273
 4737TIP3   OH235701   0.184   6.048  13.322  0.2954  0.0212 -0.3471
 4737TIP3    H135702   0.141   6.096  13.392  0.9421  0.1120 -0.0000
 4737TIP3    H235703   0.134   5.966  13.315  0.7797 -0.4020  0.8726
 4738TIP3   OH235704   3.548   3.240   4.665  0.5012 -0.1671 -0.0084
 4738TIP3    H135705   3.605   3.244   4.742  2.4822  0.6179 -1.4159
 4738TIP3    H235706   3.587   3.171   4.610 -1.5108 -1.4705  0.1162
 4739TIP3   OH235707   2.779   1.963   2.345  0.6719  0.0809  0.3548
 4739TIP3    H135708   2.771   1.957   2.440  0.0101  0.0467  0.3081
 4739TIP3    H235709   2.826   1.884   2.319  1.4028  0.3951  0.7089
 4740TIP3   OH235710   6.246   1.360   6.287  0.1878  0.4698  0.0943
 4740TIP3    H135711   6.275   1.268   6.285 -0.0329  0.4019 -0.0923
 4740TIP3    H235712   6.275   1.396   6.203  0.0159  0.4891  0.0426
 4741TIP3   OH235713   6.183   1.176  12.778 -0.3921 -0.2061 -0.0760
 4741TIP3    H135714   6.255   1.167  12.841 -0.7619 -1.8065  0.1650
 4741TIP3    H235715   6.174   1.089  12.739 -0.2973  0.6907 -2.2478
 4742TIP3   OH235716   2.533   0.052  17.193 -0.0712 -0.8028 -0.1352
 4742TIP3    H135717   2.561   0.039  17.283 -0.8861 -1.5668  0.0265
 4742TIP3    H235718   2.598   0.111  17.155  0.1342 -0.2673  1.0243
 4743TIP3   OH235719   5.611   5.545   4.440 -1.0952 -0.2147 -0.0832
 4743TIP3    H135720   5.571   5.458   4.453 -0.4319 -0.5846 -0.4584
 4743TIP3    H235721   5.584   5.595   4.516 -0.2693 -1.2046  0.8942
 4744TIP3   OH235722   3.982   5.498   0.318  0.0172 -0.2817  0.4530
 4744TIP3    H135723   3.901   5.447   0.323  0.4273 -1.0012 -0.0270
 4744TIP3    H235724   4.050   5.432   0.306  0.7436  0.2755  1.3991
 4745TIP3   OH235725   0.269   5.388  14.128 -0.8152 -0.1985 -0.1375
 4745TIP3    H135726   0.321   5.403  14.207 -0.4630  1.6453 -0.6766
 4745TIP3    H235727   0.180   5.372  14.160 -0.5260 -0.2472  0.6606
 4746TIP3   OH235728   1.709   1.196   5.472  0.8706 -0.0819 -0.4797
 4746TIP3    H135729   1.799   1.173   5.447  0.9741  0.1561 -0.3328
 4746TIP3    H235730   1.719   1.247   5.552  0.6004 -0.0744 -0.4499
 4747TIP3   OH235731   4.813   0.561  13.977 -0.4358 -0.0926 -0.1644
 4747TIP3    H135732   4.773   0.643  14.005  0.9803  0.3175  0.7759
 4747TIP3    H235733   4.830   0.573  13.884  0.1719  0.8756  0.0601
 4748TIP3   OH235734   0.366   2.182  12.543  0.0177  0.1300 -0.6713
 4748TIP3    H135735   0.275   2.157  12.531 -0.4604  0.5045  1.7201
 4748TIP3    H235736   0.415   2.118  12.491 -1.3398 -3.6893  2.2047
 4749TIP3   OH235737   6.467   5.745   6.017  0.3435 -0.3228  0.1403
 4749TIP3    H135738   6.520   5.698   6.081 -2.8115 -2.8383  1.1865
 4749TIP3    H235739   6.378   5.743   6.053 -1.0899  0.6717 -2.9866
 4750TIP3   OH235740   0.081   6.251  12.957  0.2354 -0.3905 -0.0790
 4750TIP3    H135741   0.108   6.179  12.900 -2.8559 -0.5912 -1.5045
 4750TIP3    H235742   0.081   6.328  12.900  1.5194  0.3753  0.9042
 4751TIP3   OH235743   0.815   1.533  12.201  0.0105  0.3840  0.6572
 4751TIP3    H135744   0.902   1.554  12.236 -0.0901  0.5173  0.8243
 4751TIP3    H235745   0.811   1.580  12.118  0.3387 -0.1142  0.3453
 4752TIP3   OH235746   3.656   5.319   0.741  0.6014  0.0028  0.2405
 4752TIP3    H135747   3.607   5.237   0.748 -0.5954  0.5814 -0.8884
 4752TIP3    H235748   3.591   5.384   0.715  1.9227  0.8300 -1.1819
 4753TIP3   OH235749   3.371   4.489  15.130 -0.1562 -0.1200 -0.3507
 4753TIP3    H135750   3.345   4.412  15.181 -0.3778 -0.5845 -1.1549
 4753TIP3    H235751   3.356   4.563  15.189 -1.3921 -0.5575 -0.0892
 4754TIP3   OH235752   4.646   1.939  15.923  0.0600 -0.0056  0.1212
 4754TIP3    H135753   4.557   1.921  15.956 -0.4084  1.4351 -0.3003
 4754TIP3    H235754   4.636   1.942  15.828  0.8310 -1.0861 -0.0207
 4755TIP3   OH235755   4.164   2.473   3.392  0.1629  0.5309 -0.1480
 4755TIP3    H135756   4.185   2.382   3.413 -0.2207  0.3388 -0.5822
 4755TIP3    H235757   4.068   2.474   3.383  0.1979  0.8953 -0.5218
 4756TIP3   OH235758   1.074   1.001   1.042 -0.3195 -0.4140  0.2458
 4756TIP3    H135759   1.160   1.043   1.046  0.4023 -1.8039 -0.0021
 4756TIP3    H235760   1.066   0.969   0.952 -0.6564 -1.1513  0.5263
 4757TIP3   OH235761   5.124   3.191  16.727  0.2912  0.2635 -0.3727
 4757TIP3    H135762   5.123   3.163  16.819  1.0990  1.2517 -0.0480
 4757TIP3    H235763   5.040   3.163  16.692  0.2630 -0.7654  0.4756
 4758TIP3   OH235764   4.240   6.094  16.628 -0.5285  0.0063  1.0217
 4758TIP3    H135765   4.261   6.010  16.587 -0.4109  0.0876  0.9139
 4758TIP3    H235766   4.321   6.145  16.622 -1.2181  0.9953 -1.0298
 4759TIP3   OH235767   2.465   5.904   0.946 -0.2817  0.3854  0.5826
 4759TIP3    H135768   2.393   5.922   0.885  0.4202  0.5152 -0.2346
 4759TIP3    H235769   2.483   5.988   0.988  0.2694  0.6877 -0.2148
 4760TIP3   OH235770   4.199   6.025  11.873  0.1262  0.0589  0.0255
 4760TIP3    H135771   4.120   6.066  11.839 -0.2898 -1.6721 -1.2420
 4760TIP3    H235772   4.249   5.999  11.795  0.2798 -1.9267  0.7272
 4761TIP3   OH235773   0.679   1.334  15.545  0.1883  0.0754 -0.2009
 4761TIP3    H135774   0.632   1.407  15.505  1.6377  0.8963 -0.5001
 4761TIP3    H235775   0.748   1.313  15.482  0.3765 -0.9392  0.3137
 4762TIP3   OH235776   6.709   0.951   2.478 -0.0799 -0.3848 -0.1889
 4762TIP3    H135777   6.669   1.031   2.512  1.3889 -0.2926  1.4086
 4762TIP3    H235778   6.802   0.959   2.498  0.5734 -1.2870 -2.4606
 4763TIP3   OH235779   6.294   1.952  11.951 -0.3374  0.0504  0.4895
 4763TIP3    H135780   6.215   1.949  11.897  0.9144 -1.1004 -1.4039
 4763TIP3    H235781   6.366   1.941  11.889  1.2526 -0.3386  2.3046
 4764TIP3   OH235782   2.906   1.631  12.628 -0.1450  0.3207  0.3626
 4764TIP3    H135783   2.883   1.571  12.699 -0.1662 -0.1813 -0.0562
 4764TIP3    H235784   2.951   1.575  12.564 -1.1884  0.4987 -0.5635
 4765TIP3   OH235785   6.793   3.725  14.797  0.4215 -0.2975 -0.0233
 4765TIP3    H135786   6.718   3.669  14.817  0.2705  0.4203  1.5644
 4765TIP3    H235787   6.849   3.672  14.741 -0.4213 -1.4988  0.2449
 4766TIP3   OH235788   5.840   3.643  16.225 -0.1973 -0.3378  0.6417
 4766TIP3    H135789   5.818   3.613  16.137 -0.4481  0.3102  0.4851
 4766TIP3    H235790   5.795   3.727  16.235  1.3637  0.5312  0.6756
 4767TIP3   OH235791   2.578   4.605   2.781  0.5527 -0.4769 -0.9986
 4767TIP3    H135792   2.613   4.634   2.696 -1.4141 -0.9623 -2.0223
 4767TIP3    H235793   2.486   4.633   2.779  0.6992  0.3850  1.4136
 4768TIP3   OH235794   5.048   0.927  14.078  0.7174 -0.0270 -0.0827
 4768TIP3    H135795   5.126   0.981  14.090  1.0920 -0.3904 -0.7862
 4768TIP3    H235796   5.078   0.852  14.027  0.0906 -0.6302  0.4048
 4769TIP3   OH235797   4.533   3.029   3.692  0.3553  0.0578  0.1082
 4769TIP3    H135798   4.518   3.120   3.714 -0.6291  0.3289 -1.5046
 4769TIP3    H235799   4.609   3.030   3.633  2.3220 -0.5442  2.4625
 4770TIP3   OH235800   6.716   5.915  11.181  0.5851 -0.0595 -0.7624
 4770TIP3    H135801   6.650   5.971  11.139  0.0748 -1.3623 -1.7757
 4770TIP3    H235802   6.796   5.931  11.132  0.8740  0.9756  0.0028
 4771TIP3   OH235803   1.824   2.335   2.892 -0.2019 -0.2302 -0.5605
 4771TIP3    H135804   1.751   2.275   2.877  0.2055 -0.8189 -0.2694
 4771TIP3    H235805   1.855   2.313   2.980  1.3641 -1.1658 -1.2834
 4772TIP3   OH235806   1.854   1.209   0.866 -0.0289 -0.2058  0.7190
 4772TIP3    H135807   1.928   1.260   0.832 -2.1099  1.6459 -1.4066
 4772TIP3    H235808   1.869   1.205   0.960  1.8383  1.7377  0.5889
 4773TIP3   OH235809   4.628   3.800   5.549 -0.2835 -0.5819  0.0925
 4773TIP3    H135810   4.694   3.777   5.614 -0.4026 -0.8419  0.1258
 4773TIP3    H235811   4.606   3.717   5.507  0.3329 -0.3091 -0.8064
 4774TIP3   OH235812   4.992   4.297  12.747  0.1475  0.3117  0.6039
 4774TIP3    H135813   5.036   4.212  12.757 -0.6144 -0.4713 -1.8728
 4774TIP3    H235814   5.017   4.326  12.659 -0.6083  2.0779  0.9332
 4775TIP3   OH235815   1.485   2.100  14.630  0.3435 -0.4547 -0.5495
 4775TIP3    H135816   1.502   2.006  14.641 -1.2022 -0.7443 -0.3841
 4775TIP3    H235817   1.477   2.134  14.720  2.4711  0.1837 -0.5590
 4776TIP3   OH235818   3.475   6.655  16.904  0.1471  0.3399  0.0728
 4776TIP3    H135819   3.546   6.719  16.902  1.5867 -1.1517  0.9282
 4776TIP3    H235820   3.463   6.630  16.813  1.7651 -0.4461  0.0455
 4777TIP3   OH235821   4.917   5.498   3.184  0.3892 -0.4551  0.1961
 4777TIP3    H135822   5.011   5.512   3.171  0.6538 -1.8660  0.4260
 4777TIP3    H235823   4.894   5.557   3.256  0.8545  0.6868 -0.5616
 4778TIP3   OH235824   2.611   3.069   5.383  0.0763  0.2366 -0.2995
 4778TIP3    H135825   2.563   2.995   5.345  2.1706 -1.1153 -0.4696
 4778TIP3    H235826   2.574   3.146   5.340 -0.8257 -0.8717 -1.6119
 4779TIP3   OH235827   6.381   1.514   2.797 -0.1562  0.2699 -0.1888
 4779TIP3    H135828   6.330   1.579   2.748  0.8087  1.6506  0.5532
 4779TIP3    H235829   6.422   1.460   2.730  0.4694  1.5990 -0.9252
 4780TIP3   OH235830   6.599   5.033   0.169 -0.4264 -0.2983  0.7711
 4780TIP3    H135831   6.672   5.095   0.163 -0.9537  0.2967  0.4284
 4780TIP3    H235832   6.602   4.985   0.087 -0.1052 -0.6342  0.9764
 4781TIP3   OH235833   0.085   3.417  14.869  0.3948 -0.1821  0.4349
 4781TIP3    H135834  -0.006   3.403  14.894  0.8729 -2.5326  1.0740
 4781TIP3    H235835   0.130   3.439  14.951  1.1802 -3.7089  1.1182
 4782TIP3   OH235836   6.229   1.398  16.978  0.0120  0.9997  0.0030
 4782TIP3    H135837   6.143   1.434  16.957 -0.5702 -0.0346  0.5568
 4782TIP3    H235838   6.221   1.366  17.068  0.5863 -0.2429 -0.3620
 4783TIP3   OH235839   4.863   5.266  11.445  0.3128 -0.6159 -0.4962
 4783TIP3    H135840   4.828   5.308  11.366  0.4297  1.3131  0.4006
 4783TIP3    H235841   4.951   5.302  11.454 -0.0958  0.1192  1.0799
 4784TIP3   OH235842   1.369   1.269   3.359  0.0792  0.4539 -0.1300
 4784TIP3    H135843   1.430   1.336   3.328 -1.4759  2.1228  0.2194
 4784TIP3    H235844   1.397   1.188   3.316  3.2219  0.8496  0.9141
 4785TIP3   OH235845   4.022   6.620   5.241  0.0127  0.0152 -0.0177
 4785TIP3    H135846   4.117   6.617   5.228  0.0378 -0.5769  0.2640
 4785TIP3    H235847   4.011   6.639   5.335 -0.1598  1.3041 -0.2758
 4786TIP3   OH235848   1.314   0.084   1.168 -0.6461 -0.7128  0.4264
 4786TIP3    H135849   1.357   0.068   1.252 -0.5197 -1.0391  0.3022
 4786TIP3    H235850   1.223   0.101   1.190 -0.0669  2.4248  0.9395
 4787TIP3   OH235851   4.386   1.792   0.212 -0.4600 -0.3505 -0.1398
 4787TIP3    H135852   4.453   1.733   0.246 -1.1214 -0.9706  0.1158
 4787TIP3    H235853   4.335   1.817   0.288 -1.2376 -0.8295 -0.4868
 4788TIP3   OH235854   5.971   0.398   0.298 -0.3312 -0.2972 -0.4220
 4788TIP3    H135855   5.922   0.366   0.373 -0.5913  1.7232  0.3384
 4788TIP3    H235856   6.061   0.406   0.330 -0.5870  1.3420 -0.0039
 4789TIP3   OH235857   2.729   2.745  12.665  0.3722 -0.3593  0.2878
 4789TIP3    H135858   2.810   2.743  12.614  1.4640  1.1067  1.8715
 4789TIP3    H235859   2.663   2.780  12.604  1.7308  1.7433 -0.0596
 4790TIP3   OH235860   6.274   0.099  16.473  0.0984 -0.1058 -0.0634
 4790TIP3    H135861   6.346   0.066  16.419 -0.5133  2.4750 -2.6861
 4790TIP3    H235862   6.204   0.035  16.462  1.4446 -1.9959  1.5264
 4791TIP3   OH235863   0.342   0.699   5.964 -0.2266 -0.3558 -0.0033
 4791TIP3    H135864   0.312   0.608   5.971 -0.5108 -0.2941 -0.4110
 4791TIP3    H235865   0.396   0.712   6.042  0.5686 -1.1662 -0.3969
 4792TIP3   OH235866   5.669   5.188   3.900 -0.2470 -0.1577 -0.2833
 4792TIP3    H135867   5.745   5.237   3.931 -0.4875 -0.4703  0.8419
 4792TIP3    H235868   5.610   5.185   3.975 -0.2365 -2.1837 -0.2883
 4793TIP3   OH235869   4.320   0.448  11.202 -0.0538 -0.3646  0.2292
 4793TIP3    H135870   4.323   0.425  11.295  1.5779 -0.1217  0.2699
 4793TIP3    H235871   4.248   0.397  11.166  0.9541 -2.5302  1.1032
 4794TIP3   OH235872   6.364   3.154  14.365  0.1088 -0.1808 -0.7953
 4794TIP3    H135873   6.298   3.162  14.296 -0.4810 -0.9621 -0.3518
 4794TIP3    H235874   6.447   3.142  14.319 -0.0614  0.7500 -1.3624
 4795TIP3   OH235875   2.739   2.131   4.307  0.2830  0.0849 -0.1226
 4795TIP3    H135876   2.802   2.127   4.236  1.8035 -1.2216  1.2327
 4795TIP3    H235877   2.782   2.088   4.381 -0.9647  1.9370  1.8147
 4796TIP3   OH235878   5.813   2.639   2.433 -0.1646  0.0592 -0.5483
 4796TIP3    H135879   5.841   2.549   2.417 -0.3381 -0.0681 -0.1526
 4796TIP3    H235880   5.814   2.681   2.347 -0.7673 -0.5135 -0.8426
 4797TIP3   OH235881   2.069   1.622   0.437 -0.7892  0.3856 -0.7486
 4797TIP3    H135882   2.016   1.700   0.453  0.4159  1.1358 -0.2682
 4797TIP3    H235883   2.125   1.646   0.364 -0.1435  0.1104 -0.3516
 4798TIP3   OH235884   6.391   2.174  15.753  0.3886 -0.1282 -0.2766
 4798TIP3    H135885   6.307   2.199  15.715  0.5636  0.4692 -0.2867
 4798TIP3    H235886   6.452   2.241  15.721  0.8540 -0.5170 -0.2166
 4799TIP3   OH235887   4.008   5.775   0.998 -0.1877 -0.3681 -0.2092
 4799TIP3    H135888   4.020   5.698   1.052  1.1280 -0.0834 -0.0594
 4799TIP3    H235889   4.004   5.848   1.060  2.0350  0.0408 -0.4592
 4800TIP3   OH235890   1.932   5.618  15.763  0.4981 -0.0274 -0.6712
 4800TIP3    H135891   1.837   5.631  15.770  0.7944  3.4093 -1.1525
 4800TIP3    H235892   1.958   5.586  15.850 -1.0699 -1.1774 -0.5821
 4801TIP3   OH235893   4.372   5.890   4.700 -0.3316  1.2325  0.1695
 4801TIP3    H135894   4.315   5.870   4.625 -1.3460  3.3806  0.2884
 4801TIP3    H235895   4.449   5.835   4.686 -0.5999  1.3462 -2.3017
 4802TIP3   OH235896   0.603   6.288   4.185 -0.1562  0.1405  0.2536
 4802TIP3    H135897   0.630   6.315   4.272 -0.6997 -0.7997  0.7284
 4802TIP3    H235898   0.662   6.217   4.162  0.7481  1.1370 -0.6557
 4803TIP3   OH235899   5.758   0.006  11.554  0.2859  0.4201  0.3859
 4803TIP3    H135900   5.823  -0.064  11.551 -0.7722 -0.5349 -1.3554
 4803TIP3    H235901   5.787   0.069  11.488 -1.1716 -0.6289 -1.3310
 4804TIP3   OH235902   5.469   5.085   0.451 -0.5023  0.8545  0.6264
 4804TIP3    H135903   5.539   5.141   0.419 -0.4025  0.4766  0.1764
 4804TIP3    H235904   5.448   5.027   0.378 -1.8720  1.5180  0.4737
 4805TIP3   OH235905   1.373   1.229  16.702  0.0653 -0.2449  0.3245
 4805TIP3    H135906   1.400   1.320  16.695 -0.3018 -0.2201 -1.1218
 4805TIP3    H235907   1.285   1.227  16.663  0.0134 -1.1909  0.4532
 4806TIP3   OH235908   1.096   5.462  11.590 -0.2175 -0.0429 -0.1214
 4806TIP3    H135909   1.181   5.450  11.632 -0.1516 -1.1277 -0.5293
 4806TIP3    H235910   1.087   5.556  11.578  0.2633  0.1871  1.2769
 4807TIP3   OH235911   4.597   2.599  16.583 -0.5178  0.8939  0.2615
 4807TIP3    H135912   4.507   2.630  16.592 -0.1664  1.4564  2.7171
 4807TIP3    H235913   4.638   2.622  16.667  1.7000 -0.0331 -0.5039
 4808TIP3   OH235914   1.845   0.265   5.224  0.5297 -0.0710  0.1796
 4808TIP3    H135915   1.798   0.345   5.201 -0.4468 -1.1960 -2.0375
 4808TIP3    H235916   1.914   0.258   5.159  0.0844 -1.4318 -0.1770
 4809TIP3   OH235917   5.111   4.322   1.775 -0.1305 -0.0952 -0.2839
 4809TIP3    H135918   5.165   4.391   1.737  0.0930 -0.7104 -1.1376
 4809TIP3    H235919   5.021   4.343   1.748 -0.0611 -0.1481 -0.5552
 4810TIP3   OH235920   6.470   5.206  17.051 -0.4471  0.1432 -0.2658
 4810TIP3    H135921   6.407   5.258  17.002 -0.6108  0.3435  0.1517
 4810TIP3    H235922   6.433   5.118  17.054 -0.1563 -0.0068 -0.9971
 4811TIP3   OH235923   5.971   3.342  13.551 -0.4002 -0.0620  0.7961
 4811TIP3    H135924   6.060   3.320  13.578 -0.5359  1.4158  2.6698
 4811TIP3    H235925   5.946   3.414  13.609 -2.3941  0.3450 -0.4831
 4812TIP3   OH235926   4.491   5.760   1.078  0.1299 -0.1053  0.3493
 4812TIP3    H135927   4.444   5.843   1.091 -0.2739  0.0705 -1.9354
 4812TIP3    H235928   4.569   5.784   1.029  0.1502 -1.0296 -0.0851
 4813TIP3   OH235929   3.391   5.710  14.215 -0.2138  0.0806 -0.0998
 4813TIP3    H135930   3.413   5.731  14.306  1.1713  0.0692 -0.4054
 4813TIP3    H235931   3.398   5.794  14.169  0.1369 -0.1037 -0.3846
 4814TIP3   OH235932   0.732   5.107   5.341  0.3290 -0.5132  0.3277
 4814TIP3    H135933   0.702   5.140   5.256 -1.4187 -1.6545  0.4472
 4814TIP3    H235934   0.794   5.037   5.319  1.0385  0.1998  0.0309
 4815TIP3   OH235935   3.366   1.824   0.183 -0.2767 -0.3964  0.3959
 4815TIP3    H135936   3.353   1.768   0.106 -0.4547  0.6096 -0.3363
 4815TIP3    H235937   3.293   1.887   0.179 -1.2991 -1.3507  2.3612
 4816TIP3   OH235938   2.522   3.800   5.288 -0.2118 -0.7470  0.2686
 4816TIP3    H135939   2.544   3.855   5.213 -0.9751 -1.0355 -0.1805
 4816TIP3    H235940   2.602   3.797   5.340 -0.3855  1.4985  0.7509
 4817TIP3   OH235941   2.657   3.951   6.425 -0.0818  0.7208 -0.3462
 4817TIP3    H135942   2.642   3.993   6.510 -1.2577 -0.9398  0.3324
 4817TIP3    H235943   2.733   3.895   6.439  1.3709  2.3932 -1.1954
 4818TIP3   OH235944   0.413   2.197   1.358  0.5198 -0.0285 -0.3773
 4818TIP3    H135945   0.469   2.135   1.405  0.7677 -0.1681 -0.8459
 4818TIP3    H235946   0.403   2.158   1.271 -0.0028  0.1837 -0.4121
 4819TIP3   OH235947   3.465   6.780  13.529  0.4708  0.5437  0.4834
 4819TIP3    H135948   3.507   6.741  13.606  0.2411  1.4621  1.0771
 4819TIP3    H235949   3.380   6.810  13.559  0.0727  0.2687 -0.3128
 4820TIP3   OH235950   0.762   4.623   4.063  0.4985 -0.0363 -0.7144
 4820TIP3    H135951   0.763   4.696   4.001 -0.0147 -1.0283 -1.9375
 4820TIP3    H235952   0.832   4.565   4.033 -0.5933 -1.1594 -1.1868
 4821TIP3   OH235953   0.797   4.405  11.258 -0.2021  0.1846  0.0456
 4821TIP3    H135954   0.805   4.478  11.320  0.4179  0.7180 -0.6445
 4821TIP3    H235955   0.722   4.355  11.290  0.7404 -0.1717  1.8554
 4822TIP3   OH235956   3.175   2.774   5.412  0.0509 -0.1635  0.2220
 4822TIP3    H135957   3.098   2.772   5.469 -0.4107 -0.0123 -0.3825
 4822TIP3    H235958   3.175   2.689   5.367 -1.7018  1.0037 -2.2482
 4823TIP3   OH235959   5.333   1.009  10.285  0.2043  0.0925  0.2283
 4823TIP3    H135960   5.396   1.039  10.350 -0.1424  0.1031  0.5651
 4823TIP3    H235961   5.347   1.066  10.209 -0.3882  1.0617  0.8267
 4824TIP3   OH235962   1.638   0.659   1.262  0.1940 -0.2691 -0.1574
 4824TIP3    H135963   1.627   0.651   1.357 -1.3341 -0.0490 -0.2969
 4824TIP3    H235964   1.554   0.631   1.226  0.6264  0.0327 -1.4310
 4825TIP3   OH235965   1.954   2.991  10.285  0.8962 -0.1988 -0.1801
 4825TIP3    H135966   1.864   2.977  10.316  0.2785 -1.7836 -2.3998
 4825TIP3    H235967   1.975   2.911  10.237  2.3044  1.3779 -2.3622
 4826TIP3   OH235968   5.059   1.321   3.803 -0.4970 -0.4766 -0.1959
 4826TIP3    H135969   5.103   1.240   3.828  1.2324  0.7678  0.9706
 4826TIP3    H235970   5.025   1.303   3.715 -1.2378 -2.8418  0.4736
 4827TIP3   OH235971   3.446   3.973   4.947  0.6762 -0.0315  0.1211
 4827TIP3    H135972   3.519   3.974   5.009  0.3854 -1.8688  0.5458
 4827TIP3    H235973   3.369   3.963   5.003  0.1034  1.5225 -0.3487
 4828TIP3   OH235974   6.564   2.687  17.089  0.1961 -0.3174  0.0270
 4828TIP3    H135975   6.473   2.699  17.062 -0.2257 -1.5484  0.7915
 4828TIP3    H235976   6.616   2.721  17.016 -0.8553  1.2230 -0.0467
 4829TIP3   OH235977   3.385   5.419   0.720  0.2070  0.1761  0.2520
 4829TIP3    H135978   3.425   5.495   0.762 -0.3391  0.6155 -0.0044
 4829TIP3    H235979   3.321   5.457   0.660  0.4034 -0.4658 -0.3729
 4830TIP3   OH235980   3.741   0.628  14.528  0.3987 -0.6098  0.5604
 4830TIP3    H135981   3.797   0.638  14.451  1.9481 -2.0015  1.4325
 4830TIP3    H235982   3.656   0.663  14.501  0.9912 -0.7382 -1.6558
 4831TIP3   OH235983   0.286   6.117   5.155  0.0068  0.2577 -0.2040
 4831TIP3    H135984   0.342   6.121   5.232  0.3552  0.6951 -0.4679
 4831TIP3    H235985   0.268   6.024   5.142  2.7603 -0.2158 -1.5745
 4832TIP3   OH235986   0.465   2.531  12.481  0.8265 -0.0580 -0.0330
 4832TIP3    H135987   0.561   2.534  12.490  0.6591  0.5956  1.7660
 4832TIP3    H235988   0.450   2.460  12.418  2.4406 -0.8907  0.4617
 4833TIP3   OH235989   5.627   5.588  16.816 -0.1511 -0.3459 -0.1023
 4833TIP3    H135990   5.715   5.601  16.853 -0.5216 -0.0564  0.6938
 4833TIP3    H235991   5.598   5.505  16.853 -1.1965  0.7473  1.6387
 4834TIP3   OH235992   1.927   4.577  12.258 -0.1085 -0.1831 -0.4721
 4834TIP3    H135993   1.897   4.592  12.347  0.6199 -0.7892 -0.1147
 4834TIP3    H235994   1.970   4.659  12.233 -1.0485  0.2850 -0.5819
 4835TIP3   OH235995   4.483   1.436   6.518  0.1711 -0.5701  0.2783
 4835TIP3    H135996   4.405   1.486   6.494 -0.0570 -0.8464  0.4358
 4835TIP3    H235997   4.475   1.355   6.469  0.0114 -0.8837  0.8103
 4836TIP3   OH235998   2.039   6.238   1.163 -0.0069  0.2859  0.2578
 4836TIP3    H135999   1.988   6.319   1.172 -0.2503  0.2069 -0.3188
 4836TIP3    H236000   2.100   6.257   1.092 -1.9562 -0.9388 -1.8964
 4837TIP3   OH236001   1.057   0.281  15.719 -0.5374  0.5586 -0.6644
 4837TIP3    H136002   0.981   0.323  15.759  0.0140 -0.3630  1.4554
 4837TIP3    H236003   1.019   0.220  15.656 -1.6110 -0.2002  0.6623
 4838TIP3   OH236004   6.792   1.199  11.706  0.0992  0.2905 -0.3608
 4838TIP3    H136005   6.707   1.155  11.708 -0.5037  1.3970 -0.7330
 4838TIP3    H236006   6.817   1.197  11.613  0.0007  0.8411 -0.4007
 4839TIP3   OH236007   4.718   4.973  16.313 -0.0181 -0.1662  0.0161
 4839TIP3    H136008   4.711   5.068  16.301 -0.2246  0.0019  1.3186
 4839TIP3    H236009   4.652   4.936  16.256 -3.0684  0.7334  2.6632
 4840TIP3   OH236010   2.197   3.485   1.417 -0.2163  0.2056 -0.7425
 4840TIP3    H136011   2.226   3.434   1.341 -1.1408 -3.8871  1.3624
 4840TIP3    H236012   2.277   3.506   1.464  0.1494  0.1500 -1.3315
 4841TIP3   OH236013   2.621   5.251  14.211  0.7798  0.3048  0.0999
 4841TIP3    H136014   2.618   5.225  14.303  0.7351  1.6356  0.4998
 4841TIP3    H236015   2.680   5.327  14.209 -0.8873  1.6511 -0.5861
 4842TIP3   OH236016   4.556   1.695   0.400  0.2083 -0.3681 -0.0867
 4842TIP3    H136017   4.631   1.701   0.460  0.0240  0.1949  0.0894
 4842TIP3    H236018   4.579   1.623   0.340  1.6040  0.8019 -1.0200
 4843TIP3   OH236019   3.184   3.794   6.087 -0.4170  0.3793 -0.4853
 4843TIP3    H136020   3.217   3.842   6.163 -0.2521  0.7195 -0.7710
 4843TIP3    H236021   3.148   3.713   6.124  1.2476 -0.2704 -0.2197
 4844TIP3   OH236022   5.229   5.730  12.688  0.3661 -0.7747 -0.0078
 4844TIP3    H136023   5.298   5.664  12.693 -0.0572 -1.2370 -0.0852
 4844TIP3    H236024   5.194   5.720  12.600  0.9856  0.2717 -0.3789
 4845TIP3   OH236025   2.932   4.668  16.049 -0.7862  0.2349 -0.1959
 4845TIP3    H136026   2.923   4.763  16.059  0.2252  0.4273 -0.9034
 4845TIP3    H236027   2.878   4.631  16.119 -0.4565  1.3427  0.6725
 4846TIP3   OH236028   0.526   5.445   5.125 -0.1907  0.5701  0.6296
 4846TIP3    H136029   0.549   5.513   5.188 -0.6512  0.4784  0.9000
 4846TIP3    H236030   0.463   5.389   5.171  0.9888 -0.6773  0.8016
 4847TIP3   OH236031   4.595   1.342  16.185  0.3514 -0.0034  0.2469
 4847TIP3    H136032   4.637   1.333  16.099 -2.0652 -0.1762 -1.0056
 4847TIP3    H236033   4.661   1.312  16.247  2.7404  1.5504 -1.3778
 4848TIP3   OH236034   3.689   0.327  13.724 -0.1919 -0.3133  0.0380
 4848TIP3    H136035   3.662   0.275  13.800 -1.4458  0.1480 -0.0662
 4848TIP3    H236036   3.754   0.273  13.680  1.2446 -0.2058  1.9169
 4849TIP3   OH236037   5.068   1.502  11.471  0.9747  0.8320 -0.6113
 4849TIP3    H136038   5.011   1.438  11.514  0.1335  0.9488 -1.5223
 4849TIP3    H236039   5.156   1.468  11.483  0.4921 -0.9052 -1.7537
 4850TIP3   OH236040   1.359   3.008   5.887 -0.3121 -0.8035  0.2906
 4850TIP3    H136041   1.334   3.075   5.950 -1.9934 -1.4985  0.4368
 4850TIP3    H236042   1.314   2.929   5.917  0.0254 -1.5068 -0.9534
 4851TIP3   OH236043   3.752   4.329  15.685 -0.0779 -0.6006  0.2124
 4851TIP3    H136044   3.728   4.279  15.607  1.0999  1.1818 -1.3827
 4851TIP3    H236045   3.834   4.289  15.714 -0.2058 -0.8913  0.1796
 4852TIP3   OH236046   0.696   5.247   0.439  0.2231  0.2496 -0.0446
 4852TIP3    H136047   0.709   5.289   0.354 -0.3355 -0.0916 -0.3077
 4852TIP3    H236048   0.685   5.154   0.419 -3.4468  0.5284 -0.0196
 4853TIP3   OH236049   5.505   3.410  15.560 -0.2291 -0.3064  0.2319
 4853TIP3    H136050   5.590   3.452  15.545  0.1284 -0.6656  1.1768
 4853TIP3    H236051   5.499   3.402  15.655 -0.6031 -1.7586  0.1040
 4854TIP3   OH236052   2.585   4.468  14.971  0.3367  0.1679  0.2807
 4854TIP3    H136053   2.503   4.444  15.013  1.5943 -0.7693  2.3268
 4854TIP3    H236054   2.607   4.393  14.916 -0.4418  0.6721 -0.7506
 4855TIP3   OH236055   6.811   3.439   4.321 -0.4539  0.8831 -0.0862
 4855TIP3    H136056   6.807   3.481   4.407  0.5643  1.1507 -0.1520
 4855TIP3    H236057   6.789   3.348   4.338  0.1915  0.8379  0.5449
 4856TIP3   OH236058   6.426   4.626   2.701  0.0825 -0.1646 -0.8634
 4856TIP3    H136059   6.454   4.696   2.760  2.5360 -1.2647 -0.5741
 4856TIP3    H236060   6.458   4.655   2.615  2.1466 -1.3543 -0.5616
 4857TIP3   OH236061   0.773   2.424   6.162  0.0489  0.0354  0.1524
 4857TIP3    H136062   0.843   2.360   6.167  0.1985  0.2811  2.0516
 4857TIP3    H236063   0.800   2.484   6.092  1.3232 -0.3487  0.2882
 4858TIP3   OH236064   1.452   6.321  11.652  0.2500  0.2709  0.1721
 4858TIP3    H136065   1.462   6.239  11.603 -1.5541  0.5366 -0.7605
 4858TIP3    H236066   1.462   6.297  11.744  1.0948 -0.7350 -0.1745
 4859TIP3   OH236067   5.419   2.167   4.378 -0.2209 -0.1999  0.0979
 4859TIP3    H136068   5.491   2.156   4.316 -0.3694  1.0420 -0.3362
 4859TIP3    H236069   5.436   2.252   4.420 -1.0140 -0.2477  0.5493
 4860TIP3   OH236070   2.805   1.134  11.716 -0.2244 -0.2953  0.4280
 4860TIP3    H136071   2.893   1.170  11.715 -0.4779  0.3405 -0.7458
 4860TIP3    H236072   2.810   1.056  11.661 -0.3808 -0.3094  0.4316
 4861TIP3   OH236073   6.394   0.735  11.725  0.4533  0.1837 -0.6686
 4861TIP3    H136074   6.301   0.714  11.731  0.5536 -0.3082 -0.8113
 4861TIP3    H236075   6.428   0.676  11.658  1.4844 -1.8577  1.5135
 4862TIP3   OH236076   4.968   6.805   4.161  0.0766 -0.1117  0.4639
 4862TIP3    H136077   4.912   6.733   4.192 -1.1263  0.7647  0.4024
 4862TIP3    H236078   4.944   6.816   4.069 -1.2494  1.6549  0.9624
 4863TIP3   OH236079   4.058   1.673  11.801  0.7538 -0.6247  0.0309
 4863TIP3    H136080   4.114   1.616  11.749  0.2668 -3.1655  2.0635
 4863TIP3    H236081   3.973   1.670  11.757  1.0253 -0.5056 -0.5070
 4864TIP3   OH236082   0.395   4.220   1.482 -0.1952  0.3681  0.5671
 4864TIP3    H136083   0.300   4.222   1.499 -0.1332 -0.2622  1.0178
 4864TIP3    H236084   0.433   4.266   1.557 -0.0106 -1.2488  1.5013
 4865TIP3   OH236085   5.356   3.794   5.594 -0.0502 -0.4349  0.2519
 4865TIP3    H136086   5.361   3.794   5.690 -0.2549  0.4168  0.2766
 4865TIP3    H236087   5.273   3.838   5.575  0.3325  0.0640 -0.3159
 4866TIP3   OH236088   4.997   2.804  12.639 -0.5207 -0.1148  0.4426
 4866TIP3    H136089   4.934   2.748  12.593 -0.9744  0.4030  0.4338
 4866TIP3    H236090   4.946   2.848  12.706 -0.1605  0.2904  0.4542
 4867TIP3   OH236091   4.214   4.610  16.420 -0.0081 -0.1842  0.0493
 4867TIP3    H136092   4.175   4.538  16.470  0.7791 -0.4610  0.2808
 4867TIP3    H236093   4.284   4.643  16.477  0.8010 -0.4058 -0.8011
 4868TIP3   OH236094   4.398   0.227   1.496  0.0391  0.3821 -0.0290
 4868TIP3    H136095   4.393   0.323   1.500 -1.5487  0.3834 -1.3802
 4868TIP3    H236096   4.328   0.201   1.437 -0.3687 -1.7313  1.2783
 4869TIP3   OH236097   5.211   0.441   5.099  0.6342 -0.4709  0.4954
 4869TIP3    H136098   5.272   0.450   5.172  0.0847 -0.2350  0.9344
 4869TIP3    H236099   5.141   0.503   5.119 -1.3929 -2.9589  1.6793
 4870TIP3   OH236100   0.167   0.837  14.246  0.0211  0.5444 -0.0771
 4870TIP3    H136101   0.126   0.924  14.247  0.4573  0.7634  1.1344
 4870TIP3    H236102   0.251   0.852  14.202 -0.2016  0.5806 -0.4979
 4871TIP3   OH236103   4.137   0.332   5.250  0.1533 -0.3861 -0.5063
 4871TIP3    H136104   4.116   0.239   5.260  1.4547 -0.6550 -0.0230
 4871TIP3    H236105   4.170   0.358   5.336  0.1926  0.4125 -0.7599
 4872TIP3   OH236106   2.673   5.047   4.064  0.2234 -0.8928 -0.0084
 4872TIP3    H136107   2.758   5.024   4.101  0.7075  0.6018 -0.0939
 4872TIP3    H236108   2.611   5.035   4.136  0.9769  0.8690  0.9935
 4873TIP3   OH236109   5.435   0.800  13.440 -0.1415  0.1231 -0.5528
 4873TIP3    H136110   5.486   0.720  13.450  0.9433  0.5361 -2.3497
 4873TIP3    H236111   5.485   0.854  13.379 -1.0762  1.9975  0.2333
 4874TIP3   OH236112   5.391   4.908  13.798  0.3427  0.1159  0.2081
 4874TIP3    H136113   5.340   4.989  13.800 -1.2739 -0.8551  0.5781
 4874TIP3    H236114   5.475   4.933  13.761 -0.2867  1.8672 -0.1238
 4875TIP3   OH236115   3.603   1.749  12.483 -0.3453  0.1610 -0.0128
 4875TIP3    H136116   3.540   1.706  12.541  0.0553  0.7578  0.8835
 4875TIP3    H236117   3.628   1.682  12.420 -0.5443 -0.6039  0.7118
 4876TIP3   OH236118   0.743   3.975   0.931  0.0862  0.4014  0.1684
 4876TIP3    H136119   0.827   3.989   0.888  0.5565 -0.2488  0.8389
 4876TIP3    H236120   0.678   3.980   0.861  0.6174  1.5884 -0.2532
 4877TIP3   OH236121   2.898   3.356  16.260 -0.0609 -0.1179 -0.0863
 4877TIP3    H136122   2.938   3.317  16.338 -0.5755  1.6968  1.1421
 4877TIP3    H236123   2.965   3.415  16.225 -0.7664  1.1125  0.5835
 4878TIP3   OH236124   6.281   6.033   1.677 -0.0162 -0.0076  0.1111
 4878TIP3    H136125   6.291   6.048   1.583 -1.5644 -1.4378 -0.3207
 4878TIP3    H236126   6.361   5.986   1.703 -0.0936 -0.6228 -0.7365
 4879TIP3   OH236127   5.355   5.473  15.026  0.3211 -0.2243 -0.3574
 4879TIP3    H136128   5.261   5.455  15.027  0.1252  0.7933  0.4578
 4879TIP3    H236129   5.371   5.521  15.108  1.8511 -1.8997  0.3944
 4880TIP3   OH236130   4.105   5.508  12.575  0.0302  0.4237 -0.5276
 4880TIP3    H136131   4.148   5.422  12.577  0.4550  0.5502 -2.5604
 4880TIP3    H236132   4.084   5.522  12.483 -1.1804  1.9632 -0.0496
 4881TIP3   OH236133   6.757   6.383  13.706  0.3210  0.8237 -0.1309
 4881TIP3    H136134   6.757   6.386  13.611  1.0988  0.2809 -0.1696
 4881TIP3    H236135   6.846   6.355  13.728  0.3589  1.6101  0.7812
 4882TIP3   OH236136   1.818   2.796  12.154 -0.1642 -0.0095 -0.0410
 4882TIP3    H136137   1.798   2.831  12.240 -0.9390 -0.9517  0.1765
 4882TIP3    H236138   1.877   2.861  12.115 -0.2292  0.6871  0.9797
 4883TIP3   OH236139   2.978   4.868  17.161 -0.3965  0.4659  0.2950
 4883TIP3    H136140   3.048   4.812  17.126 -0.6104  0.0149  0.5709
 4883TIP3    H236141   2.981   4.853  17.255  0.1568  1.6442  0.4848
 4884TIP3   OH236142   3.940   4.863   5.291 -0.2936  0.6021 -0.3896
 4884TIP3    H136143   3.848   4.842   5.309 -0.2676  0.8798  0.0773
 4884TIP3    H236144   3.942   4.958   5.284  0.0313  0.6282  0.0325
 4885TIP3   OH236145   3.816   4.108  11.725  0.2794  0.3321 -0.1333
 4885TIP3    H136146   3.756   4.183  11.723  1.6237  1.4261 -0.7563
 4885TIP3    H236147   3.887   4.135  11.783  0.8376 -0.4119 -0.4489
 4886TIP3   OH236148   2.893   4.464  13.334  0.3091 -0.4885 -0.2529
 4886TIP3    H136149   2.846   4.477  13.252  0.1792 -2.0373 -0.4470
 4886TIP3    H236150   2.985   4.467  13.310  0.3214  0.8489 -0.1396
 4887TIP3   OH236151   5.262   6.300   3.597  0.0389  0.4553  0.2101
 4887TIP3    H136152   5.232   6.232   3.657  1.7056 -0.5233 -0.0138
 4887TIP3    H236153   5.269   6.378   3.652  0.1939 -0.0840  0.9715
 4888TIP3   OH236154   6.259   2.102   3.491 -0.0015 -0.3480  0.0800
 4888TIP3    H136155   6.347   2.109   3.528  0.3203 -1.7625 -0.3512
 4888TIP3    H236156   6.249   2.009   3.472 -1.1742 -0.0339 -0.9115
 4889TIP3   OH236157   6.061   2.883  12.450  0.1492  0.0631  0.3027
 4889TIP3    H136158   6.031   2.963  12.407 -1.5623 -0.7494 -0.0907
 4889TIP3    H236159   6.081   2.910  12.539  0.7053  1.1435 -0.1252
 4890TIP3   OH236160   4.172   4.087  13.856 -0.3766  0.0388  0.1645
 4890TIP3    H136161   4.180   4.003  13.811  0.3199  0.3945 -0.4052
 4890TIP3    H236162   4.175   4.065  13.949  2.2656 -0.3993  0.0465
 4891TIP3   OH236163   4.634   3.658   5.079 -0.3996 -0.2673 -0.7503
 4891TIP3    H136164   4.631   3.608   5.161  4.0357  1.7156  0.9430
 4891TIP3    H236165   4.651   3.592   5.012  1.2341 -1.5409  0.8068
 4892TIP3   OH236166   5.408   0.406   5.277  0.1387 -0.0099 -0.5025
 4892TIP3    H136167   5.404   0.314   5.305  0.3057 -1.0134 -3.4957
 4892TIP3    H236168   5.471   0.446   5.338  2.5108 -2.6595 -0.9857
 4893TIP3   OH236169   1.340   4.268  14.327 -0.2682  0.4128 -0.0350
 4893TIP3    H136170   1.316   4.245  14.416  0.3658 -2.8594 -0.5698
 4893TIP3    H236171   1.296   4.352  14.310 -2.1513  0.0565  2.5795
 4894TIP3   OH236172   4.604   3.385  13.520  0.4305 -0.6424 -0.1183
 4894TIP3    H136173   4.685   3.409  13.563  0.6571 -0.7667 -0.4748
 4894TIP3    H236174   4.549   3.349  13.590  0.3750  0.1911  0.2734
 4895TIP3   OH236175   5.108   6.399   2.453 -0.1293 -0.4993 -0.1823
 4895TIP3    H136176   5.111   6.480   2.402 -2.0557 -0.2499  0.0011
 4895TIP3    H236177   5.105   6.428   2.544 -0.9025 -0.7531 -0.1177
 4896TIP3   OH236178   5.255   4.613   4.822  0.1807  0.1079 -0.4304
 4896TIP3    H136179   5.288   4.577   4.904 -2.0556 -1.5597 -0.1581
 4896TIP3    H236180   5.300   4.564   4.754  0.5673  0.0888 -0.1641
 4897TIP3   OH236181   2.611   6.291  11.938 -0.4003  0.7092 -0.3050
 4897TIP3    H136182   2.642   6.249  12.018  2.0646 -2.9007 -2.8735
 4897TIP3    H236183   2.540   6.235  11.907 -0.4452  1.2996 -1.3161
 4898TIP3   OH236184   4.366   3.956   5.787 -0.1015 -0.1539 -0.0937
 4898TIP3    H136185   4.292   3.924   5.735 -1.7733  0.5926  1.6802
 4898TIP3    H236186   4.407   3.877   5.823 -0.7632 -0.5432 -0.1813
 4899TIP3   OH236187   4.919   0.283   0.825  0.0548  0.3769 -0.1097
 4899TIP3    H136188   4.980   0.357   0.826 -0.5468  0.9307  1.9945
 4899TIP3    H236189   4.837   0.321   0.793 -0.0612  0.4437  0.2657
 4900TIP3   OH236190   0.911   6.558  14.112  0.2232  0.1317  0.0268
 4900TIP3    H136191   0.873   6.530  14.029  1.6193  0.3076 -0.7072
 4900TIP3    H236192   0.855   6.629  14.143  0.7139  1.3401 -1.7136
 4901TIP3   OH236193   6.733   0.492   3.223  0.7360 -0.3367 -0.0174
 4901TIP3    H136194   6.774   0.559   3.168 -0.0719 -0.7736 -1.1940
 4901TIP3    H236195   6.698   0.540   3.298  1.6615  0.3078  0.0180
 4902TIP3   OH236196   0.605   1.047   1.697 -0.3028 -0.6634 -0.2912
 4902TIP3    H136197   0.625   1.133   1.661 -0.3012  0.0234  1.2726
 4902TIP3    H236198   0.550   1.006   1.631 -0.2390  0.5008 -1.1052
 4903TIP3   OH236199   5.734   1.633  16.522  0.1133  0.7130  0.6047
 4903TIP3    H136200   5.703   1.555  16.568 -0.1903  1.3767  1.5674
 4903TIP3    H236201   5.768   1.689  16.592 -2.3907  2.7211  0.3539
 4904TIP3   OH236202   2.146   6.840  12.232 -0.5123  0.6133 -0.3141
 4904TIP3    H136203   2.084   6.844  12.304 -1.2312  1.0977 -0.9453
 4904TIP3    H236204   2.152   6.747  12.210  0.2568  0.3828  0.8181
 4905TIP3   OH236205   5.410   5.543  14.557  0.7570  0.4133 -0.4918
 4905TIP3    H136206   5.434   5.532  14.465 -0.0201  0.3773 -0.6945
 4905TIP3    H236207   5.322   5.581  14.555  0.6513  0.2228  0.2349
 4906TIP3   OH236208   6.336   1.501   4.787  0.2630  0.0956  0.0400
 4906TIP3    H136209   6.427   1.477   4.800  0.7874  1.4507 -0.8695
 4906TIP3    H236210   6.303   1.435   4.725  1.2410  0.7696 -1.2585
 4907TIP3   OH236211   2.942   6.829   3.707 -0.0427  0.6653  0.4372
 4907TIP3    H136212   3.010   6.889   3.738  0.0261  1.2485 -0.7901
 4907TIP3    H236213   2.955   6.825   3.612 -0.5985 -0.6251  0.3962
 4908TIP3   OH236214   4.260   0.300   0.315  0.2309 -0.0917  0.1610
 4908TIP3    H136215   4.167   0.320   0.313  0.4787  1.1088 -0.3591
 4908TIP3    H236216   4.280   0.271   0.226  1.1167  3.6163 -1.0109
 4909TIP3   OH236217   3.802   2.601   2.071  0.0120  0.2550  0.3130
 4909TIP3    H136218   3.867   2.563   2.129  0.9006  1.1900 -0.0265
 4909TIP3    H236219   3.844   2.679   2.035  0.0592 -0.9774 -2.6480
 4910TIP3   OH236220   0.257   5.909  16.753 -0.4669 -0.0593  0.4063
 4910TIP3    H136221   0.188   5.849  16.782  0.2193 -0.9406  0.2458
 4910TIP3    H236222   0.319   5.912  16.827 -0.3495  0.2260  0.2989
 4911TIP3   OH236223   5.269   3.196   3.950 -0.5480  0.1265 -0.6671
 4911TIP3    H136224   5.315   3.168   3.871  1.1833  1.2777 -0.1391
 4911TIP3    H236225   5.214   3.121   3.974 -0.8788 -0.3521 -2.7595
 4912TIP3   OH236226   1.984   6.106   5.508  0.3206  0.6075  0.2847
 4912TIP3    H136227   2.068   6.149   5.493 -0.6347  1.5389 -3.3947
 4912TIP3    H236228   1.998   6.015   5.484 -0.0005  1.0810 -1.8727
 4913TIP3   OH236229   5.704   4.476   2.435  0.4496  0.4660  0.2086
 4913TIP3    H136230   5.677   4.552   2.486 -0.7903  0.7464 -0.8005
 4913TIP3    H236231   5.799   4.476   2.440  0.3785  0.5650  2.3535
 4914TIP3   OH236232   4.276   2.726  17.140 -0.1182 -0.2123  0.0345
 4914TIP3    H136233   4.317   2.640  17.132  0.9101  0.2500  0.2540
 4914TIP3    H236234   4.239   2.743  17.053  0.0165 -0.7097 -0.1192
 4915TIP3   OH236235   4.279   0.601   0.445  0.1877 -0.4072  0.2422
 4915TIP3    H136236   4.312   0.512   0.458 -1.2303 -1.6168 -3.1903
 4915TIP3    H236237   4.273   0.610   0.350 -1.2248  2.8207  0.5219
 4916TIP3   OH236238   5.468   4.391   3.557 -0.2831  0.1600 -0.3477
 4916TIP3    H136239   5.429   4.478   3.555  1.0813  0.8102  0.0921
 4916TIP3    H236240   5.460   4.359   3.467 -1.9074  0.2058 -0.2413
 4917TIP3   OH236241   3.624   4.935  12.617 -0.5812  0.3121 -0.2790
 4917TIP3    H136242   3.575   4.905  12.540 -0.7968  1.5100 -0.6310
 4917TIP3    H236243   3.616   5.031  12.615 -0.7281  0.3643  1.3343
 4918TIP3   OH236244   0.852   6.304  17.093  0.5350 -0.2461 -0.8722
 4918TIP3    H136245   0.929   6.351  17.125  0.8173 -0.9974 -0.4114
 4918TIP3    H236246   0.871   6.212  17.112 -2.1875 -0.2471  3.2118
 4919TIP3   OH236247   2.954   1.908  15.517  0.2866 -0.4630 -0.8197
 4919TIP3    H136248   2.938   1.873  15.605  1.7973  0.6274 -0.0488
 4919TIP3    H236249   3.025   1.853  15.482  0.4437 -0.2106 -0.9006
 4920TIP3   OH236250   3.047   5.225   0.179 -0.4777 -0.1431 -0.4846
 4920TIP3    H136251   3.032   5.293   0.244 -0.8969  0.9856 -1.7378
 4920TIP3    H236252   2.961   5.209   0.140 -0.3129 -1.1184 -0.4815
 4921TIP3   OH236253   2.141   5.340   0.213  0.0884  0.0961 -0.1989
 4921TIP3    H136254   2.160   5.291   0.293  0.7538 -0.3285 -0.6073
 4921TIP3    H236255   2.109   5.274   0.152 -1.5092  0.5938  0.0576
 4922TIP3   OH236256   1.306   5.402   0.006 -0.3483  0.4515 -0.2213
 4922TIP3    H136257   1.266   5.453  -0.064 -1.4766 -2.0754 -1.5351
 4922TIP3    H236258   1.398   5.428   0.006 -0.9496  2.7907 -0.4590
 4923TIP3   OH236259   4.872   3.851  10.964 -0.1420 -0.0386 -0.1482
 4923TIP3    H136260   4.820   3.859  10.884  1.0212 -0.0601 -0.9420
 4923TIP3    H236261   4.909   3.939  10.978 -1.6712  0.4132  1.3460
 4924TIP3   OH236262   5.055   3.716   0.267 -0.3555  0.4838 -0.0784
 4924TIP3    H136263   5.004   3.746   0.192 -0.4741 -0.9134 -0.5839
 4924TIP3    H236264   5.006   3.748   0.343  0.0988  2.4578 -0.5450
 4925TIP3   OH236265   6.368   1.890   0.001  0.1187  0.3413  0.5060
 4925TIP3    H136266   6.282   1.859  -0.028  0.2881  0.6277 -0.3471
 4925TIP3    H236267   6.426   1.871  -0.073  0.6688  0.6603  0.8524
 4926TIP3   OH236268   1.971   2.196  13.025 -0.1427 -0.5290  0.4571
 4926TIP3    H136269   1.904   2.265  13.019  0.4771  0.0886  0.6009
 4926TIP3    H236270   1.948   2.147  13.104  0.4633  0.6309  1.3675
 4927TIP3   OH236271   1.413   0.028  15.331 -0.1858 -0.7188 -0.3006
 4927TIP3    H136272   1.494   0.006  15.377 -0.3733 -1.3446 -0.2665
 4927TIP3    H236273   1.344  -0.009  15.386 -0.4876 -0.3509 -0.4289
 4928TIP3   OH236274   3.429   0.571   1.507  0.3890 -0.1775  0.5848
 4928TIP3    H136275   3.511   0.579   1.458  0.1722  0.2106  0.2772
 4928TIP3    H236276   3.452   0.594   1.597  0.2919  1.5811  0.1888
 4929TIP3   OH236277   3.157   5.802   5.700  0.4546 -0.4420 -0.5446
 4929TIP3    H136278   3.241   5.846   5.712  0.6765 -0.9364 -0.2248
 4929TIP3    H236279   3.173   5.713   5.730 -0.9664  0.2002  2.5467
 4930TIP3   OH236280   6.254   0.661   0.297 -0.1185 -0.3423 -0.4754
 4930TIP3    H136281   6.288   0.582   0.339  1.3964  0.4468 -0.1191
 4930TIP3    H236282   6.307   0.671   0.218  0.1157  0.6334 -0.2020
 4931TIP3   OH236283   5.956   1.379   0.274  0.2836 -0.4956 -0.5005
 4931TIP3    H136284   5.933   1.367   0.366 -0.2663 -1.4347 -0.7482
 4931TIP3    H236285   5.981   1.291   0.244  1.1198 -0.0720 -1.0677
 4932TIP3   OH236286   4.162   6.834   6.329  1.0416 -0.9291 -0.2629
 4932TIP3    H136287   4.157   6.928   6.310 -1.0133 -1.2747 -1.6831
 4932TIP3    H236288   4.234   6.802   6.274  0.9838 -0.3938 -0.6523
 4933TIP3   OH236289   1.833   0.976   3.038 -0.5431 -0.4328  0.2872
 4933TIP3    H136290   1.794   1.000   3.122 -1.7283  1.6135 -0.7826
 4933TIP3    H236291   1.870   1.057   3.004  2.5269 -1.7817  0.0677
 4934TIP3   OH236292   4.134   1.966  14.149  0.0336 -0.3344 -0.2240
 4934TIP3    H136293   4.103   1.949  14.238 -0.1744 -0.2472 -0.2789
 4934TIP3    H236294   4.229   1.973  14.158 -0.0149 -0.0019  0.0462
 4935TIP3   OH236295   0.288   0.914  13.105 -0.0458  0.5665  0.0748
 4935TIP3    H136296   0.226   0.934  13.035 -1.1947 -2.5582  0.0528
 4935TIP3    H236297   0.359   0.867  13.061 -0.3535 -0.6519  0.8346
 4936TIP3   OH236298   4.244   2.590   4.535 -0.1626 -0.1580 -0.0511
 4936TIP3    H136299   4.201   2.624   4.456  1.9206  0.3804 -1.0031
 4936TIP3    H236300   4.174   2.588   4.600 -2.3246 -1.8578 -2.2090
 4937TIP3   OH236301   3.661   4.191  15.439  0.0400 -0.4058 -0.2770
 4937TIP3    H136302   3.613   4.146  15.369 -0.8623 -1.1586  0.7937
 4937TIP3    H236303   3.753   4.185  15.412 -0.0084 -3.0168 -0.1578
 4938TIP3   OH236304   3.641   1.517  15.994 -0.3173 -0.5813  0.0422
 4938TIP3    H136305   3.735   1.507  15.982 -0.5399 -0.8140 -1.7646
 4938TIP3    H236306   3.621   1.465  16.072  1.0577 -0.3122  0.6149
 4939TIP3   OH236307   0.854   4.828   3.873 -0.0658 -0.5543 -0.5687
 4939TIP3    H136308   0.888   4.918   3.875  1.0565 -0.9679  1.5736
 4939TIP3    H236309   0.918   4.780   3.821  0.1127 -0.3944 -0.4982
 4940TIP3   OH236310   5.490   5.799   5.665  0.6163 -0.4639 -0.3796
 4940TIP3    H136311   5.519   5.830   5.579 -1.0389  1.7260 -0.2334
 4940TIP3    H236312   5.547   5.844   5.727 -0.5462  0.8691 -0.2371
 4941TIP3   OH236313   3.442   4.317   6.278 -0.1352 -0.4320 -0.2728
 4941TIP3    H136314   3.361   4.281   6.314 -0.9955  1.9507  0.3498
 4941TIP3    H236315   3.416   4.397   6.233  1.9244  0.8669  0.6556
 4942TIP3   OH236316   1.764   5.122  13.787  0.4680 -0.6743  0.1208
 4942TIP3    H136317   1.800   5.086  13.706  0.8648  0.1743 -0.0857
 4942TIP3    H236318   1.762   5.047  13.847  0.5037 -1.2310 -0.5515
 4943TIP3   OH236319   4.220   3.611  15.002 -0.2097 -0.0310  0.0296
 4943TIP3    H136320   4.274   3.538  14.971 -1.3430 -0.7880 -0.2304
 4943TIP3    H236321   4.141   3.569  15.036 -1.0741  1.1088 -0.5120
 4944TIP3   OH236322   1.154   5.344   3.194  0.0337 -0.0571  0.2677
 4944TIP3    H136323   1.224   5.280   3.181 -1.1242 -1.2052 -0.5265
 4944TIP3    H236324   1.147   5.353   3.289  1.1825  0.0142  0.3622
 4945TIP3   OH236325   5.411   2.773   6.166  0.0142 -0.2767 -0.0007
 4945TIP3    H136326   5.476   2.839   6.189 -0.4062  0.6420 -1.3333
 4945TIP3    H236327   5.345   2.780   6.234  0.3643  0.1304  0.3024
 4946TIP3   OH236328   0.234   0.092  13.192  0.1320  0.1598 -0.2040
 4946TIP3    H136329   0.178   0.170  13.202 -0.3710 -0.1578 -0.4939
 4946TIP3    H236330   0.267   0.076  13.280  1.4056  1.5430 -0.3883
 4947TIP3   OH236331   1.627   2.168  16.130  0.5202  0.1129 -0.6186
 4947TIP3    H136332   1.654   2.076  16.133  1.3393  0.3519 -0.5123
 4947TIP3    H236333   1.691   2.210  16.072  0.3919  0.6899 -0.3511
 4948TIP3   OH236334   0.249   6.654  11.623 -0.0422 -0.2108  0.7444
 4948TIP3    H136335   0.339   6.639  11.595  0.4545  0.8185  1.6835
 4948TIP3    H236336   0.195   6.629  11.548  0.6996 -4.7120  1.4754
 4949TIP3   OH236337   0.288   4.277  16.639 -0.0620 -0.1321 -0.0095
 4949TIP3    H136338   0.278   4.346  16.574 -0.9578 -0.6688 -0.4722
 4949TIP3    H236339   0.350   4.312  16.703 -0.8347  1.2728  0.0015
 4950TIP3   OH236340   3.791   3.214   1.424 -0.3684 -0.6633  0.2215
 4950TIP3    H136341   3.741   3.238   1.347 -1.6494 -0.7067  1.0009
 4950TIP3    H236342   3.882   3.214   1.395 -0.8511 -1.1391 -1.3951
 4951TIP3   OH236343   3.530   1.968   0.673  0.2286  0.0387 -0.0902
 4951TIP3    H136344   3.490   2.028   0.611  0.4168 -0.6493 -0.8980
 4951TIP3    H236345   3.457   1.932   0.723 -0.0840 -0.4633 -0.8832
 4952TIP3   OH236346   6.789   1.066   1.924  0.9121  0.1698 -0.4547
 4952TIP3    H136347   6.795   1.077   1.829  0.1691 -1.9924 -0.8055
 4952TIP3    H236348   6.848   1.132   1.959  2.0235  0.3249 -2.4513
 4953TIP3   OH236349   1.252   3.144  10.987 -0.8098  0.2564 -0.2365
 4953TIP3    H136350   1.342   3.177  10.988 -0.7330  0.0512  1.0992
 4953TIP3    H236351   1.240   3.112  10.897  0.7511 -0.5170 -0.2225
 4954TIP3   OH236352   3.208   0.935  11.512 -0.3224  0.8540  0.2742
 4954TIP3    H136353   3.206   0.986  11.431 -1.5274  0.3764 -0.0223
 4954TIP3    H236354   3.147   0.863  11.497  1.7421 -1.0280  0.4806
 4955TIP3   OH236355   0.690   2.326   2.050 -0.5257  0.1315  0.4418
 4955TIP3    H136356   0.631   2.251   2.046 -1.3867  0.7834  0.7015
 4955TIP3    H236357   0.690   2.351   2.142  0.4741 -0.0970  0.5154
 4956TIP3   OH236358   1.782   2.781   1.310  0.3776 -0.1367  0.3074
 4956TIP3    H136359   1.749   2.867   1.282 -0.0554 -0.8007 -1.3287
 4956TIP3    H236360   1.705   2.734   1.341  0.2590 -0.6346 -0.7091
 4957TIP3   OH236361   1.631   3.485  12.229 -0.1351 -0.2514  0.4041
 4957TIP3    H136362   1.570   3.413  12.241  0.1493 -0.8476 -1.3925
 4957TIP3    H236363   1.578   3.555  12.191 -0.2318  0.2249  1.3690
 4958TIP3   OH236364   0.602   4.904  14.149 -0.1344 -0.0925  0.3603
 4958TIP3    H136365   0.554   4.881  14.228 -2.1743  2.8299  0.1452
 4958TIP3    H236366   0.555   4.860  14.078  1.2152 -2.0648  0.6313
 4959TIP3   OH236367   0.486   3.977   5.311 -0.0593 -0.0827  0.7248
 4959TIP3    H136368   0.405   4.015   5.277 -1.2155 -0.8352  2.4562
 4959TIP3    H236369   0.493   4.012   5.400  1.7767  0.2881  0.4800
 4960TIP3   OH236370   0.476   3.383  17.068  0.0578  0.4022  0.2246
 4960TIP3    H136371   0.425   3.325  17.011 -0.3816  0.2154  0.7907
 4960TIP3    H236372   0.462   3.471  17.033  0.8845  0.1527 -0.7553
 4961TIP3   OH236373   5.310   5.445  10.428 -0.2362  0.5197  0.4722
 4961TIP3    H136374   5.397   5.407  10.419 -0.8919 -1.6341  2.1538
 4961TIP3    H236375   5.309   5.519  10.368  1.8788 -0.9212 -1.5015
 4962TIP3   OH236376   1.972   4.736   1.326 -0.1881 -0.3933 -0.2456
 4962TIP3    H136377   1.878   4.729   1.343 -0.2701  2.4297  0.9701
 4962TIP3    H236378   1.980   4.799   1.255  0.8037 -1.0345 -0.7417
 4963TIP3   OH236379   5.224   2.382   0.296 -0.1186 -0.1772  0.1266
 4963TIP3    H136380   5.204   2.307   0.239  0.2720 -1.3784  1.5104
 4963TIP3    H236381   5.149   2.386   0.356  0.0498  0.3015  0.3017
 4964TIP3   OH236382   0.457   2.966  12.740  0.0839  0.3137 -0.2650
 4964TIP3    H136383   0.365   2.986  12.727  0.1754  1.0238  0.1195
 4964TIP3    H236384   0.502   3.006  12.665  0.2920  1.8312  0.6223
 4965TIP3   OH236385   0.523   5.573  14.812  0.2693  0.0669 -0.3510
 4965TIP3    H136386   0.554   5.493  14.854 -0.8867 -1.3597 -2.0677
 4965TIP3    H236387   0.550   5.565  14.721  0.4279  1.8223 -0.5090
 4966TIP3   OH236388   1.164   3.869   4.138 -0.1431 -0.0588  0.1517
 4966TIP3    H136389   1.233   3.816   4.177 -1.0522 -0.1524  1.7438
 4966TIP3    H236390   1.155   3.944   4.198 -1.2420  0.0613 -0.1459
 4967TIP3   OH236391   6.759   4.577  16.518  0.2725  0.0249  0.1025
 4967TIP3    H136392   6.784   4.558  16.427  0.9272 -0.8331  0.4482
 4967TIP3    H236393   6.664   4.565  16.520  0.2536  0.0546 -0.4703
 4968TIP3   OH236394   2.942   6.154   1.198 -0.4317 -0.4758  0.2134
 4968TIP3    H136395   2.987   6.089   1.145 -0.4437 -0.1202 -0.2307
 4968TIP3    H236396   2.964   6.238   1.158 -0.3669 -0.1973  0.8203
 4969TIP3   OH236397   0.477   5.512   4.857  0.6233 -0.7437  0.2664
 4969TIP3    H136398   0.427   5.436   4.827 -0.0244 -0.3654  0.3550
 4969TIP3    H236399   0.491   5.497   4.950  0.5786 -0.8080  0.2629
 4970TIP3   OH236400   1.601   4.136  11.088 -0.4075  0.0851 -0.6648
 4970TIP3    H136401   1.660   4.161  11.017 -1.2676  0.6770 -1.1984
 4970TIP3    H236402   1.513   4.148  11.051 -0.9001  1.4865  0.8392
 4971TIP3   OH236403   0.208   0.971   5.532  0.0551  0.5838 -0.5324
 4971TIP3    H136404   0.230   0.906   5.599  0.0264  1.4020  0.2965
 4971TIP3    H236405   0.247   0.937   5.451 -1.8731 -1.5793 -0.6282
 4972TIP3   OH236406   0.200   0.873   4.430  0.2922 -0.1861  0.2021
 4972TIP3    H136407   0.230   0.831   4.349 -0.0093  1.6699 -0.9269
 4972TIP3    H236408   0.109   0.897   4.411  1.0581  2.8538 -0.0621
 4973TIP3   OH236409   1.365   4.288   1.301  0.4014 -0.0112 -0.1745
 4973TIP3    H136410   1.319   4.204   1.303 -0.8965  0.6859  1.0617
 4973TIP3    H236411   1.385   4.303   1.208 -1.9355 -0.3503 -0.7938
 4974TIP3   OH236412   1.441   2.610  12.701  0.7015 -0.1045 -0.4349
 4974TIP3    H136413   1.413   2.555  12.773 -2.3651 -0.6808 -1.9166
 4974TIP3    H236414   1.522   2.570  12.670  0.3515 -1.7346  0.6550
 4975TIP3   OH236415   2.579   0.377  16.833 -0.0049 -0.5412 -0.1977
 4975TIP3    H136416   2.596   0.467  16.862 -1.9732 -0.2990  0.3089
 4975TIP3    H236417   2.537   0.387  16.748 -0.7923 -0.9464  0.1401
 4976TIP3   OH236418   5.324   1.012   4.341 -0.2452  0.5091 -0.1409
 4976TIP3    H136419   5.350   0.963   4.263  0.3405 -1.8483  1.4247
 4976TIP3    H236420   5.297   0.945   4.404 -0.1697  2.2595  1.8856
 4977TIP3   OH236421   1.559   4.594  11.705 -0.3406  0.4648 -0.2504
 4977TIP3    H136422   1.586   4.524  11.645 -1.1452  0.6958 -0.8883
 4977TIP3    H236423   1.581   4.559  11.792  0.4021 -0.0654 -0.6315
 4978TIP3   OH236424   4.431   1.542   2.448  0.1515  0.1193 -0.5622
 4978TIP3    H136425   4.348   1.576   2.482  0.5730  1.0184 -0.4151
 4978TIP3    H236426   4.495   1.563   2.515  0.4594 -0.8207 -0.5507
 4979TIP3   OH236427   5.418   3.668   2.483 -0.0950 -0.1589 -0.0356
 4979TIP3    H136428   5.458   3.723   2.550  0.2751  0.7752 -0.9923
 4979TIP3    H236429   5.337   3.637   2.523  0.4341 -0.1544  1.0702
 4980TIP3   OH236430   3.291   4.473   0.155 -0.2488 -0.2690 -0.3281
 4980TIP3    H136431   3.361   4.534   0.178 -0.2622  0.1999 -1.4601
 4980TIP3    H236432   3.318   4.389   0.193  0.1196  0.2737  0.6265
 4981TIP3   OH236433   6.300   4.400   2.207  0.0589  0.5765 -0.4328
 4981TIP3    H136434   6.337   4.488   2.215 -0.0951  0.7068 -1.0506
 4981TIP3    H236435   6.280   4.374   2.296 -1.4930  1.8580 -0.3527
 4982TIP3   OH236436   1.592   3.265   1.645  0.5199  0.0316 -0.6039
 4982TIP3    H136437   1.614   3.175   1.670 -0.2909  0.4870  2.0734
 4982TIP3    H236438   1.675   3.302   1.614  0.5745 -1.9904 -3.2383
 4983TIP3   OH236439   4.658   0.810   6.343  0.0675  0.2009  0.5191
 4983TIP3    H136440   4.741   0.789   6.387  0.6395  0.4699 -0.4077
 4983TIP3    H236441   4.623   0.725   6.317 -0.3986  0.0140  1.6680
 4984TIP3   OH236442   3.485   4.679  15.950 -0.0358  1.0756  0.9099
 4984TIP3    H136443   3.547   4.750  15.934 -0.8697  1.7821  0.7482
 4984TIP3    H236444   3.540   4.603  15.969  0.9268  1.3328 -0.6245
 4985TIP3   OH236445   5.432   3.575  14.695 -0.4886  0.1445 -0.0979
 4985TIP3    H136446   5.485   3.647  14.730 -1.5466  0.3189  1.2706
 4985TIP3    H236447   5.432   3.588  14.600  2.1347 -0.0740 -0.1820
 4986TIP3   OH236448   4.345   2.694   1.615  0.6892  0.0465  0.0485
 4986TIP3    H136449   4.360   2.774   1.564 -1.2297 -0.9779 -2.3174
 4986TIP3    H236450   4.291   2.639   1.558  1.2193 -2.6075  1.9245
 4987TIP3   OH236451   5.467   1.531  12.154  0.0549  0.0286 -0.0970
 4987TIP3    H136452   5.537   1.504  12.096 -0.2850 -1.0706 -0.0210
 4987TIP3    H236453   5.389   1.535  12.098  0.2423  1.7444 -0.2925
 4988TIP3   OH236454   4.507   4.872   0.119  0.2058  0.6706  0.4682
 4988TIP3    H136455   4.548   4.935   0.058  0.1471  0.4307  0.1779
 4988TIP3    H236456   4.551   4.789   0.100  0.0328  0.5481  0.6017
 4989TIP3   OH236457   4.615   3.174   0.011  0.6305  0.4898 -0.2641
 4989TIP3    H136458   4.674   3.100   0.025 -0.0350 -0.0919 -0.4955
 4989TIP3    H236459   4.607   3.180  -0.084 -0.3982 -0.0081 -0.2132
 4990TIP3   OH236460   3.757   3.943  14.046  0.5208  0.3860  0.2477
 4990TIP3    H136461   3.847   3.913  14.059  1.3144  2.2078 -0.7982
 4990TIP3    H236462   3.723   3.955  14.135  1.1094 -0.7782  0.6550
 4991TIP3   OH236463   6.251   1.835   3.151 -0.4245  0.4708  0.6418
 4991TIP3    H136464   6.164   1.875   3.137 -0.3704  0.1252 -0.9541
 4991TIP3    H236465   6.309   1.910   3.163 -0.4346  0.9349 -1.6793
 4992TIP3   OH236466   3.193   3.352   4.127 -0.0026 -0.5123  0.3709
 4992TIP3    H136467   3.285   3.343   4.104 -0.1878 -2.2107  0.1797
 4992TIP3    H236468   3.175   3.445   4.116  1.4538 -0.2968 -0.4890
 4993TIP3   OH236469   2.300   5.731  10.866 -0.3169 -0.2433  0.3111
 4993TIP3    H136470   2.324   5.824  10.874  0.2058 -0.4171  0.8898
 4993TIP3    H236471   2.204   5.732  10.860 -0.2548  0.3941 -0.7930
 4994TIP3   OH236472   5.017   3.159  15.517 -0.2662 -0.2861 -0.4929
 4994TIP3    H136473   5.045   3.204  15.597  0.4936 -3.1059  0.9683
 4994TIP3    H236474   4.925   3.182  15.507 -0.1400  0.8384  0.6642
 4995TIP3   OH236475   3.300   5.614  13.525 -0.0223  0.1242  0.3899
 4995TIP3    H136476   3.275   5.557  13.453 -0.5543  1.0733 -0.2032
 4995TIP3    H236477   3.355   5.560  13.581 -0.6583 -1.0159 -0.0556
 4996TIP3   OH236478   4.059   6.115   1.749  0.1511 -0.3133  0.2345
 4996TIP3    H136479   4.102   6.191   1.709 -1.1939  1.0874  1.3061
 4996TIP3    H236480   3.967   6.141   1.755 -0.4200 -2.2290  0.2433
 4997TIP3   OH236481   4.244   4.726  14.955  0.2859 -0.5709  0.5346
 4997TIP3    H136482   4.195   4.644  14.962  0.0830 -0.7385 -1.9610
 4997TIP3    H236483   4.335   4.699  14.942  0.4889 -0.3344  1.3771
 4998TIP3   OH236484   0.043   1.738  11.660 -0.0271 -0.2382  0.6891
 4998TIP3    H136485   0.014   1.649  11.679  1.0259 -0.5624  0.8411
 4998TIP3    H236486   0.111   1.756  11.724 -0.1951  0.6631  0.6270
 4999TIP3   OH236487   1.537   0.149  16.556 -0.6408 -0.1613 -0.0048
 4999TIP3    H136488   1.601   0.119  16.620 -0.5715 -0.9189 -0.4209
 4999TIP3    H236489   1.494   0.223  16.599  0.8265  0.6703  0.0887
 5000TIP3   OH236490   2.719   5.732  15.690 -0.1942  0.3750 -0.4657
 5000TIP3    H136491   2.714   5.704  15.598  0.3647 -2.9171  0.3703
 5000TIP3    H236492   2.811   5.753  15.704  0.3000 -1.7830 -0.0809
 5001TIP3   OH236493   3.590   2.674   4.283 -0.4717  0.2151  0.4194
 5001TIP3    H136494   3.608   2.593   4.331 -2.5568 -0.3370  0.3851
 5001TIP3    H236495   3.495   2.686   4.293 -0.2053  2.6702  0.4428
 5002TIP3   OH236496   0.096   6.233  11.105 -1.0515 -0.9156 -0.0283
 5002TIP3    H136497   0.121   6.273  11.021 -1.3952 -0.2389  0.1829
 5002TIP3    H236498   0.017   6.183  11.085 -2.8788  1.5898  0.4243
 5003TIP3   OH236499   2.342   2.237   4.785 -0.1649  0.0290 -0.0094
 5003TIP3    H136500   2.256   2.275   4.765  0.4434  1.2868 -0.3486
 5003TIP3    H236501   2.353   2.168   4.719 -0.3332  0.7872 -0.8547
 5004TIP3   OH236502   3.953   3.532   4.399  0.1906 -0.0946 -0.0634
 5004TIP3    H136503   3.921   3.561   4.484  0.1420  2.5598 -0.9069
 5004TIP3    H236504   3.920   3.443   4.391 -1.7235  0.3635  1.7430
 5005TIP3   OH236505   4.453   0.142   4.090 -0.8150 -0.5452  0.1689
 5005TIP3    H136506   4.470   0.048   4.100  0.2418 -0.4933 -0.8038
 5005TIP3    H236507   4.539   0.182   4.104 -0.8836  0.1082 -1.1772
 5006TIP3   OH236508   1.296   5.722   4.884 -0.0683  0.0686  0.1171
 5006TIP3    H136509   1.390   5.718   4.863  0.0195  1.1993  0.2188
 5006TIP3    H236510   1.255   5.756   4.805 -0.0586  1.9485  0.8807
 5007TIP3   OH236511   2.415   0.032   6.058  0.6583  0.0046  0.0589
 5007TIP3    H136512   2.320   0.042   6.066  0.7779  0.0662  1.8036
 5007TIP3    H236513   2.447   0.036   6.148  2.2429 -0.8967 -0.4263
 5008TIP3   OH236514   0.293   5.386  12.814  0.1937 -0.1103  0.6641
 5008TIP3    H136515   0.244   5.381  12.897 -2.1073  2.6998 -0.3557
 5008TIP3    H236516   0.343   5.467  12.821  1.0191 -0.5294 -0.2184
 5009TIP3   OH236517   3.912   6.233  10.940  0.4801 -0.1944 -0.2680
 5009TIP3    H136518   4.007   6.230  10.934  0.5023 -0.0795 -0.0017
 5009TIP3    H236519   3.885   6.287  10.865  0.7490  1.2007  0.5999
 5010TIP3   OH236520   0.035   5.236   1.205 -0.3870 -0.4253 -0.4140
 5010TIP3    H136521   0.044   5.265   1.296 -0.9977 -0.2523 -0.4005
 5010TIP3    H236522  -0.050   5.191   1.203 -0.5824 -0.0390 -0.9938
 5011TIP3   OH236523   2.011   4.380  17.112 -0.1568 -0.3824  0.1184
 5011TIP3    H136524   2.046   4.418  17.032  0.3781 -1.2635 -0.0823
 5011TIP3    H236525   1.964   4.302  17.083 -1.8240  0.4574  0.4492
 5012TIP3   OH236526   0.134   5.655  14.376 -0.1418 -0.2467  0.4094
 5012TIP3    H136527   0.108   5.732  14.426 -1.5768 -1.7719  2.1344
 5012TIP3    H236528   0.212   5.622  14.422  0.4761  0.1438 -0.3311
 5013TIP3   OH236529   5.101   0.306   1.436 -0.7161  0.3699 -0.1901
 5013TIP3    H136530   5.157   0.333   1.362 -1.3889  0.7852 -0.5634
 5013TIP3    H236531   5.012   0.329   1.408 -1.2337 -1.4210 -0.1308
 5014TIP3   OH236532   4.726   2.906  15.973 -0.1195  0.3880  0.0096
 5014TIP3    H136533   4.742   2.945  15.887  1.7174 -0.9489 -0.3275
 5014TIP3    H236534   4.687   2.821  15.954  3.7302 -1.6060  0.1524
 5015TIP3   OH236535   2.375   3.549   4.431  0.5505 -0.3790 -0.0679
 5015TIP3    H136536   2.348   3.626   4.381  0.4116 -0.6287 -0.3788
 5015TIP3    H236537   2.422   3.585   4.507  0.9041 -0.0040 -0.4566
 5016TIP3   OH236538   1.921   4.432  12.702  0.5609 -0.2876 -0.3766
 5016TIP3    H136539   2.009   4.438  12.739  0.0604 -2.1601  1.2476
 5016TIP3    H236540   1.868   4.489  12.756  0.7637  1.0560 -1.5233
 5017TIP3   OH236541   3.707   0.394  14.270  0.6902  0.4481 -0.2466
 5017TIP3    H136542   3.697   0.467  14.209 -0.6284 -0.8277 -1.6467
 5017TIP3    H236543   3.618   0.362  14.283  1.1515 -0.3679  1.0450
 5018TIP3   OH236544   6.049   4.017   6.013 -0.1718  0.1339 -0.5729
 5018TIP3    H136545   6.057   3.946   6.076 -0.4964 -0.6976 -1.4498
 5018TIP3    H236546   6.066   3.976   5.928 -1.3933  0.8760 -1.2023
 5019TIP3   OH236547   0.450   5.707  11.835 -0.7817 -0.0385 -0.3484
 5019TIP3    H136548   0.412   5.738  11.917 -0.2039 -0.0281 -0.0773
 5019TIP3    H236549   0.381   5.655  11.794 -1.2474  0.3713 -0.0972
 5020TIP3   OH236550   5.601   3.696  12.451  0.0833  0.2998 -0.0725
 5020TIP3    H136551   5.539   3.756  12.492  0.1159  0.6613 -0.5475
 5020TIP3    H236552   5.687   3.729  12.476  0.0996 -0.3521  0.8033
 5021TIP3   OH236553   5.279   2.093   3.800 -0.1879 -0.0402  0.4530
 5021TIP3    H136554   5.252   2.154   3.730  0.4218  0.0636  0.3071
 5021TIP3    H236555   5.232   2.012   3.780 -0.1240  0.0318 -0.0019
 5022TIP3   OH236556   2.933   5.331  15.793 -0.0787 -0.4617  0.2485
 5022TIP3    H136557   2.984   5.260  15.833 -1.4156 -1.3539  0.4208
 5022TIP3    H236558   2.915   5.391  15.865  0.7200 -0.1218  0.1806
 5023TIP3   OH236559   6.692   3.103  17.127 -0.3765  0.1442  0.3430
 5023TIP3    H136560   6.779   3.093  17.165 -0.1352 -0.5441 -0.3677
 5023TIP3    H236561   6.697   3.057  17.043 -1.1479  0.9008 -0.1315
 5024TIP3   OH236562   3.928   2.120   1.846  0.1140  0.0940 -0.6395
 5024TIP3    H136563   3.886   2.191   1.797  1.0864  1.1917  0.0523
 5024TIP3    H236564   3.934   2.048   1.784 -0.6553  0.7097 -1.4563
 5025TIP3   OH236565   2.937   6.652   6.152  0.6641 -0.3443 -0.1472
 5025TIP3    H136566   3.028   6.668   6.125  0.8448 -0.0282  0.6086
 5025TIP3    H236567   2.944   6.626   6.244 -0.1643  2.1632  0.7274
 5026TIP3   OH236568   4.763   4.542  14.023 -0.1716 -0.0387 -0.8645
 5026TIP3    H136569   4.729   4.602  14.090 -0.2343 -0.2430 -0.7138
 5026TIP3    H236570   4.686   4.521  13.970  0.0659  0.9220 -1.6249
 5027TIP3   OH236571   6.723   2.427   2.738 -0.1887 -0.0962  0.1032
 5027TIP3    H136572   6.639   2.440   2.695  0.4491 -1.4180 -1.6300
 5027TIP3    H236573   6.769   2.511   2.727 -0.7362  0.1724 -0.1582
 5028TIP3   OH236574   0.707   5.798   2.700 -0.1414  0.8539  0.5510
 5028TIP3    H136575   0.756   5.717   2.711 -0.0626  0.6103 -1.2061
 5028TIP3    H236576   0.722   5.822   2.608 -0.1423  2.8693  1.0362
 5029TIP3   OH236577   1.460   3.115  16.300 -0.1579 -0.2084 -0.1965
 5029TIP3    H136578   1.416   3.084  16.380 -0.5441 -0.0998 -0.3632
 5029TIP3    H236579   1.411   3.193  16.275  0.9262  0.6558  0.3160
 5030TIP3   OH236580   5.026   2.956   1.312 -0.0159  0.7217  0.1590
 5030TIP3    H136581   4.932   2.972   1.301 -0.0469  0.8924  0.6602
 5030TIP3    H236582   5.044   2.884   1.252 -0.2779  1.2959 -0.6315
 5031TIP3   OH236583   6.247   6.262  10.828  0.2411 -0.4098 -0.4033
 5031TIP3    H136584   6.161   6.248  10.867  0.9638  0.4051  1.6043
 5031TIP3    H236585   6.299   6.187  10.858  1.3785  1.2419  2.1185
 5032TIP3   OH236586   0.124   5.947  11.732 -0.2884  0.1210 -0.0639
 5032TIP3    H136587   0.076   5.926  11.812 -1.1408  0.1383 -0.5520
 5032TIP3    H236588   0.205   5.898  11.738  0.2551  1.1361  1.4154
 5033TIP3   OH236589   3.554   2.490  13.509 -0.1833  0.4002  0.0115
 5033TIP3    H136590   3.490   2.454  13.570  1.5346  1.9653  2.9320
 5033TIP3    H236591   3.520   2.465  13.422 -3.1666 -1.2633  1.4806
 5034TIP3   OH236592   6.355   0.238   1.347 -0.2776 -0.4060 -0.2339
 5034TIP3    H136593   6.378   0.267   1.259  0.8528  0.3030  0.2754
 5034TIP3    H236594   6.259   0.241   1.349 -0.2974  2.9527 -0.3861
 5035TIP3   OH236595   0.478   1.470   1.610 -0.1505 -0.0118  0.4082
 5035TIP3    H136596   0.468   1.465   1.515 -0.1769  0.0096  0.4098
 5035TIP3    H236597   0.394   1.505   1.641 -0.5964 -1.1468  0.5384
 5036TIP3   OH236598   1.328   0.399  15.099 -0.3352 -0.2845 -0.5906
 5036TIP3    H136599   1.415   0.430  15.072  0.4477 -2.0880 -0.2711
 5036TIP3    H236600   1.289   0.474  15.143  0.8290  0.7390 -1.2301
 5037TIP3   OH236601   1.620   3.978   3.774  0.1679 -0.2693  0.2570
 5037TIP3    H136602   1.551   3.968   3.708  0.0863 -0.0270  0.3037
 5037TIP3    H236603   1.685   3.912   3.751  0.7477  0.6447 -0.8277
 5038TIP3   OH236604   4.060   1.959  15.156 -0.1252 -0.3672 -0.3416
 5038TIP3    H136605   4.127   1.906  15.201 -1.1810 -0.0407  1.7426
 5038TIP3    H236606   3.977   1.922  15.186 -0.9181  2.4696  1.3401
 5039TIP3   OH236607   5.601   4.650   0.056  0.2187 -0.3011 -0.2485
 5039TIP3    H136608   5.550   4.703  -0.005  1.3315  0.5624 -0.4803
 5039TIP3    H236609   5.589   4.560   0.027  0.8653  0.1044 -1.8867
 5040TIP3   OH236610   2.618   2.472  16.619 -0.4652  0.1736  0.1801
 5040TIP3    H136611   2.583   2.521  16.544 -0.3578  0.9515  0.6366
 5040TIP3    H236612   2.564   2.392  16.621  0.4078 -0.5199 -1.5397
 5041TIP3   OH236613   3.794   1.599  16.371  0.5126  0.1831  0.6645
 5041TIP3    H136614   3.713   1.549  16.365  0.3110  0.7067 -1.8934
 5041TIP3    H236615   3.795   1.632  16.461 -2.0115 -0.0021  0.8214
 5042TIP3   OH236616   2.991   0.042  15.615  0.5337 -0.1085  0.4792
 5042TIP3    H136617   2.965   0.090  15.693 -1.5839 -0.0826 -0.1838
 5042TIP3    H236618   3.076   0.005  15.637  1.8601  3.1410  1.3497
 5043TIP3   OH236619   4.590   2.448   2.010 -0.2006  0.0400  0.5214
 5043TIP3    H136620   4.639   2.476   2.087 -0.9485 -1.4438  1.5805
 5043TIP3    H236621   4.550   2.528   1.977 -0.4758  0.6035  2.1329
 5044TIP3   OH236622   4.282   2.451   5.396 -0.1527  0.4308  0.6085
 5044TIP3    H136623   4.350   2.391   5.425  0.4919 -0.0227 -1.6245
 5044TIP3    H236624   4.327   2.534   5.382 -0.7345  1.0463  2.1926
 5045TIP3   OH236625   4.760   4.029  14.311  0.0921 -0.4309 -0.7137
 5045TIP3    H136626   4.677   4.007  14.269  0.0567 -1.9538  0.0721
 5045TIP3    H236627   4.755   4.123  14.324 -1.6654 -0.5137 -0.4153
 5046TIP3   OH236628   6.227   1.344  12.138 -0.2385  0.4574  0.0913
 5046TIP3    H136629   6.189   1.331  12.051 -0.9347 -0.5226  0.5142
 5046TIP3    H236630   6.270   1.261  12.157  1.0806  1.1356  0.1376
 5047TIP3   OH236631   4.671   3.647  16.851  0.1151  0.0682  0.4589
 5047TIP3    H136632   4.607   3.608  16.911  0.1897 -1.3012 -0.3239
 5047TIP3    H236633   4.628   3.645  16.766  1.1356 -0.7315 -0.0518
 5048TIP3   OH236634   2.733   1.658   1.663 -0.1648  0.1102  0.6942
 5048TIP3    H136635   2.757   1.748   1.641  0.9202 -0.1671  0.7085
 5048TIP3    H236636   2.685   1.627   1.586 -2.4292  1.3462  1.4996
 5049TIP3   OH236637   6.744   6.532  11.988  0.2552  0.1217 -0.3085
 5049TIP3    H136638   6.775   6.582  12.064 -1.3101  3.0977 -1.4599
 5049TIP3    H236639   6.801   6.561  11.917 -0.3552 -0.1317 -0.9048
 5050TIP3   OH236640   6.503   3.984   5.306 -0.3019 -0.7392  0.4039
 5050TIP3    H136641   6.417   4.009   5.274  0.1150 -0.1978 -0.3176
 5050TIP3    H236642   6.524   3.904   5.257  0.4699  0.2596 -0.9734
 5051TIP3   OH236643   3.025   5.491   4.272 -0.2651  0.7483  0.2878
 5051TIP3    H136644   3.099   5.440   4.241 -0.1933  0.2247  1.2595
 5051TIP3    H236645   2.953   5.427   4.280 -0.8263  1.2464 -0.6390
 5052TIP3   OH236646   0.520   6.441  13.452  0.3892 -0.3616  0.3003
 5052TIP3    H136647   0.604   6.453  13.408  1.0917 -0.7887  1.4792
 5052TIP3    H236648   0.537   6.465  13.543 -1.5941  2.8195 -0.0074
 5053TIP3   OH236649   2.151   4.349   3.140  0.0842 -0.3226  0.0938
 5053TIP3    H136650   2.217   4.415   3.120  1.2369 -1.6484 -0.5499
 5053TIP3    H236651   2.070   4.385   3.103  0.7183  0.6398 -0.4043
 5054TIP3   OH236652   4.890   0.798   1.305 -0.5254  0.1285 -0.4406
 5054TIP3    H136653   4.919   0.872   1.253 -0.5875 -0.7364 -1.7465
 5054TIP3    H236654   4.887   0.725   1.244 -1.9242 -0.6269  0.4575
 5055TIP3   OH236655   6.466   1.889  11.446  0.3845 -0.1556  0.1051
 5055TIP3    H136656   6.551   1.923  11.474  0.0364 -0.1303  1.1939
 5055TIP3    H236657   6.457   1.806  11.494 -0.0117 -0.3809 -0.3501
 5056TIP3   OH236658   1.580   2.973  15.745 -0.3330 -0.0490 -0.3655
 5056TIP3    H136659   1.664   3.009  15.716  1.4896 -2.0116  2.0208
 5056TIP3    H236660   1.515   3.033  15.710  2.0978  1.9985 -1.7169
 5057TIP3   OH236661   3.919   1.730   4.523  0.4207  0.0484 -0.2925
 5057TIP3    H136662   3.956   1.656   4.571 -2.0565  0.1193  1.9290
 5057TIP3    H236663   3.839   1.695   4.483  0.3030  1.0419 -0.9737
 5058TIP3   OH236664   6.622   2.605   4.394  0.7580 -0.1466  0.4470
 5058TIP3    H136665   6.595   2.694   4.372 -0.5491 -0.3815  0.9994
 5058TIP3    H236666   6.686   2.616   4.464  0.5821  0.3490  0.5322
 5059TIP3   OH236667   3.976   1.003   1.964  0.5928 -0.3813 -0.0446
 5059TIP3    H136668   3.990   1.092   1.932  1.4014 -0.1339  0.9558
 5059TIP3    H236669   4.061   0.975   1.997  0.0387 -0.9886  0.9454
 5060TIP3   OH236670   0.847   2.699   5.310 -0.1109 -0.4701  0.5413
 5060TIP3    H136671   0.922   2.714   5.367 -0.1273 -0.5223  0.5759
 5060TIP3    H236672   0.773   2.689   5.369  0.1996 -2.6570  0.6311
 5061TIP3   OH236673   6.648   1.478   3.427  0.1307 -0.9277  0.0823
 5061TIP3    H136674   6.608   1.425   3.359  0.9726  0.1909 -1.3492
 5061TIP3    H236675   6.741   1.479   3.404  0.0093  2.0840 -0.6858
 5062TIP3   OH236676   2.937   4.495  14.284 -0.0203 -0.3246  0.6442
 5062TIP3    H136677   2.940   4.567  14.222 -0.2733 -0.4303  0.5066
 5062TIP3    H236678   2.845   4.488  14.308 -0.1082 -1.0321  0.1501
 5063TIP3   OH236679   3.629   1.131   3.303 -0.4755  0.0224  0.0278
 5063TIP3    H136680   3.637   1.165   3.214 -1.0925  1.0202  0.3342
 5063TIP3    H236681   3.534   1.126   3.319 -0.3823 -0.9917  0.3178
 5064TIP3   OH236682   6.389   0.513  11.552 -0.6451  0.3197  0.6239
 5064TIP3    H136683   6.448   0.443  11.524  1.2141  1.4180  1.6055
 5064TIP3    H236684   6.301   0.476  11.542  0.0251 -0.6768 -2.8816
 5065TIP3   OH236685   5.319   2.457   1.819  0.1306  0.4089 -0.6445
 5065TIP3    H136686   5.412   2.445   1.800 -0.1129  0.3497 -1.8829
 5065TIP3    H236687   5.289   2.517   1.751 -1.0110 -0.5630 -1.0126
 5066TIP3   OH236688   0.904   1.157  10.407  0.2040 -0.6102 -0.4711
 5066TIP3    H136689   0.924   1.064  10.422  1.4017 -0.3061 -0.0315
 5066TIP3    H236690   0.982   1.191  10.363  0.3025  0.4504  0.4645
 5067TIP3   OH236691   1.164   0.558   4.539 -0.8076 -0.1221 -0.2269
 5067TIP3    H136692   1.199   0.480   4.495 -1.5437 -0.8930  0.5052
 5067TIP3    H236693   1.086   0.581   4.488  0.8815  1.8316 -2.0947
 5068TIP3   OH236694   2.009   5.011   3.722  0.3669  0.1312  0.4184
 5068TIP3    H136695   1.936   5.054   3.679  0.4666  0.3216  0.4391
 5068TIP3    H236696   1.980   4.920   3.734  0.0138  0.2816  0.7117
 5069TIP3   OH236697   1.824   2.183  13.509 -0.3374  1.0002 -0.1791
 5069TIP3    H136698   1.913   2.203  13.480  0.4925  1.3262  2.3664
 5069TIP3    H236699   1.817   2.088  13.502 -0.1084  1.0363 -1.1155
 5070TIP3   OH236700   5.645   0.738  14.068  0.1877  0.4339 -0.4493
 5070TIP3    H136701   5.586   0.773  14.134 -2.6258 -3.1747 -0.7280
 5070TIP3    H236702   5.711   0.690  14.117  0.1560  0.6549 -0.1905
 5071TIP3   OH236703   6.219   5.157   1.065  0.2198 -0.2212 -0.5697
 5071TIP3    H136704   6.229   5.214   0.988  1.3102  1.0619  0.4662
 5071TIP3    H236705   6.146   5.194   1.113 -0.9877 -1.5068 -1.3456
 5072TIP3   OH236706   0.975   3.676   4.464 -0.0511 -0.0036  0.3165
 5072TIP3    H136707   1.069   3.691   4.475  0.4026 -2.2519  0.0658
 5072TIP3    H236708   0.936   3.763   4.465  1.9824  0.9532  0.8861
 5073TIP3   OH236709   4.712   0.081   0.662  0.5423  0.1688  0.1581
 5073TIP3    H136710   4.759   0.117   0.587 -0.8627 -0.3938 -1.0466
 5073TIP3    H236711   4.780   0.046   0.719  1.7002  1.3560 -0.4289
 5074TIP3   OH236712   4.544   6.653   3.065 -0.0779  0.1550 -0.3168
 5074TIP3    H136713   4.520   6.676   3.155  0.0658 -1.9169  0.3067
 5074TIP3    H236714   4.483   6.583   3.041 -1.4157  1.9322 -2.6032
 5075TIP3   OH236715   3.981   5.270   2.802 -0.4772  0.5669 -0.0692
 5075TIP3    H136716   3.945   5.302   2.885 -0.4616  0.5727 -0.0648
 5075TIP3    H236717   3.917   5.299   2.736 -0.3462  0.8040 -0.0917
 5076TIP3   OH236718   1.151   0.118  11.895  0.3105 -0.0445  0.3904
 5076TIP3    H136719   1.088   0.160  11.836  0.2798 -0.8149 -0.1530
 5076TIP3    H236720   1.129   0.151  11.981  0.6824  1.5070 -0.0838
 5077TIP3   OH236721   0.336   6.507  10.793 -0.4789  0.5704 -0.0497
 5077TIP3    H136722   0.247   6.539  10.780 -0.8754  0.3357  1.7357
 5077TIP3    H236723   0.392   6.573  10.753 -1.4291  1.0965 -0.5465
 5078TIP3   OH236724   2.743   0.538   1.586  0.4368  0.7581  0.1636
 5078TIP3    H136725   2.736   0.447   1.559 -1.3378  1.1975 -1.0488
 5078TIP3    H236726   2.749   0.535   1.681  1.0548 -0.6362  0.1006
 5079TIP3   OH236727   6.454   5.808  15.800  0.5805  0.3269  0.2881
 5079TIP3    H136728   6.465   5.884  15.857  2.4568  1.8027 -1.8614
 5079TIP3    H236729   6.383   5.831  15.741 -0.9991 -0.9833  1.5650
 5080TIP3   OH236730   1.431   0.331  16.876 -0.3348  0.3774  0.3222
 5080TIP3    H136731   1.445   0.240  16.902 -0.5673  0.5208  0.9963
 5080TIP3    H236732   1.431   0.379  16.959  0.7711  1.1322 -0.0911
 5081TIP3   OH236733   0.825   6.524   1.326  0.1128  0.0998  0.4507
 5081TIP3    H136734   0.826   6.429   1.316  0.7018  0.1245  0.1925
 5081TIP3    H236735   0.840   6.557   1.237 -2.6473  0.4988  0.0406
 5082TIP3   OH236736   3.199   4.621   6.346  0.1072  0.2892 -0.0055
 5082TIP3    H136737   3.228   4.592   6.260 -0.8548  1.7289 -0.8714
 5082TIP3    H236738   3.279   4.627   6.398  0.8643  0.4916 -1.1500
 5083TIP3   OH236739   2.709   1.054  15.693  0.0320  0.1883 -0.0274
 5083TIP3    H136740   2.655   1.077  15.617  0.3662  1.2830  0.0476
 5083TIP3    H236741   2.789   1.016  15.655  1.4133  3.1981 -0.4340
 5084TIP3   OH236742   0.257   2.835   0.838 -0.1890 -0.7211 -0.1286
 5084TIP3    H136743   0.306   2.879   0.907  1.1364  1.7578 -2.4794
 5084TIP3    H236744   0.308   2.756   0.819  2.4083  1.1710 -1.6677
 5085TIP3   OH236745   4.400   1.045   6.228  0.3820  0.0784 -0.4760
 5085TIP3    H136746   4.396   1.125   6.280  2.9704 -0.0371  0.0450
 5085TIP3    H236747   4.429   1.075   6.141 -2.5994  0.1059 -1.5716
 5086TIP3   OH236748   6.576   5.646   1.408 -0.0690 -0.0349 -0.1626
 5086TIP3    H136749   6.657   5.623   1.454  0.1179  0.7749 -0.0847
 5086TIP3    H236750   6.601   5.714   1.347 -0.7610  0.4733  0.1082
 5087TIP3   OH236751   6.017   2.675   0.836 -0.2759  0.4421 -0.3211
 5087TIP3    H136752   5.989   2.585   0.848  0.7792 -0.0419 -1.2642
 5087TIP3    H236753   5.984   2.722   0.913  0.2805 -1.0047  0.8362
 5088TIP3   OH236754   1.670   3.730  13.830  0.0445 -0.8788 -0.0754
 5088TIP3    H136755   1.584   3.692  13.845 -0.9608  1.6826  1.2847
 5088TIP3    H236756   1.670   3.811  13.881  1.6931  1.3820 -3.2698
 5089TIP3   OH236757   2.599   0.389  10.810  0.1610  0.1294 -0.6388
 5089TIP3    H136758   2.561   0.333  10.742  1.5702 -1.0257 -0.5316
 5089TIP3    H236759   2.541   0.464  10.815 -0.9568 -0.6179 -1.8684
 5090TIP3   OH236760   4.531   1.127   1.861 -0.0894  0.6745 -0.1791
 5090TIP3    H136761   4.548   1.033   1.868 -0.7714  0.6061  0.7809
 5090TIP3    H236762   4.584   1.155   1.787 -1.7232 -0.9048 -2.0945
 5091TIP3   OH236763   6.632   1.369  13.182  0.2086  0.7166 -0.5043
 5091TIP3    H136764   6.603   1.356  13.272  2.1586  3.5721  0.7116
 5091TIP3    H236765   6.694   1.298  13.166 -0.2987  0.0657  0.3454
 5092TIP3   OH236766   3.815   4.667   5.023  0.0359  0.2676 -0.3605
 5092TIP3    H136767   3.758   4.642   4.950  1.1188  0.5899 -1.3460
 5092TIP3    H236768   3.804   4.761   5.031  0.6701  0.3841 -0.7846
 5093TIP3   OH236769   1.174   4.780  10.311 -0.3926 -0.3654  0.0419
 5093TIP3    H136770   1.188   4.864  10.267  0.4398 -0.7623 -0.4856
 5093TIP3    H236771   1.094   4.793  10.363  0.5437  1.2226  1.1740
 5094TIP3   OH236772   0.466   5.946  16.956  0.1789 -0.3347  0.6433
 5094TIP3    H136773   0.455   6.010  17.026  1.8313  1.6784 -0.7886
 5094TIP3    H236774   0.459   5.861  16.999 -0.5139  0.7961  2.9142
 5095TIP3   OH236775   0.527   0.696  17.021 -0.0086 -0.4287  0.0160
 5095TIP3    H136776   0.583   0.725  16.949  0.4690  0.4189  0.7181
 5095TIP3    H236777   0.587   0.679  17.093 -0.4732 -1.4172  0.1793
 5096TIP3   OH236778   3.118   3.935  16.297  0.1101  0.0758 -0.1361
 5096TIP3    H136779   3.156   3.954  16.211 -3.4513 -0.8706 -2.1595
 5096TIP3    H236780   3.068   4.013  16.319  0.9966  0.3054  1.1345
 5097TIP3   OH236781   0.244   0.493   1.531 -0.2485 -0.0106 -0.0728
 5097TIP3    H136782   0.291   0.414   1.502 -1.4254 -0.5003 -0.6899
 5097TIP3    H236783   0.168   0.460   1.578 -0.9326  0.7503 -0.6285
 5098TIP3   OH236784   5.609   5.624  13.881  0.6573  0.5352 -0.3622
 5098TIP3    H136785   5.704   5.626  13.865  0.6373  0.9942 -0.4361
 5098TIP3    H236786   5.575   5.700  13.833  0.0761 -0.3637 -1.3964
 5099TIP3   OH236787   3.206   0.183  11.857 -0.2653  0.2820  0.4556
 5099TIP3    H136788   3.114   0.162  11.840 -0.2298  0.2856  0.2492
 5099TIP3    H236789   3.249   0.168  11.772 -0.2632  1.3367  0.2656
 5100TIP3   OH236790   1.337   5.949  14.186  0.0485  0.4325 -0.2354
 5100TIP3    H136791   1.421   5.943  14.141 -0.5693 -0.3206 -1.3263
 5100TIP3    H236792   1.313   5.858  14.206  1.3143  0.7684  3.6633
 5101TIP3   OH236793   3.477   4.620   2.651  0.0880  0.2686 -0.8623
 5101TIP3    H136794   3.453   4.578   2.733  0.1604 -1.6646 -1.7783
 5101TIP3    H236795   3.572   4.625   2.653  0.0571  0.8700 -0.5507
 5102TIP3   OH236796   6.758   2.118   5.608  0.3994 -1.0521  0.1265
 5102TIP3    H136797   6.850   2.140   5.590  0.7354 -2.2172  0.3181
 5102TIP3    H236798   6.743   2.037   5.559 -0.4949 -0.9346  0.1944
 5103TIP3   OH236799   5.988   4.140   1.279 -0.4629 -0.1656  0.3195
 5103TIP3    H136800   5.902   4.184   1.279 -1.3259 -1.7357  1.6324
 5103TIP3    H236801   6.027   4.166   1.363  0.0981  0.0603 -0.0094
 5104TIP3   OH236802   4.041   3.215   4.594  0.0456 -0.4075  0.5030
 5104TIP3    H136803   4.016   3.169   4.674  0.2871 -0.1066  0.7554
 5104TIP3    H236804   4.062   3.303   4.623  1.0472 -0.5523  0.2543
 5105TIP3   OH236805   4.345   1.622   5.151 -0.2582  0.2539 -0.9778
 5105TIP3    H136806   4.424   1.568   5.150 -0.0768  0.5073 -0.6593
 5105TIP3    H236807   4.275   1.563   5.122 -0.6965 -1.1566  2.4408
 5106TIP3   OH236808   1.914   5.311   1.651  0.2120  0.3787  0.0073
 5106TIP3    H136809   2.009   5.318   1.655  0.1523  0.7176  1.1765
 5106TIP3    H236810   1.883   5.398   1.675 -0.3979 -0.0708  0.9269
 5107TIP3   OH236811   1.658   2.118   3.608 -0.0809 -0.4518  0.1190
 5107TIP3    H136812   1.654   2.112   3.703 -2.2667  0.7953  0.1631
 5107TIP3    H236813   1.721   2.189   3.591 -0.3664 -0.0565  0.6800
 5108TIP3   OH236814   5.307   0.573  12.687  0.0628 -0.4561  0.8603
 5108TIP3    H136815   5.387   0.598  12.639 -0.6250  1.2125  0.4958
 5108TIP3    H236816   5.263   0.510  12.629 -0.4096  1.0039 -0.4512
 5109TIP3   OH236817   1.313   1.446  15.479  0.8111  0.6375 -0.2118
 5109TIP3    H136818   1.405   1.448  15.454  1.3064 -1.2550  1.2489
 5109TIP3    H236819   1.301   1.522  15.535  1.7295  0.4197  0.2945
 5110TIP3   OH236820   2.011   1.900   2.154  0.4232 -0.4128  0.8071
 5110TIP3    H136821   1.962   1.905   2.236  2.6237  1.0366  2.1375
 5110TIP3    H236822   1.989   1.980   2.108 -2.8022 -2.3222 -1.3974
 5111TIP3   OH236823   0.361   1.499  16.734 -0.8013 -0.0482 -0.0825
 5111TIP3    H136824   0.354   1.595  16.726  0.5290  0.0964  0.2493
 5111TIP3    H236825   0.388   1.485  16.825  1.6472 -0.5544 -0.8184
 5112TIP3   OH236826   0.336   0.303   3.348  0.0301 -0.3311  0.5729
 5112TIP3    H136827   0.323   0.397   3.336  0.1992 -0.6636 -3.8800
 5112TIP3    H236828   0.429   0.293   3.367  0.5347  0.3637 -1.3328
 5113TIP3   OH236829   4.671   2.593   4.901 -0.3045 -0.8153  0.0316
 5113TIP3    H136830   4.622   2.598   4.983  0.0838 -0.3423  0.2420
 5113TIP3    H236831   4.673   2.684   4.869  1.8291 -0.5064  0.8786
 5114TIP3   OH236832   1.608   0.093   0.520 -0.0398  0.5142  0.0734
 5114TIP3    H136833   1.620   0.019   0.461 -0.7547  0.6780 -0.2849
 5114TIP3    H236834   1.691   0.099   0.569  0.1157 -0.3452 -0.0838
 5115TIP3   OH236835   1.475   3.598   2.563  0.0483 -0.0873  0.4123
 5115TIP3    H136836   1.549   3.642   2.604  0.1106 -0.4407  0.6833
 5115TIP3    H236837   1.419   3.573   2.637 -1.3294  1.9112  0.1221
 5116TIP3   OH236838   3.036   4.941   5.505  0.4631 -0.3329 -0.2553
 5116TIP3    H136839   3.090   4.985   5.571 -0.2235  0.0203  0.0921
 5116TIP3    H236840   2.949   4.940   5.544 -0.6955  2.6120 -2.3607
 5117TIP3   OH236841   4.386   2.326  13.024 -0.0610 -0.2207 -0.1819
 5117TIP3    H136842   4.409   2.401  12.968 -0.0824 -0.6984 -0.8435
 5117TIP3    H236843   4.469   2.279  13.036  0.0328  0.1322  0.5732
 5118TIP3   OH236844   6.210   5.591   2.908  0.1967  0.7439  0.0902
 5118TIP3    H136845   6.299   5.620   2.927  0.8155  0.4282 -2.1167
 5118TIP3    H236846   6.209   5.499   2.932  0.5486  0.6704 -0.1844
 5119TIP3   OH236847   1.676   0.838  16.017 -0.3329 -0.1774  0.8558
 5119TIP3    H136848   1.619   0.874  15.949 -0.0210 -0.0738  0.6488
 5119TIP3    H236849   1.662   0.744  16.012 -0.4510 -0.1568  0.7739
 5120TIP3   OH236850   6.151   6.333   5.212  0.1084 -0.2447 -0.0229
 5120TIP3    H136851   6.148   6.261   5.275  1.0742 -0.3740 -0.1146
 5120TIP3    H236852   6.179   6.292   5.130 -2.4341 -0.3332 -0.9474
 5121TIP3   OH236853   4.505   4.852  15.555  0.0717  0.1988  0.0932
 5121TIP3    H136854   4.599   4.838  15.572  0.0616 -0.0278 -0.0353
 5121TIP3    H236855   4.462   4.779  15.598 -0.1055  0.7218  0.8088
 5122TIP3   OH236856   4.885   5.878  10.884  0.4647  0.6089  0.3011
 5122TIP3    H136857   4.970   5.894  10.923 -0.8194  2.1493  2.7324
 5122TIP3    H236858   4.887   5.785  10.859  1.3095 -0.8062  4.7084
 5123TIP3   OH236859   5.145   6.698   1.934 -0.4972  0.2196 -0.3538
 5123TIP3    H136860   5.110   6.647   1.861  0.0219  0.3518 -0.7017
 5123TIP3    H236861   5.206   6.759   1.893 -0.4733  0.5397  0.1548
 5124TIP3   OH236862   0.330   2.056  13.173 -0.1634  0.1079 -0.4015
 5124TIP3    H136863   0.350   2.080  13.264 -1.1269  0.2893 -0.2339
 5124TIP3    H236864   0.310   1.963  13.177 -1.2469  0.3422 -0.2512
 5125TIP3   OH236865   0.542   6.570  13.685  0.3454  0.6023 -0.2888
 5125TIP3    H136866   0.580   6.543  13.769 -1.3029  0.4144  0.4393
 5125TIP3    H236867   0.589   6.650  13.662 -0.3592  1.6861  1.7530
 5126TIP3   OH236868   0.783   4.959   6.124  0.1540 -0.3096 -0.6160
 5126TIP3    H136869   0.759   5.027   6.061 -1.4057 -2.0353 -2.0149
 5126TIP3    H236870   0.745   4.988   6.206  0.3129  0.9244 -0.9558
 5127TIP3   OH236871   5.394   2.875   3.395  0.3033  0.5813  0.3007
 5127TIP3    H136872   5.308   2.874   3.437 -1.1720 -0.2998 -2.5165
 5127TIP3    H236873   5.438   2.951   3.433 -1.5718  0.8958  2.0278
 5128TIP3   OH236874   4.880   0.196   5.784 -0.0670  0.3343 -0.3377
 5128TIP3    H136875   4.946   0.179   5.717  0.3735  2.7987 -0.6295
 5128TIP3    H236876   4.813   0.129   5.770  1.1138 -0.6059 -1.7231
 5129TIP3   OH236877   2.977   1.989   0.969  0.4629  0.3882 -0.0705
 5129TIP3    H136878   2.963   1.897   0.994  1.0400  0.3570  0.1665
 5129TIP3    H236879   2.983   2.036   1.052  2.7634  0.2296 -0.0580
 5130TIP3   OH236880   4.854   1.082   1.355 -0.9068 -0.2599 -0.2736
 5130TIP3    H136881   4.919   1.089   1.286  0.3718  1.4361  1.0110
 5130TIP3    H236882   4.894   1.025   1.421 -1.4152 -0.5241 -0.1823
 5131TIP3   OH236883   4.024   4.354  13.502 -0.1293 -0.3609  0.4058
 5131TIP3    H136884   4.015   4.416  13.430 -1.4760 -0.7835  0.1887
 5131TIP3    H236885   4.046   4.409  13.577 -1.9466  0.5038  0.3654
 5132TIP3   OH236886   0.622   3.817  12.465  0.3194  0.0230  0.9172
 5132TIP3    H136887   0.536   3.790  12.433  0.7355 -1.3709  0.8753
 5132TIP3    H236888   0.679   3.811  12.387  0.1933  2.4917  0.5402
 5133TIP3   OH236889   6.221   4.168   6.180 -0.2065  0.0370  1.1002
 5133TIP3    H136890   6.245   4.095   6.237  0.3845 -1.2922 -0.7613
 5133TIP3    H236891   6.189   4.127   6.100  0.2113  1.8194 -0.0339
 5134TIP3   OH236892   3.397   1.538   4.628 -0.0584  0.2046 -0.0079
 5134TIP3    H136893   3.428   1.574   4.711 -0.4511  1.5575 -0.4385
 5134TIP3    H236894   3.474   1.540   4.571 -0.0276  0.1482  0.0312
 5135TIP3   OH236895   0.084   6.317   2.984 -0.0374  0.5372  0.1271
 5135TIP3    H136896   0.019   6.340   2.917 -1.9240  1.7938  2.2295
 5135TIP3    H236897   0.116   6.401   3.017  1.1221 -0.0524  0.5654
 5136TIP3   OH236898   6.553   2.964   1.661  0.3822  0.3153 -0.4000
 5136TIP3    H136899   6.637   2.930   1.630  0.3809 -0.0341 -0.0360
 5136TIP3    H236900   6.490   2.894   1.642  0.2750  0.3475 -0.1665
 5137TIP3   OH236901   1.061   4.808   5.935  0.3067 -0.8191 -0.3523
 5137TIP3    H136902   1.049   4.772   6.023 -1.3141 -1.0733 -0.6483
 5137TIP3    H236903   1.052   4.903   5.946 -1.2247 -0.9266 -0.3936
 5138TIP3   OH236904   2.621   0.455   2.521 -0.4163  0.4545  0.0851
 5138TIP3    H136905   2.713   0.430   2.516 -0.6674 -0.9168  1.4805
 5138TIP3    H236906   2.618   0.520   2.592 -0.3049  1.8746 -1.1474
 5139TIP3   OH236907   6.575   2.129  16.928  0.0621 -0.6496  0.3522
 5139TIP3    H136908   6.664   2.161  16.937 -0.1897  0.6193 -1.1909
 5139TIP3    H236909   6.569   2.097  16.838 -1.4890  0.9479 -0.1806
 5140TIP3   OH236910   6.493   0.309   0.031  0.2050 -0.2351  0.0855
 5140TIP3    H136911   6.574   0.284   0.076  0.0512  0.8388  1.0222
 5140TIP3    H236912   6.472   0.396   0.067  0.0689  0.6822 -2.0967
 5141TIP3   OH236913   0.134   1.700  14.188 -0.3530 -0.2154  0.3403
 5141TIP3    H136914   0.158   1.793  14.187  0.1847 -0.3527 -0.4612
 5141TIP3    H236915   0.048   1.697  14.146 -0.2510 -0.1152  0.1253
 5142TIP3   OH236916   6.226   4.577  12.728  0.1798 -0.0295  0.0760
 5142TIP3    H136917   6.283   4.636  12.777  2.2517 -1.0080 -1.0007
 5142TIP3    H236918   6.235   4.493  12.773 -0.3255 -0.2336 -0.1927
 5143TIP3   OH236919   2.042   4.638  13.200 -0.1717 -0.3566  0.2883
 5143TIP3    H136920   2.100   4.623  13.275 -2.3827  0.8427  2.4118
 5143TIP3    H236921   1.974   4.571  13.209 -0.7827  0.1728 -0.2946
 5144TIP3   OH236922   2.132   2.142  12.524  0.1424  0.3635  0.4010
 5144TIP3    H136923   2.117   2.164  12.616 -0.7541  0.2883  0.2836
 5144TIP3    H236924   2.050   2.102  12.495  0.6337 -0.1902 -0.2630
 5145TIP3   OH236925   5.612   0.880   4.487  0.0601 -0.0211  0.6063
 5145TIP3    H136926   5.582   0.874   4.578 -0.7431  0.5959  0.3986
 5145TIP3    H236927   5.542   0.928   4.442  0.1460 -0.8605 -0.4736
 5146TIP3   OH236928   5.143   4.757   0.719 -0.3444  0.7063  0.0484
 5146TIP3    H136929   5.070   4.731   0.776  1.2448 -1.0145  1.4725
 5146TIP3    H236930   5.215   4.700   0.746  0.8720  0.6537 -2.9342
 5147TIP3   OH236931   4.751   6.403  11.745  0.4448 -0.2076 -0.3706
 5147TIP3    H136932   4.767   6.399  11.840  1.9012  0.9853 -0.5245
 5147TIP3    H236933   4.675   6.460  11.736  1.6243  1.5159  0.0305
 5148TIP3   OH236934   0.176   3.526  12.384  0.3394 -0.1878 -0.2695
 5148TIP3    H136935   0.186   3.439  12.423 -2.5041  0.1033  1.4051
 5148TIP3    H236936   0.118   3.512  12.309 -1.2754  0.3446  0.8142
 5149TIP3   OH236937   6.432   1.980   2.455  0.2535  0.1418  0.1387
 5149TIP3    H136938   6.463   1.890   2.439 -0.0841  0.0719 -0.1347
 5149TIP3    H236939   6.462   2.000   2.543  2.3115  0.5789 -0.5966
 5150TIP3   OH236940   1.748   4.871   0.708 -0.1677 -0.1935 -0.7847
 5150TIP3    H136941   1.825   4.846   0.657  0.6037  0.5018  0.0069
 5150TIP3    H236942   1.685   4.902   0.643  0.3812 -0.3568 -1.4037
 5151TIP3   OH236943   2.836   0.669  16.055  0.3289 -0.2209  0.3839
 5151TIP3    H136944   2.829   0.679  16.150 -0.6688 -1.3748  0.4568
 5151TIP3    H236945   2.788   0.744  16.020  0.9239  0.3528  0.7856
 5152TIP3   OH236946   2.618   5.184  15.378 -0.2747 -0.3397 -0.3119
 5152TIP3    H136947   2.574   5.268  15.386  0.1413 -0.1824  0.3798
 5152TIP3    H236948   2.711   5.204  15.385 -0.1039 -0.7275 -1.2985
 5153TIP3   OH236949   0.983   4.543  13.859 -0.2823  0.1594  0.0419
 5153TIP3    H136950   0.931   4.480  13.908 -0.4295 -0.3848 -0.7995
 5153TIP3    H236951   0.943   4.546  13.772  1.2506 -0.5095 -0.7315
 5154TIP3   OH236952   6.512   5.903   0.214  0.4530 -0.5181  0.6517
 5154TIP3    H136953   6.597   5.859   0.213  1.4691  1.3055  0.0117
 5154TIP3    H236954   6.534   5.996   0.222 -1.4957  0.0101  0.4287
 5155TIP3   OH236955   4.235   4.230   3.197  0.2709  0.2350 -0.3318
 5155TIP3    H136956   4.251   4.171   3.270  0.5551  0.3173 -0.3252
 5155TIP3    H236957   4.168   4.290   3.229  1.1132  0.9004  0.2179
 5156TIP3   OH236958   0.641   0.973  11.838  0.0674 -0.2674 -0.0131
 5156TIP3    H136959   0.648   1.045  11.900 -1.0918  0.0446 -0.2053
 5156TIP3    H236960   0.681   0.899  11.882  0.9952  0.4059  0.3182
 5157TIP3   OH236961   1.302   2.213  11.076 -0.5047 -0.0210 -0.4534
 5157TIP3    H136962   1.368   2.144  11.083  0.6178  0.5658 -3.5010
 5157TIP3    H236963   1.219   2.167  11.085  0.2568 -1.2478  0.6339
 5158TIP3   OH236964   6.112   6.814   6.189  0.1775  0.3581 -0.6923
 5158TIP3    H136965   6.067   6.898   6.185 -0.2680  0.1467 -0.0842
 5158TIP3    H236966   6.197   6.834   6.230 -0.8106  0.1573  1.5871
 5159TIP3   OH236967   5.753   5.139   5.243 -0.0924 -0.3421  0.3243
 5159TIP3    H136968   5.775   5.183   5.325 -0.5061 -0.5172  0.5300
 5159TIP3    H236969   5.792   5.195   5.175  1.2346 -0.7958  0.6881
 5160TIP3   OH236970   1.436   3.395  16.614  0.1555 -0.6201 -0.1352
 5160TIP3    H136971   1.353   3.356  16.585  0.3152 -0.4804 -0.8078
 5160TIP3    H236972   1.503   3.333  16.584  0.4787  0.5375 -1.9840
 5161TIP3   OH236973   0.180   1.968  15.196  0.4624 -0.2627 -0.1247
 5161TIP3    H136974   0.123   1.972  15.273 -0.8418 -1.0970 -1.0317
 5161TIP3    H236975   0.250   1.908  15.222 -0.8694 -1.8852 -0.1314
 5162TIP3   OH236976   6.037   5.782  15.954  0.9643 -0.0962 -1.1064
 5162TIP3    H136977   5.944   5.794  15.976  1.1731 -0.1122 -0.1971
 5162TIP3    H236978   6.061   5.700  15.997  2.2432  1.5163  1.4834
 5163TIP3   OH236979   2.829   0.562   1.861  0.1830  0.1327 -0.1426
 5163TIP3    H136980   2.769   0.503   1.909  1.8270 -1.0134  0.6056
 5163TIP3    H236981   2.792   0.649   1.874  0.6673 -0.0329  3.6108
 5164TIP3   OH236982   5.013   6.749   1.056  0.2928  0.3859 -0.3604
 5164TIP3    H136983   4.945   6.770   1.120  0.2417  2.8280 -1.0991
 5164TIP3    H236984   5.047   6.664   1.084 -1.4195  0.2113  1.4177
 5165TIP3   OH236985   0.402   2.598  13.904 -0.1764  0.4472 -0.3071
 5165TIP3    H136986   0.420   2.540  13.831  2.0856 -0.4778  0.8807
 5165TIP3    H236987   0.322   2.644  13.879  0.0656 -0.4031 -2.9647
 5166TIP3   OH236988   0.834   2.310  14.784  0.0231  0.4429 -0.0700
 5166TIP3    H136989   0.851   2.222  14.819  4.1088  0.3934 -1.5251
 5166TIP3    H236990   0.788   2.294  14.701 -0.8597 -0.1538  0.5192
 5167TIP3   OH236991   3.636   0.775  11.299  0.4863  0.3869  0.0659
 5167TIP3    H136992   3.543   0.790  11.317  0.1800  0.3833 -1.3849
 5167TIP3    H236993   3.673   0.862  11.290  0.1120  0.4035 -1.6603
 5168TIP3   OH236994   3.761   5.217  11.045  0.1642  0.1461  0.1180
 5168TIP3    H136995   3.748   5.311  11.035  2.2152  0.5753  0.9981
 5168TIP3    H236996   3.799   5.207  11.132 -0.1623 -1.5272  0.0969
 5169TIP3   OH236997   0.414   6.489  15.824 -1.1213  0.6384 -0.3624
 5169TIP3    H136998   0.380   6.536  15.900 -0.5517  3.0623 -1.4973
 5169TIP3    H236999   0.508   6.483  15.840 -1.1059  0.4390 -0.5209
 5170TIP3   OH237000   2.453   1.160  14.884 -0.5085  0.5059 -0.2892
 5170TIP3    H137001   2.480   1.225  14.819 -3.2975  1.1577 -0.9230
 5170TIP3    H237002   2.405   1.094  14.835 -1.8548  0.5063  0.9578
 5171TIP3   OH237003   3.252   5.173   3.415 -0.0607  0.8883 -0.4770
 5171TIP3    H137004   3.236   5.168   3.321 -1.0285  0.6216 -0.3064
 5171TIP3    H237005   3.291   5.088   3.437  1.9621  1.6230 -0.9305
 5172TIP3   OH237006   1.419   3.907   5.706 -0.4764 -0.0189  0.4747
 5172TIP3    H137007   1.513   3.888   5.710 -0.6482 -0.8481  0.6331
 5172TIP3    H237008   1.385   3.877   5.790 -0.8422  0.5811  0.5522
 5173TIP3   OH237009   4.432   1.295  15.049 -0.0729  0.1278  0.2170
 5173TIP3    H137010   4.399   1.209  15.022 -0.9900  0.8052 -0.9455
 5173TIP3    H237011   4.520   1.278  15.081 -0.0215 -1.1680 -0.5375
 5174TIP3   OH237012   5.607   1.461  16.110 -0.1029 -0.2108 -0.4516
 5174TIP3    H137013   5.695   1.432  16.133 -0.6261 -0.7997  0.9035
 5174TIP3    H237014   5.568   1.487  16.194 -1.5565 -0.8957 -0.8897
 5175TIP3   OH237015   3.590   4.900  14.627  0.1492  0.1049 -0.3952
 5175TIP3    H137016   3.558   4.969  14.685  0.9544  1.0865 -1.0756
 5175TIP3    H237017   3.536   4.824  14.649 -0.7562  0.9316  0.3974
 5176TIP3   OH237018   0.778   0.774  13.494 -0.2374 -0.8069 -0.6757
 5176TIP3    H137019   0.717   0.834  13.536  0.6035 -0.7932  0.5513
 5176TIP3    H237020   0.863   0.818  13.498  0.3728 -1.9915  0.1126
 5177TIP3   OH237021   6.437   6.661  11.818  0.5071 -0.0284  0.3741
 5177TIP3    H137022   6.345   6.683  11.831  0.6465  0.3294  0.8040
 5177TIP3    H237023   6.448   6.576  11.861 -0.0082 -0.9324 -1.1982
 5178TIP3   OH237024   2.020   0.158  14.299  0.0466 -0.7900  0.6535
 5178TIP3    H137025   1.956   0.230  14.304  1.0071  0.1110  0.4177
 5178TIP3    H237026   1.992   0.107  14.223 -0.1958 -0.2038  0.3376
 5179TIP3   OH237027   0.909   1.656  10.485 -0.2861 -0.3355  0.3950
 5179TIP3    H137028   0.903   1.600  10.407  0.3196 -1.0006  0.8104
 5179TIP3    H237029   0.885   1.743  10.454 -0.8525 -0.7468 -0.3572
 5180TIP3   OH237030   3.977   4.807   6.192 -0.1034  0.7136 -0.0071
 5180TIP3    H137031   4.019   4.866   6.130  1.6871  0.1781  0.6329
 5180TIP3    H237032   4.014   4.721   6.172  0.6345  0.5577  1.8787
 5181TIP3   OH237033   5.811   4.532   0.555 -0.3886  0.1184 -0.1566
 5181TIP3    H137034   5.872   4.587   0.604  0.0469 -1.9355  1.7580
 5181TIP3    H237035   5.860   4.502   0.479 -0.3539  1.6016 -0.7574
 5182TIP3   OH237036   5.850   5.277  16.765 -0.1105  0.5196 -0.1585
 5182TIP3    H137037   5.854   5.235  16.851 -0.1004  1.2503  0.2038
 5182TIP3    H237038   5.797   5.218  16.712  1.2094 -0.7431 -0.1156
 5183TIP3   OH237039   3.477   3.790   2.404 -0.7603  0.2267  0.4580
 5183TIP3    H137040   3.563   3.771   2.368 -0.7130  1.1103  0.0938
 5183TIP3    H237041   3.468   3.730   2.479 -0.5891 -1.1707 -0.5952
 5184TIP3   OH237042   4.398   1.233   4.086  0.2638  0.4228 -0.0757
 5184TIP3    H137043   4.438   1.243   4.173 -1.3294  2.0362  0.5226
 5184TIP3    H237044   4.371   1.321   4.061 -2.0308 -0.4084 -0.8291
 5185TIP3   OH237045   4.336   2.651   5.929 -0.2621 -0.1810 -0.4422
 5185TIP3    H137046   4.261   2.596   5.949  0.1252 -1.0186 -1.1749
 5185TIP3    H237047   4.333   2.722   5.993 -0.1275 -1.6781  1.3053
 5186TIP3   OH237048   3.537   5.443   2.992 -0.0538  0.3233  0.3630
 5186TIP3    H137049   3.511   5.455   2.901  1.9345  1.1742 -0.1471
 5186TIP3    H237050   3.633   5.441   2.990  0.1243  1.9349  2.5652
 5187TIP3   OH237051   0.851   1.722   2.331 -0.5988  0.2040 -0.3806
 5187TIP3    H137052   0.935   1.682   2.308  0.3928  0.9416  1.7578
 5187TIP3    H237053   0.841   1.794   2.269  0.8397  0.7047 -0.0606
 5188TIP3   OH237054   3.202   3.169  13.533 -0.3280  0.2832  0.1175
 5188TIP3    H137055   3.142   3.126  13.594  2.0252 -1.5710  1.2904
 5188TIP3    H237056   3.261   3.219  13.590  0.3897  0.5527 -0.8449
 5189TIP3   OH237057   3.382   6.645  11.338 -0.4601  0.0812 -0.0234
 5189TIP3    H137058   3.456   6.594  11.373  0.0697 -0.5215 -1.9378
 5189TIP3    H237059   3.423   6.713  11.285 -1.2654  0.7121  0.1445
 5190TIP3   OH237060   2.686   6.651  14.625 -0.1509 -0.4769  0.0209
 5190TIP3    H137061   2.773   6.669  14.662 -0.3507 -0.1444  0.3292
 5190TIP3    H237062   2.657   6.736  14.590  0.6041 -1.0419 -2.1230
 5191TIP3   OH237063   3.496   2.977  12.517  0.9338  0.1559  0.3605
 5191TIP3    H137064   3.522   3.007  12.430  1.6431 -0.0000  0.5096
 5191TIP3    H237065   3.579   2.964  12.563  0.6651 -1.9607  0.3276
 5192TIP3   OH237066   5.469   2.207  10.873 -0.2520 -0.5496 -0.1596
 5192TIP3    H137067   5.499   2.117  10.861  0.4313 -0.4717  0.7854
 5192TIP3    H237068   5.546   2.261  10.854 -0.4616 -0.2075 -0.0520
 5193TIP3   OH237069   2.999   4.799  13.524 -0.3329  0.0260 -0.0584
 5193TIP3    H137070   3.031   4.861  13.589  1.4566 -0.4591 -0.4199
 5193TIP3    H237071   3.066   4.731  13.521 -0.5317 -0.1409 -2.1549
 5194TIP3   OH237072   3.400   1.424  15.109 -0.3302 -0.2798 -0.2907
 5194TIP3    H137073   3.382   1.369  15.032 -1.2373  0.6606 -0.7837
 5194TIP3    H237074   3.472   1.481  15.081 -3.0562  2.6693 -1.9081
 5195TIP3   OH237075   2.781   1.463   0.327 -0.2596 -0.1212  0.0404
 5195TIP3    H137076   2.721   1.450   0.253 -0.5293  0.4926  0.1406
 5195TIP3    H237077   2.726   1.448   0.405 -0.3431  0.6729  0.1366
 5196TIP3   OH237078   2.700   6.561   4.182  0.6953  0.6633 -0.1891
 5196TIP3    H137079   2.626   6.569   4.122 -1.1086  0.3496  1.8950
 5196TIP3    H237080   2.754   6.638   4.163 -0.2092  0.9777 -1.6604
 5197TIP3   OH237081   5.724   4.042  12.267  0.4674 -0.0825  0.0542
 5197TIP3    H137082   5.792   3.981  12.295  0.3365 -0.1422  0.2415
 5197TIP3    H237083   5.731   4.115  12.328 -1.8940 -1.5753  2.3470
 5198TIP3   OH237084   1.895   2.018  12.494 -0.4665 -0.1617  0.4167
 5198TIP3    H137085   1.834   2.022  12.420 -0.9647 -0.3114  0.8182
 5198TIP3    H237086   1.947   1.939  12.478  0.8394  0.8894 -0.8621
 5199TIP3   OH237087   1.316   3.044  13.469  0.6546 -0.4225 -0.2346
 5199TIP3    H137088   1.409   3.053  13.451  0.5130 -0.2975 -0.9171
 5199TIP3    H237089   1.273   3.098  13.403  0.1074 -0.2524  0.2527
 5200TIP3   OH237090   5.630   3.083  12.105  0.2560 -0.1203  0.5876
 5200TIP3    H137091   5.589   3.118  12.026 -1.2326 -2.5585  0.1836
 5200TIP3    H237092   5.585   3.128  12.177 -0.7961 -0.3374  0.0841
 5201TIP3   OH237093   5.255   5.238   4.468 -0.0592  0.3130 -0.3497
 5201TIP3    H137094   5.169   5.226   4.508 -0.4600  1.9925 -0.6232
 5201TIP3    H237095   5.317   5.208   4.535 -0.8504 -1.4109 -0.3591
 5202TIP3   OH237096   6.613   2.218  16.402 -0.3036 -0.3729 -0.2794
 5202TIP3    H137097   6.696   2.177  16.376 -1.2768 -2.6357 -0.0418
 5202TIP3    H237098   6.549   2.182  16.341 -0.8386  3.2036 -2.0655
 5203TIP3   OH237099   2.504   4.837  11.090  0.4512 -0.2176  0.3878
 5203TIP3    H137100   2.416   4.819  11.057  0.9218 -0.0951 -1.0186
 5203TIP3    H237101   2.530   4.919  11.047  1.7192 -0.9097 -0.2271
 5204TIP3   OH237102   1.594   2.577   4.581  0.7049 -0.1063 -0.1227
 5204TIP3    H137103   1.549   2.502   4.619 -0.1523 -0.0540 -0.9960
 5204TIP3    H237104   1.581   2.647   4.644  0.7515 -0.4513  0.2771
 5205TIP3   OH237105   3.093   4.352   1.631  0.5149  0.4065  0.8373
 5205TIP3    H137106   3.125   4.301   1.705 -0.6733  0.4991  1.4394
 5205TIP3    H237107   3.028   4.296   1.589  2.9712 -0.7077 -1.7485
 5206TIP3   OH237108   5.735   3.761   1.392  0.3555 -0.2871 -0.3990
 5206TIP3    H137109   5.719   3.672   1.422  2.5472 -1.0557 -1.3041
 5206TIP3    H237110   5.789   3.751   1.314  2.7881  1.8344  0.8369
 5207TIP3   OH237111   4.305   4.779  11.843  0.1074  0.6956  0.3823
 5207TIP3    H137112   4.299   4.868  11.878  1.1498  0.8981  0.0875
 5207TIP3    H237113   4.396   4.754  11.860 -0.3701 -0.5907  1.1196
 5208TIP3   OH237114   2.894   2.411   2.606 -0.0992  0.7546 -0.4970
 5208TIP3    H137115   2.937   2.463   2.674  1.0982  0.6203 -1.1360
 5208TIP3    H237116   2.812   2.382   2.646  0.0187  1.6971  0.4596
 5209TIP3   OH237117   4.234   4.037   0.504 -1.0953  0.3247  0.7019
 5209TIP3    H137118   4.206   3.955   0.465  1.6079 -0.9507  1.1913
 5209TIP3    H237119   4.249   4.095   0.430 -0.8570 -0.3849  0.1852
 5210TIP3   OH237120   3.060   3.437  13.881  0.2839  0.2424  0.3047
 5210TIP3    H137121   3.097   3.371  13.940  0.0890  1.7664  2.2002
 5210TIP3    H237122   2.977   3.461  13.920 -0.1903  0.7974 -0.9875
 5211TIP3   OH237123   2.885   3.731   5.531 -0.1928  0.2326 -0.2002
 5211TIP3    H137124   2.924   3.706   5.614 -0.1863  0.0169 -0.2659
 5211TIP3    H237125   2.862   3.823   5.541 -2.1137 -0.2906  0.8074
 5212TIP3   OH237126   2.183   4.524  14.242 -0.0874  0.0388  0.0368
 5212TIP3    H137127   2.250   4.533  14.310  1.1658 -0.1343 -1.1405
 5212TIP3    H237128   2.156   4.614  14.223 -1.4261  0.0308  1.6579
 5213TIP3   OH237129   4.805   0.028   6.053  0.0674 -0.2624 -0.2092
 5213TIP3    H137130   4.749  -0.018   6.116 -1.7505  0.7341 -1.0178
 5213TIP3    H237131   4.795  -0.021   5.971  1.0460 -0.5383 -0.1771
 5214TIP3   OH237132   4.618   2.672  15.883 -0.2978 -0.2661  0.1958
 5214TIP3    H137133   4.669   2.595  15.858  1.1544  0.7892 -0.1726
 5214TIP3    H237134   4.527   2.643  15.875  0.2045 -1.8756 -0.1282
 5215TIP3   OH237135   2.536   3.944   5.850  0.4416 -0.3053  0.0885
 5215TIP3    H137136   2.510   3.854   5.827  0.1547 -0.3859  0.6910
 5215TIP3    H237137   2.620   3.934   5.894  0.1276 -0.3539  0.6976
 5216TIP3   OH237138   6.249   1.714   4.614  0.3772 -0.1500 -0.2892
 5216TIP3    H137139   6.292   1.655   4.675  1.5040 -0.0324 -0.9488
 5216TIP3    H237140   6.253   1.668   4.529  0.2919  0.3978 -0.5943
 5217TIP3   OH237141   4.627   3.993   0.371  0.3044  0.3037 -0.0399
 5217TIP3    H137142   4.618   3.907   0.411  1.8197  0.0836 -0.0922
 5217TIP3    H237143   4.548   4.041   0.397 -0.4655 -1.0301  0.1347
 5218TIP3   OH237144   0.538   4.408   4.715  0.0830  0.4469 -0.5236
 5218TIP3    H137145   0.608   4.432   4.776 -1.2854  1.1649  0.8370
 5218TIP3    H237146   0.474   4.361   4.769 -0.3011 -0.5806 -1.8225
 5219TIP3   OH237147   2.098   0.765   3.381  0.3325  0.4658 -0.2308
 5219TIP3    H137148   2.152   0.844   3.379 -1.2098  1.5948 -2.1990
 5219TIP3    H237149   2.058   0.762   3.294 -2.5340 -0.3826  0.9870
 5220TIP3   OH237150   3.148   0.684   5.997  0.2378  0.1691  0.4587
 5220TIP3    H137151   3.121   0.715   6.084 -0.3947  0.5280  0.1445
 5220TIP3    H237152   3.242   0.671   6.004 -0.0430 -1.5677  1.7458
 5221TIP3   OH237153   3.440   6.720  16.011  0.0421  0.3633 -0.2986
 5221TIP3    H137154   3.409   6.756  16.093 -0.3436  0.7598 -0.6158
 5221TIP3    H237155   3.392   6.768  15.943 -1.8514 -1.9666 -0.7200
 5222TIP3   OH237156   1.989   3.085   3.572 -0.1800  1.1206  0.6341
 5222TIP3    H137157   1.919   3.024   3.593 -0.2459  1.1119  0.3891
 5222TIP3    H237158   2.033   3.101   3.655 -1.3242  2.2006  1.0505
 5223TIP3   OH237159   4.675   3.542   4.317  0.4045  0.5912 -0.3454
 5223TIP3    H137160   4.592   3.539   4.364  1.2073  2.0089  1.2724
 5223TIP3    H237161   4.674   3.463   4.262 -0.7302 -1.0002  1.7997
 5224TIP3   OH237162   6.741   6.415   3.741 -0.2710 -0.6620 -0.0952
 5224TIP3    H137163   6.684   6.482   3.780 -1.1956 -0.2945 -1.9713
 5224TIP3    H237164   6.807   6.398   3.808 -1.3176  0.5054  1.2925
 5225TIP3   OH237165   4.624   0.304  16.329 -0.4488  0.3526  0.2314
 5225TIP3    H137166   4.577   0.221  16.322  0.8592 -0.3237 -1.0907
 5225TIP3    H237167   4.606   0.334  16.418 -1.4001 -1.0586  0.5541
 5226TIP3   OH237168   5.717   3.498   2.475  0.4763 -0.6769 -0.2981
 5226TIP3    H137169   5.746   3.587   2.497  0.0651 -0.6643  0.2295
 5226TIP3    H237170   5.676   3.508   2.389 -0.6465 -0.0966  0.2694
 5227TIP3   OH237171   3.835   2.699  11.919  0.6089  0.9039  0.0794
 5227TIP3    H137172   3.748   2.735  11.932  0.2535  0.1272 -0.0742
 5227TIP3    H237173   3.871   2.749  11.846  0.4375  1.4772  0.3829
 5228TIP3   OH237174   4.385   2.586  12.875  0.9061 -0.0533 -0.1800
 5228TIP3    H137175   4.430   2.572  12.792  1.2953  0.0143  0.0190
 5228TIP3    H237176   4.292   2.578  12.853  0.9817  0.4114 -0.7143
 5229TIP3   OH237177   3.129   5.541   1.218 -0.5752 -0.1381 -0.0775
 5229TIP3    H137178   3.083   5.467   1.256  2.5464 -2.0435  0.3522
 5229TIP3    H237179   3.188   5.571   1.287 -0.1720  1.2901 -0.9992
 5230TIP3   OH237180   1.351   2.871   2.405 -0.0820 -0.3700 -0.1559
 5230TIP3    H137181   1.263   2.835   2.419 -0.4133 -0.6041 -2.3948
 5230TIP3    H237182   1.337   2.948   2.350  1.1424 -0.8602 -1.2038
 5231TIP3   OH237183   4.582   4.959   0.926 -0.0219  0.0552 -0.5594
 5231TIP3    H137184   4.584   5.028   0.993  0.3779 -0.1923 -0.3128
 5231TIP3    H237185   4.513   4.900   0.955 -0.3752  0.3517 -0.7778
 5232TIP3   OH237186   1.915   6.485  11.995  0.3933 -0.0518  0.3209
 5232TIP3    H137187   1.847   6.442  11.942 -0.1056 -0.7189  1.4638
 5232TIP3    H237188   1.943   6.418  12.058  2.0595  0.2527 -0.0579
 5233TIP3   OH237189   3.693   6.782   0.324 -0.3664  0.3792  0.2134
 5233TIP3    H137190   3.706   6.688   0.342 -1.1393  0.2347  0.0635
 5233TIP3    H237191   3.621   6.784   0.260 -1.3052  1.1372  1.2675
 5234TIP3   OH237192   4.111   0.464   4.540  0.2088  0.0701 -0.4085
 5234TIP3    H137193   4.034   0.519   4.530 -0.5413 -0.9757 -0.6445
 5234TIP3    H237194   4.133   0.438   4.450 -0.1935 -0.9805 -0.2161
 5235TIP3   OH237195   2.828   6.423   4.590  0.9057  0.2930  0.1705
 5235TIP3    H137196   2.817   6.507   4.544  0.7752 -0.1350 -0.5985
 5235TIP3    H237197   2.886   6.444   4.664  0.5062  1.1533  0.2539
 5236TIP3   OH237198   5.851   4.247   2.061 -0.6835 -0.4048  0.7768
 5236TIP3    H137199   5.777   4.295   2.099 -0.9162 -0.0651 -0.0731
 5236TIP3    H237200   5.927   4.301   2.081 -0.9013  0.1657  0.1234
 5237TIP3   OH237201   4.167   6.825   2.651 -0.0651  0.7703  0.1884
 5237TIP3    H137202   4.197   6.868   2.731  0.5206  3.3381 -1.3282
 5237TIP3    H237203   4.077   6.856   2.640 -0.6152 -0.6303  0.4990
 5238TIP3   OH237204   6.111   3.771  12.717 -0.1312  0.0652 -0.8052
 5238TIP3    H137205   6.155   3.854  12.737  0.5461 -0.3396 -0.6088
 5238TIP3    H237206   6.103   3.728  12.802  1.0248 -0.8073 -1.1210
 5239TIP3   OH237207   4.208   2.100   1.207  0.0556 -0.4962 -0.2954
 5239TIP3    H137208   4.139   2.155   1.172  2.2087  2.4862 -0.2753
 5239TIP3    H237209   4.241   2.051   1.132 -0.1362  0.3247 -0.9250
 5240TIP3   OH237210   3.713   0.582   3.806 -0.0648  0.0542 -0.1435
 5240TIP3    H137211   3.796   0.630   3.801 -0.0231 -0.1524 -2.0150
 5240TIP3    H237212   3.721   0.513   3.740 -1.3960 -0.5080  0.2576
 5241TIP3   OH237213   5.061   6.320  13.102  0.2258 -0.0507 -0.4178
 5241TIP3    H137214   5.004   6.249  13.131  0.2370 -0.3781 -1.1913
 5241TIP3    H237215   5.112   6.283  13.031 -0.7720  1.1326 -1.8131
 5242TIP3   OH237216   0.581   1.673  13.560 -0.5251  0.2019  0.2948
 5242TIP3    H137217   0.584   1.756  13.607 -0.7564  0.4266 -0.0813
 5242TIP3    H237218   0.637   1.687  13.483 -0.3158 -0.0924  0.3911
 5243TIP3   OH237219   4.262   1.537   4.613  0.3395  0.1006  0.0055
 5243TIP3    H137220   4.283   1.457   4.661 -0.6956 -0.3983 -0.3458
 5243TIP3    H237221   4.199   1.583   4.669  2.5475  1.8194  1.2787
 5244TIP3   OH237222   0.722   1.844  12.488 -0.1887 -0.3115  0.1180
 5244TIP3    H137223   0.658   1.874  12.553 -1.2377  1.1645 -1.5063
 5244TIP3    H237224   0.669   1.825  12.410  1.2530 -0.0933 -0.9439
 5245TIP3   OH237225   1.226   0.420   2.739  0.1322 -0.0925 -0.4798
 5245TIP3    H137226   1.267   0.376   2.813 -3.8807 -0.7290  1.6004
 5245TIP3    H237227   1.231   0.356   2.667 -0.2776 -1.5566  0.7446
 5246TIP3   OH237228   3.054   3.256  12.492 -0.3867  0.6932  0.3244
 5246TIP3    H137229   3.009   3.212  12.564  0.3711  0.7161  0.8215
 5246TIP3    H237230   3.119   3.192  12.462  1.0752  1.6339  1.3910
 5247TIP3   OH237231   3.591   2.859   4.858  0.0526 -0.1891  0.6753
 5247TIP3    H137232   3.684   2.875   4.843  0.4982 -1.6908  1.6398
 5247TIP3    H237233   3.585   2.835   4.950 -1.3853  0.4271  0.7719
 5248TIP3   OH237234   3.550   0.558  16.634 -0.5348  0.2836  0.0927
 5248TIP3    H137235   3.622   0.605  16.676 -0.2127  0.2054 -0.3643
 5248TIP3    H237236   3.523   0.493  16.699 -0.9885  1.0981  0.7332
 5249TIP3   OH237237   0.217   2.851   3.758 -0.5613  0.7431 -0.3127
 5249TIP3    H137238   0.187   2.872   3.669 -0.2647  0.6491 -0.4331
 5249TIP3    H237239   0.309   2.830   3.748 -0.5761  0.5378 -0.0084
 5250TIP3   OH237240   6.542   1.287  16.582  0.1066  0.2968  0.0662
 5250TIP3    H137241   6.578   1.293  16.670  3.4010  0.1246 -1.1497
 5250TIP3    H237242   6.563   1.371  16.541 -1.2361  0.3218 -0.6450
 5251TIP3   OH237243   2.538   4.980   1.884 -0.2329 -0.3458 -0.1912
 5251TIP3    H137244   2.535   4.952   1.976 -2.1279  0.3485  0.0084
 5251TIP3    H237245   2.574   4.905   1.837  1.6972 -0.3644  1.2154
 5252TIP3   OH237246   4.569   6.705   3.758 -0.5077 -0.0125 -0.2870
 5252TIP3    H137247   4.476   6.726   3.756 -0.3792  0.5353 -0.6478
 5252TIP3    H237248   4.587   6.670   3.670 -0.6586 -1.4136  0.2077
 5253TIP3   OH237249   2.960   6.645  12.961 -0.6707 -0.8227 -0.1343
 5253TIP3    H137250   3.008   6.623  12.881 -1.6130  0.0722 -0.9726
 5253TIP3    H237251   3.024   6.693  13.014  0.5148 -2.9244  0.4729
 5254TIP3   OH237252   2.209   1.042  14.330  0.1051  0.1096  0.7709
 5254TIP3    H137253   2.220   1.137  14.318 -1.4805  0.5032  2.0103
 5254TIP3    H237254   2.272   1.003  14.270  2.3254  1.9498  1.7572
 5255TIP3   OH237255   1.012   1.900  15.505  0.6685  0.5590 -0.5470
 5255TIP3    H137256   1.098   1.858  15.496  1.2670  1.3627  1.0679
 5255TIP3    H237257   0.993   1.896  15.598 -0.3473  1.7498 -0.6765
 5256TIP3   OH237258   2.144   0.377  16.955  0.0391 -0.9953  0.3611
 5256TIP3    H137259   2.115   0.468  16.963  1.0423 -0.3182 -2.4850
 5256TIP3    H237260   2.064   0.328  16.937 -0.2655 -0.3419 -0.1122
 5257TIP3   OH237261   6.621   6.736  10.875 -0.0308  0.1320  0.0082
 5257TIP3    H137262   6.690   6.803  10.875 -0.6426  0.7889 -1.1815
 5257TIP3    H237263   6.632   6.690  10.792  0.2443 -1.1313  0.7172
 5258TIP3   OH237264   5.722   1.604   1.813  0.1610 -0.0384 -0.3452
 5258TIP3    H137265   5.639   1.644   1.787  0.3550  1.3492  0.9948
 5258TIP3    H237266   5.780   1.617   1.738 -0.5410 -0.1360 -0.9163
 5259TIP3   OH237267   5.644   6.477   5.894  0.0688  0.1482  0.1492
 5259TIP3    H137268   5.552   6.500   5.886  0.0360  0.2465  0.7012
 5259TIP3    H237269   5.687   6.519   5.820  0.1450  2.8145  1.5742
 5260TIP3   OH237270   4.374   0.952   2.576 -0.2970 -0.1187 -0.4536
 5260TIP3    H137271   4.315   0.886   2.612  0.9189 -1.3781 -0.6767
 5260TIP3    H237272   4.414   0.993   2.652 -1.0370  0.3668 -0.3149
 5261TIP3   OH237273   3.230   1.194  12.671 -0.3540 -0.2707  0.4205
 5261TIP3    H137274   3.256   1.183  12.579  0.3156 -2.0333  0.7949
 5261TIP3    H237275   3.309   1.226  12.715 -0.9177  1.4643  0.2669
 5262TIP3   OH237276   4.207   6.713   3.132  0.6801  0.2635  0.0550
 5262TIP3    H137277   4.217   6.808   3.132  0.8531  0.2449 -0.0565
 5262TIP3    H237278   4.273   6.682   3.193  0.1883  0.2606  0.5925
 5263TIP3   OH237279   1.979   3.877  11.271  0.0375  0.0807  0.0102
 5263TIP3    H137280   1.947   3.939  11.337 -1.1696 -0.5140  0.0036
 5263TIP3    H237281   1.954   3.916  11.187 -0.6850 -0.3712  0.0048
 5264TIP3   OH237282   4.955   5.772   1.588  0.0934 -0.1369  0.0565
 5264TIP3    H137283   5.038   5.775   1.636  0.2317 -0.7639 -0.1286
 5264TIP3    H237284   4.971   5.710   1.517 -1.0346 -1.5620  0.9764
 5265TIP3   OH237285   4.435   3.668  15.277 -0.1714  0.3689 -0.1782
 5265TIP3    H137286   4.394   3.584  15.298  2.1136 -0.5452  1.0972
 5265TIP3    H237287   4.385   3.733  15.327 -1.2221 -0.4113 -0.2028
 5266TIP3   OH237288   1.392   3.747  14.403  0.7713  0.5128  0.1259
 5266TIP3    H137289   1.408   3.836  14.433 -2.2516  1.1977  0.0579
 5266TIP3    H237290   1.449   3.737  14.327  1.8446  2.0398  0.6884
 5267TIP3   OH237291   4.802   4.852  11.765 -0.1583  0.1972  0.0634
 5267TIP3    H137292   4.852   4.795  11.707 -0.5075 -0.2847  0.2228
 5267TIP3    H237293   4.788   4.932  11.714 -0.4480 -0.2120 -0.5210
 5268TIP3   OH237294   3.115   1.304  16.843 -0.4445 -0.0650 -0.1492
 5268TIP3    H137295   3.134   1.328  16.752  0.7251  0.4019  0.2017
 5268TIP3    H237296   3.176   1.233  16.862 -0.8412 -0.3152  0.2032
 5269TIP3   OH237297   2.769   6.624  15.234 -0.3009 -0.0766 -0.3335
 5269TIP3    H137298   2.757   6.699  15.291 -0.7078 -0.5328  0.1896
 5269TIP3    H237299   2.698   6.564  15.257  0.4228 -0.9257 -0.2534
 5270TIP3   OH237300   6.249   5.851   0.642  0.1756  0.3243 -0.5442
 5270TIP3    H137301   6.287   5.931   0.678 -0.3555  1.0773 -1.5910
 5270TIP3    H237302   6.156   5.856   0.666  0.0854  0.1588 -0.8586
 5271TIP3   OH237303   3.563   6.411   4.607  0.2696  0.0340  0.0556
 5271TIP3    H137304   3.513   6.459   4.542  1.2563  0.3586 -0.4846
 5271TIP3    H237305   3.559   6.466   4.686  0.2640  0.3359 -0.1536
 5272TIP3   OH237306   1.529   3.346   1.383  0.1143 -0.5242  0.2223
 5272TIP3    H137307   1.483   3.380   1.460  0.3795  0.2510  0.0461
 5272TIP3    H237308   1.615   3.321   1.416 -0.6411 -2.7105  0.7178
 5273TIP3   OH237309   5.480   1.680   3.083  0.7539  0.2692  0.3781
 5273TIP3    H137310   5.422   1.742   3.127  1.1950  0.0774  1.2329
 5273TIP3    H237311   5.489   1.715   2.994 -1.1343  0.0087  0.0212
 5274TIP3   OH237312   0.888   2.565  16.531 -0.2535  0.3789 -0.4597
 5274TIP3    H137313   0.850   2.610  16.607 -2.2968  1.0482 -1.8014
 5274TIP3    H237314   0.897   2.634  16.465  1.9685 -0.0938 -0.7101
 5275TIP3   OH237315   2.052   5.111  12.469  0.0689  0.6788 -0.4341
 5275TIP3    H137316   2.146   5.116  12.486 -0.0764  1.9625  0.0872
 5275TIP3    H237317   2.045   5.110  12.373  0.6480 -0.9349 -0.4952
 5276TIP3   OH237318   6.149   5.614   0.816  0.6579 -0.5432 -0.4767
 5276TIP3    H137319   6.136   5.665   0.736  0.7373 -0.9020 -0.7254
 5276TIP3    H237320   6.063   5.614   0.859  0.9404  0.7984  0.1460
 5277TIP3   OH237321   6.371   0.726  10.868  0.2476 -0.0318  0.1662
 5277TIP3    H137322   6.369   0.767  10.781 -1.3388  0.2221  0.2758
 5277TIP3    H237323   6.457   0.685  10.874  0.3637 -0.1225 -1.5551
 5278TIP3   OH237324   2.714   0.552  12.805  0.7849  0.1195  0.1792
 5278TIP3    H137325   2.796   0.573  12.762  1.7794 -0.5770  1.6354
 5278TIP3    H237326   2.730   0.570  12.898 -0.5954 -0.3418  0.5350
 5279TIP3   OH237327   6.113   0.834   2.620 -0.1416  0.2934  0.0945
 5279TIP3    H137328   6.102   0.752   2.669  1.0619  0.3213  0.4541
 5279TIP3    H237329   6.080   0.902   2.679  1.5994  0.3641  1.0569
 5280TIP3   OH237330   0.883   0.680   1.782 -0.2827  0.0395 -0.1111
 5280TIP3    H137331   0.825   0.634   1.721 -1.4182  1.7316 -0.3728
 5280TIP3    H237332   0.824   0.718   1.847  0.8240 -0.8289  1.4678
 5281TIP3   OH237333   0.644   2.772   1.802 -0.0290  0.0098 -0.1221
 5281TIP3    H137334   0.723   2.825   1.811  0.3518 -0.1961 -1.8974
 5281TIP3    H237335   0.650   2.734   1.714 -0.2315 -3.0926  1.0660
 5282TIP3   OH237336   3.608   4.655  15.066 -0.1967  0.0137  0.1388
 5282TIP3    H137337   3.516   4.667  15.086  0.1136  1.9812  0.5757
 5282TIP3    H237338   3.652   4.657  15.151  0.4694  1.6166 -0.2106
 5283TIP3   OH237339   3.579   5.552   5.291  0.5097  0.2149  0.5319
 5283TIP3    H137340   3.614   5.505   5.367 -0.2848  0.4630  1.0635
 5283TIP3    H237341   3.545   5.634   5.326 -2.9592 -1.0618  0.5501
 5284TIP3   OH237342   3.378   3.930   3.358 -0.1547 -0.1174 -0.7196
 5284TIP3    H137343   3.451   3.891   3.405  1.2474  3.6706  0.5739
 5284TIP3    H237344   3.418   3.976   3.285 -0.9984  2.8217  0.5380
 5285TIP3   OH237345   4.338   1.186   1.150 -0.1152  0.7241  0.0274
 5285TIP3    H137346   4.431   1.191   1.172 -0.3479 -0.2508  1.4082
 5285TIP3    H237347   4.322   1.093   1.133 -0.5347  1.0885 -1.7705
 5286TIP3   OH237348   1.246   5.185   5.134  0.3330  0.4131 -0.8604
 5286TIP3    H137349   1.195   5.149   5.207  0.2225 -2.0840 -2.0542
 5286TIP3    H237350   1.180   5.212   5.070  0.4170 -0.4756 -1.3516
 5287TIP3   OH237351   2.878   0.081  16.245  0.4036  0.4692 -0.0830
 5287TIP3    H137352   2.861   0.073  16.339  0.3415  2.6350  0.1444
 5287TIP3    H237353   2.814   0.024  16.203 -0.8521  0.9528  1.1273
 5288TIP3   OH237354   3.715   2.074   6.094 -0.1709 -0.1075 -0.2522
 5288TIP3    H137355   3.761   2.035   6.020  1.2154  1.6207 -0.3581
 5288TIP3    H237356   3.736   2.016   6.168 -1.0791 -1.5035 -1.0597
 5289TIP3   OH237357   2.555   4.253   0.352  0.0080 -0.0449 -0.5356
 5289TIP3    H137358   2.557   4.259   0.447  0.7552  2.1131 -0.6236
 5289TIP3    H237359   2.633   4.202   0.329  0.5672  0.5513 -0.0153
 5290TIP3   OH237360   5.894   5.396  13.368  0.3004  0.2033  0.6599
 5290TIP3    H137361   5.841   5.474  13.383 -0.3825 -0.1611  0.1865
 5290TIP3    H237362   5.903   5.357  13.455  2.0593  1.6666  1.1959
 5291TIP3   OH237363   2.114   2.237   1.089 -0.0068 -0.7988 -0.2189
 5291TIP3    H137364   2.050   2.287   1.038  0.2278  0.9576  1.1252
 5291TIP3    H237365   2.089   2.146   1.075 -0.6120 -0.3517 -2.5579
 5292TIP3   OH237366   2.958   2.467   4.069  0.6110 -0.4075 -0.0942
 5292TIP3    H137367   3.033   2.477   4.010 -0.0670 -1.2514 -1.1480
 5292TIP3    H237368   2.894   2.418   4.017 -0.5870  0.1097  0.8587
 5293TIP3   OH237369   5.680   6.656  13.920 -0.7368  0.4001 -0.4169
 5293TIP3    H137370   5.640   6.714  13.855  0.3595  2.4358  0.6047
 5293TIP3    H237371   5.767   6.694  13.936  0.4897 -2.1862 -0.4542
 5294TIP3   OH237372   4.582   3.487   3.153  0.8338  1.0320  0.2111
 5294TIP3    H137373   4.540   3.573   3.147 -0.2909  0.4905  0.0661
 5294TIP3    H237374   4.512   3.428   3.181  1.1781 -0.1370 -1.2672
 5295TIP3   OH237375   2.009   1.092  15.810  0.3191 -0.9044  0.2708
 5295TIP3    H137376   2.029   1.094  15.716  1.0554  0.5156  0.4281
 5295TIP3    H237377   2.024   1.001  15.836 -0.8424 -1.5613 -1.1681
 5296TIP3   OH237378   2.283   1.661  13.920 -0.2371  0.2456 -0.4302
 5296TIP3    H137379   2.335   1.592  13.962 -0.5504 -0.8301 -1.7523
 5296TIP3    H237380   2.331   1.683  13.841 -0.4882  1.0858 -0.3560
 5297TIP3   OH237381   4.128   0.088  15.168 -0.1964 -0.5608 -0.6145
 5297TIP3    H137382   4.195   0.023  15.147  0.0390  0.4819 -3.4067
 5297TIP3    H237383   4.048   0.054  15.127 -0.4307  0.1459 -0.7603
 5298TIP3   OH237384   3.520   3.486   0.638  0.1592 -0.2312 -0.4391
 5298TIP3    H137385   3.609   3.509   0.609  0.9379 -1.5362  0.7330
 5298TIP3    H237386   3.533   3.447   0.724 -1.5508 -0.6045 -0.3185
 5299TIP3   OH237387   2.890   4.489   5.626  0.3779  0.5325  0.4211
 5299TIP3    H137388   2.955   4.425   5.656 -0.3279 -0.1903  0.4468
 5299TIP3    H237389   2.817   4.480   5.687 -0.1268  0.6840 -0.1460
 5300TIP3   OH237390   6.177   5.549  16.044  0.2848  0.2583 -0.2305
 5300TIP3    H137391   6.168   5.523  15.952  0.9082  0.2816 -0.2990
 5300TIP3    H237392   6.161   5.468  16.093  1.4606 -0.1047 -0.4156
 5301TIP3   OH237393   1.399   3.204   0.284  0.7323 -0.3125 -0.0095
 5301TIP3    H137394   1.353   3.122   0.302 -0.3660  0.7416  2.2767
 5301TIP3    H237395   1.354   3.270   0.336  0.2135  2.2626 -3.3175
 5302TIP3   OH237396   1.178   1.194  15.458 -0.5889 -0.0223  0.5253
 5302TIP3    H137397   1.217   1.281  15.453 -0.9281  0.0757 -1.2085
 5302TIP3    H237398   1.221   1.144  15.389 -1.1189 -0.9323  0.8331
 5303TIP3   OH237399   1.793   0.710  13.088  0.1030 -0.6319 -0.5340
 5303TIP3    H137400   1.770   0.622  13.118  0.9519 -0.5190  0.5151
 5303TIP3    H237401   1.761   0.768  13.156 -3.2175  0.2329 -2.6090
 5304TIP3   OH237402   1.652   2.148  11.885 -0.0505  0.1886 -0.0622
 5304TIP3    H137403   1.722   2.159  11.820  0.0460  1.5732  0.2450
 5304TIP3    H237404   1.682   2.077  11.941  0.8139  0.3528 -0.3088
 5305TIP3   OH237405   4.648   2.725   1.627 -0.1157  0.1176  0.1289
 5305TIP3    H137406   4.579   2.786   1.653 -0.8389 -0.2831 -0.7871
 5305TIP3    H237407   4.728   2.777   1.629 -0.6291  0.9304  0.0005
 5306TIP3   OH237408   3.199   2.518  15.643 -0.4155  0.7390 -0.4379
 5306TIP3    H137409   3.268   2.489  15.702 -1.4516  0.2229  0.5505
 5306TIP3    H237410   3.209   2.613  15.639 -0.5877  0.8290  0.9241
 5307TIP3   OH237411   2.092   3.497   2.164  0.4911  0.4105  0.1397
 5307TIP3    H137412   2.141   3.419   2.190 -0.1109  0.1097  0.3793
 5307TIP3    H237413   2.014   3.497   2.219  0.1627  0.8288 -0.3104
 5308TIP3   OH237414   4.578   0.589   4.697 -0.5198  0.4573 -0.3498
 5308TIP3    H137415   4.641   0.545   4.641 -0.5123  0.4443 -0.3311
 5308TIP3    H237416   4.572   0.534   4.775 -1.5011 -0.2107 -0.8853
 5309TIP3   OH237417   3.872   2.468   2.535  0.1252 -0.0381 -0.1888
 5309TIP3    H137418   3.787   2.505   2.513  0.1002  0.2587  0.3928
 5309TIP3    H237419   3.906   2.435   2.452 -1.1891 -1.4744 -0.2051
 5310TIP3   OH237420   1.287   4.629  14.022 -0.4897  0.2018  0.3681
 5310TIP3    H137421   1.227   4.597  13.955  1.0537  0.2859 -1.1271
 5310TIP3    H237422   1.233   4.636  14.101 -1.9141 -1.8629 -0.3189
 5311TIP3   OH237423   4.931   1.690   0.091 -0.1563 -0.1447 -0.2312
 5311TIP3    H137424   4.883   1.620   0.136 -0.8988  0.1598 -0.5344
 5311TIP3    H237425   4.886   1.770   0.117  0.8052  0.2473  0.2559
 5312TIP3   OH237426   5.696   1.051  10.620 -0.3710 -0.1294 -0.1068
 5312TIP3    H137427   5.624   1.046  10.558  0.2798  0.0610 -0.8834
 5312TIP3    H237428   5.720   0.960  10.636 -0.4578 -0.1730 -0.2215
 5313TIP3   OH237429   5.270   6.381   2.035 -0.2367  0.5933 -0.6593
 5313TIP3    H137430   5.199   6.380   1.970  1.3450 -1.6602 -2.4949
 5313TIP3    H237431   5.345   6.418   1.987  1.2892 -2.2073 -0.5911
 5314TIP3   OH237432   5.985   5.129   4.847  0.0291  0.1291 -0.0800
 5314TIP3    H137433   5.933   5.100   4.772  1.0004 -1.1972 -0.2926
 5314TIP3    H237434   5.981   5.055   4.908  1.0596  0.3032  0.2117
 5315TIP3   OH237435   4.225   4.587   3.181 -0.2403  0.2059  0.4927
 5315TIP3    H137436   4.278   4.665   3.167 -1.6010  0.9948 -0.4030
 5315TIP3    H237437   4.193   4.563   3.094 -1.0376 -0.4672  0.9562
 5316TIP3   OH237438   2.258   3.897   2.023 -0.0313  0.0561  0.4772
 5316TIP3    H137439   2.306   3.822   1.989 -0.6176  0.6472 -1.7733
 5316TIP3    H237440   2.220   3.940   1.946 -1.0333  1.7665  1.8283
 5317TIP3   OH237441   0.725   5.109  11.439 -0.0681 -0.0724 -0.1183
 5317TIP3    H137442   0.784   5.042  11.404  0.3282  1.4051 -2.5259
 5317TIP3    H237443   0.648   5.107  11.381 -0.9047  0.2620  0.9437
 5318TIP3   OH237444   3.301   5.670   2.481 -0.2641  0.5346  0.2813
 5318TIP3    H137445   3.283   5.577   2.472  0.0759  0.5375 -0.4918
 5318TIP3    H237446   3.227   5.713   2.437 -0.9234  0.6670  1.4677
 5319TIP3   OH237447   2.719   6.449   1.242  0.3034  0.0031 -0.5965
 5319TIP3    H137448   2.671   6.367   1.241 -0.1998  0.2653  0.6298
 5319TIP3    H237449   2.741   6.464   1.334  1.0493  0.8645 -0.8909
 5320TIP3   OH237450   4.568   2.656  17.057  0.2506 -0.2015 -0.1069
 5320TIP3    H137451   4.518   2.737  17.050  0.5415  0.0949  1.0586
 5320TIP3    H237452   4.633   2.662  16.987  0.1236  0.4542 -0.1746
 5321TIP3   OH237453   1.420   0.083  16.973  0.1380 -0.1199  0.3792
 5321TIP3    H137454   1.434  -0.009  16.995 -0.1646 -0.4099 -0.6286
 5321TIP3    H237455   1.328   0.099  16.991 -0.1724 -0.4272 -0.9049
 5322TIP3   OH237456   6.071   4.295  15.670  0.1664  0.0991 -0.3910
 5322TIP3    H137457   6.046   4.386  15.650 -1.9304 -0.6860 -1.6821
 5322TIP3    H237458   6.119   4.266  15.592  3.5922  0.9109  1.2050
 5323TIP3   OH237459   5.196   4.548   3.208 -0.2243  0.1775  0.0270
 5323TIP3    H137460   5.279   4.574   3.247  0.0620 -0.2399 -0.3003
 5323TIP3    H237461   5.173   4.621   3.150 -0.1502  0.3479  0.2119
 5324TIP3   OH237462   3.603   1.078  16.898  0.1153 -0.4191 -0.4618
 5324TIP3    H137463   3.687   1.110  16.864  0.0681  0.1962 -0.0035
 5324TIP3    H237464   3.627   1.004  16.954  0.2581 -0.9276 -1.1816
 5325TIP3   OH237465   5.417   2.766  15.031  0.2660 -0.4999 -0.9113
 5325TIP3    H137466   5.462   2.840  15.072  1.2988 -0.6015 -1.8306
 5325TIP3    H237467   5.434   2.692  15.090  2.7557 -0.9192 -2.0178
 5326TIP3   OH237468   6.233   1.558  16.693  0.4881  0.3979  0.2352
 5326TIP3    H137469   6.240   1.636  16.748 -0.1791  0.6430 -0.0213
 5326TIP3    H237470   6.198   1.590  16.610 -0.4122 -0.2700  0.3470
 5327TIP3   OH237471   6.616   4.341  15.433  0.2504  0.7165 -0.1207
 5327TIP3    H137472   6.564   4.381  15.503 -2.6199  0.6138 -2.0140
 5327TIP3    H237473   6.630   4.251  15.462 -3.9660 -0.4195 -0.9930
 5328TIP3   OH237474   0.295   3.139   1.053 -0.4790 -0.0955 -0.5600
 5328TIP3    H137475   0.330   3.210   1.107 -2.8719 -0.2594  1.4336
 5328TIP3    H237476   0.371   3.087   1.029  1.1901  2.4282 -1.0307
 5329TIP3   OH237477   4.270   5.734   1.411  0.1677  0.1052 -0.2454
 5329TIP3    H137478   4.351   5.700   1.449  0.0799  2.4186  2.2474
 5329TIP3    H237479   4.252   5.815   1.458 -2.5284  0.7711 -2.1393
 5330TIP3   OH237480   2.926   6.282  12.055  0.0191  0.1960 -0.2480
 5330TIP3    H137481   2.857   6.216  12.067  0.4354 -0.0355  1.0431
 5330TIP3    H237482   3.007   6.234  12.075  0.6279  0.3386 -2.1862
 5331TIP3   OH237483   3.241   6.399  14.099  0.0519  0.4073 -0.0291
 5331TIP3    H137484   3.231   6.343  14.022 -1.0170 -0.5727  0.7873
 5331TIP3    H237485   3.200   6.482  14.073  1.7991  0.9202 -1.3070
 5332TIP3   OH237486   1.920   6.423  12.431  0.2774 -0.2108  0.9604
 5332TIP3    H137487   1.924   6.506  12.478  0.0997  0.1393  0.3640
 5332TIP3    H237488   2.005   6.414  12.389  0.1218 -0.0839  0.6141
 5333TIP3   OH237489   0.812   0.857   2.908 -0.2981 -0.0963  0.1683
 5333TIP3    H137490   0.851   0.840   2.994 -0.0846  0.7868  0.2566
 5333TIP3    H237491   0.821   0.774   2.861 -1.1297 -0.8300  1.2548
 5334TIP3   OH237492   6.512   5.750  11.645  0.2888 -0.1296 -0.7247
 5334TIP3    H137493   6.566   5.687  11.692  0.6701  1.8061  1.5893
 5334TIP3    H237494   6.573   5.800  11.592  0.4590  0.4295 -0.0154
 5335TIP3   OH237495   6.562   2.787   2.085 -0.0563 -0.4380 -0.3691
 5335TIP3    H137496   6.647   2.830   2.098  0.9109 -2.4737  0.4325
 5335TIP3    H237497   6.507   2.855   2.046  1.8128  1.0641 -0.5551
 5336TIP3   OH237498   3.071   5.541   4.590 -0.8541  0.4504  0.4355
 5336TIP3    H137499   2.980   5.568   4.577 -1.3138 -1.2913 -0.2859
 5336TIP3    H237500   3.098   5.508   4.505  0.4321  0.8344  0.6794
 5337TIP3   OH237501   5.631   3.832   4.501  0.0056 -0.5920 -0.6843
 5337TIP3    H137502   5.587   3.873   4.575 -0.0348 -0.5001 -0.7597
 5337TIP3    H237503   5.646   3.742   4.529 -1.0526 -0.8770 -1.0047
 5338TIP3   OH237504   3.826   5.703   6.039 -0.5843  0.2632  0.1876
 5338TIP3    H137505   3.788   5.677   6.123  0.0025 -0.0478  0.3652
 5338TIP3    H237506   3.920   5.699   6.053 -0.4726  1.5300 -0.0918
 5339TIP3   OH237507   5.095   0.630   3.756 -0.4354  0.0791 -0.1103
 5339TIP3    H137508   5.053   0.613   3.672 -0.1076  2.3723 -0.7895
 5339TIP3    H237509   5.044   0.578   3.819  0.5389 -3.3229 -1.8814
 5340TIP3   OH237510   0.717   0.317  12.687 -0.0593 -0.5793  0.0030
 5340TIP3    H137511   0.642   0.322  12.747 -0.1644  1.5112 -0.2434
 5340TIP3    H237512   0.787   0.364  12.732  0.1950  0.0748 -1.0565
 5341TIP3   OH237513   0.057   2.649   3.980 -0.1740 -0.3936 -0.1451
 5341TIP3    H137514  -0.032   2.652   4.014 -0.7687  0.9671 -1.6856
 5341TIP3    H237515   0.087   2.740   3.983  0.7978 -0.6879 -0.5723
 5342TIP3   OH237516   6.839   1.368  17.015  0.0297 -1.0617 -0.1881
 5342TIP3    H137517   6.815   1.383  17.106  1.3325 -0.7166  0.1194
 5342TIP3    H237518   6.890   1.287  17.016  0.8019 -0.5962 -0.4534
 5343TIP3   OH237519   0.120   2.876   0.364  0.4254  0.1389  0.1510
 5343TIP3    H137520   0.073   2.947   0.408  0.7111  0.2641  0.2618
 5343TIP3    H237521   0.208   2.912   0.349  0.2636  0.1881 -0.7393
 5344TIP3   OH237522   3.924   3.280   3.112  0.1552 -0.2750  0.2155
 5344TIP3    H137523   3.882   3.238   3.037 -0.7516  0.4524  0.3008
 5344TIP3    H237524   3.938   3.371   3.085  1.5104 -0.4440  0.2646
 5345TIP3   OH237525   0.921   0.007   5.766  0.2740  0.1335  0.2767
 5345TIP3    H137526   0.961   0.022   5.852  0.6482 -0.7512  0.2684
 5345TIP3    H237527   0.991   0.023   5.703  0.5015 -0.9669  0.2378
 5346TIP3   OH237528   0.899   5.428  12.654  0.5353 -0.3792 -0.3259
 5346TIP3    H137529   0.831   5.495  12.643  1.2678  0.1904 -1.6357
 5346TIP3    H237530   0.879   5.362  12.588  0.0481 -1.2895  0.6983
 5347TIP3   OH237531   0.637   4.945   1.165  0.4236 -0.9481  0.1159
 5347TIP3    H137532   0.665   4.901   1.084  0.6008 -0.9480  0.1771
 5347TIP3    H237533   0.569   4.888   1.201  0.6712 -1.1852  0.2076
 5348TIP3   OH237534   3.195   3.905  12.213 -0.7656 -0.2634 -0.3264
 5348TIP3    H137535   3.207   3.922  12.120 -0.7411  0.3483 -0.2199
 5348TIP3    H237536   3.279   3.930  12.252 -1.1872  0.6889  0.0056
 5349TIP3   OH237537   2.111   0.253   3.738  0.0518 -0.1548  0.0021
 5349TIP3    H137538   2.178   0.283   3.800  0.0878  0.9109 -0.5227
 5349TIP3    H237539   2.041   0.219   3.793  0.6388 -0.4456  0.5863
 5350TIP3   OH237540   5.083   4.839  13.752  0.1389 -0.2498  0.4241
 5350TIP3    H137541   5.059   4.846  13.845 -2.8980  0.9380 -0.3182
 5350TIP3    H237542   5.000   4.827  13.707  1.5741 -1.2075 -2.1551
 5351TIP3   OH237543   6.447   3.205   1.598  0.1287 -0.6361 -0.5627
 5351TIP3    H137544   6.361   3.214   1.639  0.4778  0.4914 -0.0333
 5351TIP3    H237545   6.484   3.126   1.637 -0.4760 -0.8584 -0.4333
 5352TIP3   OH237546   5.174   2.247  11.852 -0.3040  0.1671 -0.2644
 5352TIP3    H137547   5.198   2.227  11.761 -0.5671 -0.8648 -0.1183
 5352TIP3    H237548   5.137   2.166  11.885 -0.5980  0.6626  0.6468
 5353TIP3   OH237549   3.341   1.389  15.830 -0.3536  0.0436  0.0271
 5353TIP3    H137550   3.391   1.355  15.904  0.4994  0.8435 -0.1683
 5353TIP3    H237551   3.391   1.464  15.799 -2.0428  1.3340  0.2895
 5354TIP3   OH237552   4.088   3.511   2.172  0.0826  0.0017 -0.2069
 5354TIP3    H137553   4.039   3.570   2.115  1.9104  0.8490 -0.9945
 5354TIP3    H237554   4.092   3.557   2.256  0.4584  0.4422 -0.4616
 5355TIP3   OH237555   2.222   5.142   0.401 -0.7031 -0.7418  0.2604
 5355TIP3    H137556   2.257   5.160   0.487 -1.7080  1.4062  0.2907
 5355TIP3    H237557   2.296   5.109   0.350  1.0358  2.1103  0.7465
 5356TIP3   OH237558   0.819   0.285   4.369  0.6332  0.0795  0.7438
 5356TIP3    H137559   0.804   0.315   4.458  0.1833  0.4759  0.5401
 5356TIP3    H237560   0.739   0.238   4.345  0.0230  1.4676 -0.0533
 5357TIP3   OH237561   0.680   0.513   6.314 -0.0582  0.6454  0.7407
 5357TIP3    H137562   0.691   0.418   6.319 -3.4854  0.0756 -0.2006
 5357TIP3    H237563   0.668   0.540   6.405 -1.3450 -0.2211  0.8547
 5358TIP3   OH237564   6.459   2.749   5.090 -0.3642 -0.1379 -0.3874
 5358TIP3    H137565   6.489   2.713   5.174  1.4764 -0.5511 -1.1604
 5358TIP3    H237566   6.526   2.814   5.067 -0.7442 -0.1640 -1.6136
 5359TIP3   OH237567   3.383   2.152  12.294 -0.5143 -0.1677  0.0604
 5359TIP3    H137568   3.441   2.164  12.219  0.7796 -0.3585  0.9859
 5359TIP3    H237569   3.390   2.059  12.316  0.6951  0.2328  1.5872
 5360TIP3   OH237570   1.206   3.187  13.271  0.7516  0.1000  0.0699
 5360TIP3    H137571   1.235   3.160  13.183 -0.0147 -1.6487  0.3049
 5360TIP3    H237572   1.119   3.223  13.257 -0.0294 -1.6005  0.2412
 5361TIP3   OH237573   3.372   6.010   1.670  0.0667 -0.5268  0.0733
 5361TIP3    H137574   3.360   5.941   1.736  1.7354  0.7927  1.8584
 5361TIP3    H237575   3.467   6.024   1.667 -0.0989  0.4571 -1.5974
 5362TIP3   OH237576   4.455   0.903  16.136  0.0878 -0.1901 -0.1445
 5362TIP3    H137577   4.523   0.901  16.203  0.6702  0.4968 -0.7111
 5362TIP3    H237578   4.463   0.819  16.091  0.5902 -0.0950 -0.2384
 5363TIP3   OH237579   0.407   0.873  16.776 -0.2558  0.6465  0.0908
 5363TIP3    H137580   0.347   0.807  16.809  0.9876  0.4849  2.2359
 5363TIP3    H237581   0.479   0.823  16.738 -0.7654  0.8232 -1.1393
 5364TIP3   OH237582   4.718   1.591  14.930 -0.5870 -0.2419  0.4266
 5364TIP3    H137583   4.711   1.542  15.012 -2.9688 -0.7202 -0.0107
 5364TIP3    H237584   4.681   1.533  14.864 -0.3989  0.8765 -0.6931
 5365TIP3   OH237585   3.746   5.373  13.681  0.0215 -0.2083 -0.4305
 5365TIP3    H137586   3.791   5.430  13.743  0.1797  0.0332 -0.7651
 5365TIP3    H237587   3.761   5.414  13.595 -2.1000  0.7118 -0.4101
 5366TIP3   OH237588   6.764   1.616  15.158 -0.2708 -0.1785 -0.0042
 5366TIP3    H137589   6.711   1.664  15.095 -1.3949  0.4729  1.3757
 5366TIP3    H237590   6.771   1.675  15.233 -0.4459 -1.5912  1.1695
 5367TIP3   OH237591   4.153   2.355   5.171 -0.6006  0.4917  0.2699
 5367TIP3    H137592   4.210   2.371   5.246 -0.9275  3.9023 -0.0534
 5367TIP3    H237593   4.210   2.315   5.106  0.3819  0.0903  1.3339
 5368TIP3   OH237594   2.657   2.886   5.770 -0.0003 -0.0066 -0.3876
 5368TIP3    H137595   2.626   2.894   5.680 -0.0207 -1.4848 -0.5312
 5368TIP3    H237596   2.710   2.807   5.770  0.7781  0.4998  0.6930
 5369TIP3   OH237597   2.820   3.223   2.037 -0.5749 -0.0006  0.9979
 5369TIP3    H137598   2.824   3.319   2.040 -2.5338  0.1061  1.6450
 5369TIP3    H237599   2.881   3.194   2.105  2.8687  0.5737 -1.5482
 5370TIP3   OH237600   1.123   3.402   0.141  0.2831 -0.4545 -0.0791
 5370TIP3    H137601   1.061   3.467   0.108 -1.3942 -1.5037  0.8329
 5370TIP3    H237602   1.192   3.453   0.183 -0.4375  0.7467 -0.3078
 5371TIP3   OH237603   4.503   6.221   4.697 -0.8150 -0.1907 -0.3096
 5371TIP3    H137604   4.573   6.286   4.690 -1.2044  0.1282 -1.5016
 5371TIP3    H237605   4.422   6.272   4.684 -1.3775 -0.3791  2.0031
 5372TIP3   OH237606   1.294   1.124   0.637  0.0975  0.1230 -0.1221
 5372TIP3    H137607   1.284   1.192   0.704 -0.1566 -0.1435  0.1153
 5372TIP3    H237608   1.338   1.167   0.565 -1.3572  0.9264 -0.5630
 5373TIP3   OH237609   2.607   5.108   2.814  0.0916 -0.4848 -0.2211
 5373TIP3    H137610   2.531   5.114   2.871  0.4589 -1.7952  0.4492
 5373TIP3    H237611   2.674   5.161   2.857 -0.0155 -0.4510 -0.0976
 5374TIP3   OH237612   1.691   1.094   3.276  0.3822 -0.2378 -0.4428
 5374TIP3    H137613   1.604   1.056   3.264  0.0645  0.6483 -1.0556
 5374TIP3    H237614   1.691   1.127   3.366 -0.2794  0.6323 -0.7477
 5375TIP3   OH237615   6.441   4.176  12.798 -0.0077  0.4482 -0.3229
 5375TIP3    H137616   6.500   4.226  12.742  0.2913  1.9715  1.2634
 5375TIP3    H237617   6.365   4.234  12.810 -0.6838 -0.4319 -0.2900
 5376TIP3   OH237618   1.389   4.351   2.410 -0.4155 -0.3949 -0.7158
 5376TIP3    H137619   1.420   4.389   2.328  0.3214 -1.4867 -0.9634
 5376TIP3    H237620   1.453   4.378   2.475 -0.6878 -0.0111 -0.6007
 5377TIP3   OH237621   2.013   1.190  16.596 -0.5000  0.0745 -0.0744
 5377TIP3    H137622   1.998   1.102  16.629  0.5849  0.1717  0.7168
 5377TIP3    H237623   2.026   1.179  16.502  1.6744 -0.9076  0.2748
 5378TIP3   OH237624   5.766   3.115   0.205  0.6899 -0.1398 -0.1207
 5378TIP3    H137625   5.812   3.125   0.289 -0.3774 -0.8133  0.5695
 5378TIP3    H237626   5.837   3.111   0.140  1.4943  1.8119  0.5591
 5379TIP3   OH237627   4.346   3.939  14.377  0.4070  0.2295  0.0617
 5379TIP3    H137628   4.342   3.876  14.305  1.1962  0.5468 -0.2695
 5379TIP3    H237629   4.308   3.893  14.451  0.2697 -0.3663 -0.3734
 5380TIP3   OH237630   5.655   1.246  16.362 -0.7357 -0.1109  0.0928
 5380TIP3    H137631   5.716   1.291  16.303  0.0965 -1.9447 -0.5295
 5380TIP3    H237632   5.656   1.155  16.332 -3.9228 -0.2037 -0.0458
 5381TIP3   OH237633   2.059   3.805   5.408  0.5219  0.1635 -0.3487
 5381TIP3    H137634   2.041   3.722   5.451 -0.6624 -0.2921 -1.6364
 5381TIP3    H237635   2.048   3.787   5.314 -2.6059  2.3362 -0.5733
 5382TIP3   OH237636   5.063   0.685  13.189  0.4983 -0.0951  0.1941
 5382TIP3    H137637   4.986   0.698  13.134  0.2905 -1.9271 -0.0007
 5382TIP3    H237638   5.100   0.602  13.159  1.7796  0.0838  1.2008
 5383TIP3   OH237639   1.865   1.724  15.495 -0.3733  0.0034  0.3261
 5383TIP3    H137640   1.802   1.795  15.482  0.0086  0.2358 -0.3116
 5383TIP3    H237641   1.844   1.660  15.427  0.8326  0.6394 -0.6892
 5384TIP3   OH237642   3.206   3.954  12.674  0.4948 -0.7464 -0.1312
 5384TIP3    H137643   3.223   4.014  12.747  0.0400  1.4450 -1.7071
 5384TIP3    H237644   3.112   3.960  12.660  0.8716  1.2235 -2.6554
 5385TIP3   OH237645   0.172   5.951  17.039 -1.0111  0.7403  0.1453
 5385TIP3    H137646   0.170   5.986  17.128 -1.8018  0.6579  0.1687
 5385TIP3    H237647   0.229   5.874  17.045 -0.8914  0.8558  0.5358
 5386TIP3   OH237648   1.334   5.819  14.767 -0.5358 -0.5472 -0.2768
 5386TIP3    H137649   1.286   5.769  14.701 -0.5935 -0.1520 -0.5414
 5386TIP3    H237650   1.274   5.824  14.841 -0.8299 -0.2338 -0.5294
 5387TIP3   OH237651   0.312   2.858  10.757 -0.1229 -0.1328  0.9035
 5387TIP3    H137652   0.296   2.946  10.724  0.1002 -0.3546  0.1900
 5387TIP3    H237653   0.379   2.822  10.699  1.6470  0.1036  2.6587
 5388TIP3   OH237654   5.212   2.112  10.977  0.1372 -0.2506 -0.1519
 5388TIP3    H137655   5.288   2.163  10.948  1.1247 -1.3930  0.3291
 5388TIP3    H237656   5.218   2.030  10.928 -1.2980 -0.0168 -0.7553
 5389TIP3   OH237657   1.723   5.056   5.248 -0.0136 -0.1219  0.3400
 5389TIP3    H137658   1.650   5.031   5.305 -0.0221  0.4859  0.6034
 5389TIP3    H237659   1.772   5.120   5.299 -1.0537  1.8467 -1.0215
 5390TIP3   OH237660   4.943   3.545   5.020 -0.1001 -0.3880 -0.1554
 5390TIP3    H137661   4.921   3.631   5.056  0.6788 -0.6537  1.0431
 5390TIP3    H237662   4.917   3.549   4.928 -0.2658  1.0528 -0.0640
 5391TIP3   OH237663   0.858   0.463   0.281  0.3115  0.2064 -0.0514
 5391TIP3    H137664   0.949   0.440   0.302  0.1397  0.8873  1.5642
 5391TIP3    H237665   0.863   0.503   0.194  1.3943 -0.7743 -0.4587
 5392TIP3   OH237666   4.859   4.192   4.123  0.0587 -0.9061  0.0651
 5392TIP3    H137667   4.811   4.271   4.146  0.8127 -0.2234 -0.6148
 5392TIP3    H237668   4.807   4.152   4.053  1.1364  0.5866 -1.6731
 5393TIP3   OH237669   3.731   1.082  14.292  0.0181  0.0151 -0.0347
 5393TIP3    H137670   3.805   1.033  14.257 -0.3628 -0.7144  0.1458
 5393TIP3    H237671   3.706   1.142  14.222  1.1447  0.6835  0.1268
 5394TIP3   OH237672   2.005   4.735  12.703 -0.5373 -0.1872 -0.4128
 5394TIP3    H137673   1.915   4.719  12.732 -0.6403 -3.0101 -1.9133
 5394TIP3    H237674   2.059   4.686  12.764 -0.2526 -0.7672 -1.1186
 5395TIP3   OH237675   2.616   5.002  14.102  0.2556 -0.0535  0.0169
 5395TIP3    H137676   2.678   4.938  14.135  0.2860 -0.6633 -1.1693
 5395TIP3    H237677   2.656   5.087  14.121  0.7408 -0.4065  0.6003
 5396TIP3   OH237678   4.780   5.287  16.596 -0.4952  0.2830  0.2559
 5396TIP3    H137679   4.772   5.369  16.644  1.0269  1.0662 -0.7382
 5396TIP3    H237680   4.691   5.253  16.592 -0.7541  0.3846  3.1925
 5397TIP3   OH237681   0.406   6.685  16.355 -0.3112  0.5770 -0.8365
 5397TIP3    H137682   0.311   6.697  16.360 -0.4380 -0.7415  0.4249
 5397TIP3    H237683   0.439   6.714  16.440  0.1894 -0.7499 -0.5609
 5398TIP3   OH237684   0.727   3.528   5.182 -0.7123  0.0768 -0.3028
 5398TIP3    H137685   0.663   3.565   5.243  1.1998 -0.2237  2.0168
 5398TIP3    H237686   0.716   3.580   5.102 -0.7007  3.2076  1.5462
 5399TIP3   OH237687   1.846   2.734  11.416 -0.5944  0.3962 -0.3446
 5399TIP3    H137688   1.753   2.742  11.393 -0.7944  0.7724  0.5426
 5399TIP3    H237689   1.876   2.824  11.425 -0.1933  0.2708 -0.4361
 5400TIP3   OH237690   0.138   5.919  11.400 -0.0855  0.0290 -0.0136
 5400TIP3    H137691   0.134   5.852  11.469  0.5290  1.3705  1.3973
 5400TIP3    H237692   0.050   5.955  11.398  0.0280  0.3531  0.4853
 5401TIP3   OH237693   6.710   1.085  15.683 -0.0297 -0.1585 -0.0839
 5401TIP3    H137694   6.736   1.118  15.769 -0.0116  0.1928 -0.2219
 5401TIP3    H237695   6.782   1.110  15.625 -0.4548  0.4173 -0.3782
 5402TIP3   OH237696   5.500   6.386   1.689 -0.1875  0.0333 -0.0643
 5402TIP3    H137697   5.498   6.385   1.785  0.4208 -1.9215 -0.0329
 5402TIP3    H237698   5.543   6.468   1.667  0.0215  0.3267  1.3473
 5403TIP3   OH237699   1.758   5.631   4.505  0.2025 -0.2636 -0.1541
 5403TIP3    H137700   1.837   5.680   4.528  0.7281 -0.6649 -1.0226
 5403TIP3    H237701   1.732   5.586   4.585  0.6759  0.1220  0.2174
 5404TIP3   OH237702   1.085   3.034   4.742 -0.4971 -0.0344  0.2173
 5404TIP3    H137703   0.990   3.031   4.737 -0.4728 -0.5145 -0.0213
 5404TIP3    H237704   1.112   2.942   4.744  0.0276  0.0447 -1.4009
 5405TIP3   OH237705   5.280   2.666   1.042  0.0641 -0.4505  0.7652
 5405TIP3    H137706   5.363   2.671   0.994 -0.4020 -0.8140 -0.0988
 5405TIP3    H237707   5.290   2.729   1.113  0.1457  1.4243 -0.8097
 5406TIP3   OH237708   5.854   6.674  13.011 -0.1928 -0.1722 -0.1146
 5406TIP3    H137709   5.935   6.704  12.970 -0.1661 -0.4814 -0.2871
 5406TIP3    H237710   5.848   6.582  12.987 -1.1589  0.1155 -1.0175
 5407TIP3   OH237711   0.883   6.716  13.374 -0.0451  0.0049  0.0162
 5407TIP3    H137712   0.936   6.637  13.378  2.2521  1.3150 -2.1105
 5407TIP3    H237713   0.907   6.765  13.453 -1.4540 -1.2823  1.3245
 5408TIP3   OH237714   3.009   3.824  14.638  0.2758 -0.5011 -0.3491
 5408TIP3    H137715   3.024   3.884  14.566  0.8997  0.2726  0.4068
 5408TIP3    H237716   2.928   3.854  14.679  0.0934 -0.7430 -0.5305
 5409TIP3   OH237717   4.510   0.306   2.828  0.0690 -0.4098 -0.3080
 5409TIP3    H137718   4.520   0.398   2.850  0.1716 -0.0684 -1.6965
 5409TIP3    H237719   4.524   0.302   2.733 -0.9746 -1.6991 -0.4369
 5410TIP3   OH237720   2.449   3.075   0.873  0.3015 -0.3904 -0.4476
 5410TIP3    H137721   2.376   3.014   0.869  0.3194 -0.4170 -0.3693
 5410TIP3    H237722   2.527   3.020   0.873  0.2972 -0.5279  2.3122
 5411TIP3   OH237723   2.290   0.943   5.182 -0.1181  0.2563 -0.5313
 5411TIP3    H137724   2.221   0.900   5.133 -0.1589 -0.1911 -0.0857
 5411TIP3    H237725   2.269   0.927   5.274 -0.4462  1.6940 -0.3197
 5412TIP3   OH237726   4.446   0.607   5.603 -0.4033  0.3823  0.4747
 5412TIP3    H137727   4.381   0.583   5.537  0.3033  0.0139 -0.1008
 5412TIP3    H237728   4.507   0.666   5.558 -0.8212  1.4272  1.2515
 5413TIP3   OH237729   0.281   1.430  11.914 -0.0152  0.6346  0.3109
 5413TIP3    H137730   0.243   1.470  11.992 -1.3212  1.0100 -0.4681
 5413TIP3    H237731   0.336   1.499  11.876  0.2954  0.5900  0.6805
 5414TIP3   OH237732   1.249   6.439   2.880  0.0441  0.1075  0.3150
 5414TIP3    H137733   1.305   6.382   2.932 -0.8518 -0.2127  0.9677
 5414TIP3    H237734   1.167   6.390   2.871  0.6399 -0.4951 -2.6782
 5415TIP3   OH237735   6.311   2.533  10.934 -0.2406  0.1652 -0.4305
 5415TIP3    H137736   6.330   2.544  11.027 -1.7366 -0.8466  0.0355
 5415TIP3    H237737   6.236   2.474  10.932 -1.1544  1.2936 -2.2311
 5416TIP3   OH237738   6.617   6.161  12.811 -0.0138 -0.0845 -0.6949
 5416TIP3    H137739   6.608   6.189  12.720  1.4673  2.5781 -0.1188
 5416TIP3    H237740   6.693   6.102  12.810  0.7741  0.9071 -1.0249
 5417TIP3   OH237741   6.812   5.843  15.186 -0.0696 -0.5835  0.4888
 5417TIP3    H137742   6.907   5.844  15.181  0.0542  1.2098  2.0545
 5417TIP3    H237743   6.790   5.921  15.238 -2.4233 -0.6001 -0.3755
 5418TIP3   OH237744   1.431   4.638  11.125  0.6498 -0.7795 -0.2480
 5418TIP3    H137745   1.521   4.625  11.153  0.8130 -0.0308 -0.4087
 5418TIP3    H237746   1.402   4.717  11.171  1.0285  0.6652 -2.3386
 5419TIP3   OH237747   5.724   6.552   6.358  0.0065 -0.3541 -0.0822
 5419TIP3    H137748   5.751   6.635   6.398  0.0886 -1.2186  1.7555
 5419TIP3    H237749   5.631   6.565   6.337  0.7358  1.2615 -2.8196
 5420TIP3   OH237750   4.296   0.601   1.935  0.2901  0.1304 -0.1988
 5420TIP3    H137751   4.239   0.660   1.886 -0.8253 -1.8941 -1.5104
 5420TIP3    H237752   4.381   0.609   1.892  0.6562  2.0192  0.7714
 5421TIP3   OH237753   6.837   4.507   2.861  0.3564  0.2319 -0.1221
 5421TIP3    H137754   6.888   4.456   2.798 -0.1692 -1.1817  0.5400
 5421TIP3    H237755   6.747   4.502   2.828 -0.0223 -1.0301  1.0063
 5422TIP3   OH237756   3.716   1.022   2.353  0.1380  0.2709 -0.6806
 5422TIP3    H137757   3.664   1.061   2.283  0.4547 -0.0380 -1.0950
 5422TIP3    H237758   3.780   0.968   2.307  2.1407  2.1804 -0.3253
 5423TIP3   OH237759   3.862   4.728  12.785 -0.1515  0.3070  0.5432
 5423TIP3    H137760   3.920   4.786  12.834  0.2794 -0.2269  0.6769
 5423TIP3    H237761   3.921   4.671  12.735 -0.5667  0.0287  0.3574
 5424TIP3   OH237762   4.244   4.972   2.375  0.2981 -0.0254  0.0885
 5424TIP3    H137763   4.266   4.970   2.468 -0.2438 -0.4527  0.2107
 5424TIP3    H237764   4.175   4.906   2.365  1.2844 -0.9323 -0.8610
 5425TIP3   OH237765   4.434   6.629   5.297 -0.2794 -0.5734  0.4561
 5425TIP3    H137766   4.478   6.584   5.369  0.3254 -2.5300 -1.0566
 5425TIP3    H237767   4.485   6.606   5.219 -1.5360  0.5761 -0.7720
 5426TIP3   OH237768   0.946   1.731  16.030 -0.0173 -0.6760 -0.4968
 5426TIP3    H137769   1.038   1.714  16.053 -0.0105 -0.4467 -0.3541
 5426TIP3    H237770   0.941   1.711  15.936  0.1569 -0.7775 -0.4864
 5427TIP3   OH237771   4.692   6.068   4.879 -0.3242 -0.0796  0.2491
 5427TIP3    H137772   4.763   6.004   4.873 -1.1447 -0.8832 -2.2438
 5427TIP3    H237773   4.734   6.148   4.909  1.1337 -1.2080  1.3663
 5428TIP3   OH237774   6.177   0.319  16.321 -0.7411 -0.3211 -0.0271
 5428TIP3    H137775   6.206   0.394  16.372  0.2783 -0.9256  0.3057
 5428TIP3    H237776   6.219   0.244  16.363 -1.0706 -0.9859 -0.8611
 5429TIP3   OH237777   3.913   1.421  14.667  0.2679 -0.0379  0.2989
 5429TIP3    H137778   3.921   1.378  14.582  2.5769  0.8060  0.0191
 5429TIP3    H237779   3.831   1.388  14.703 -0.8193 -0.3651 -2.2673
 5430TIP3   OH237780   3.255   0.136   1.622 -0.7959  1.0053 -0.3093
 5430TIP3    H137781   3.280   0.216   1.576 -2.1536  1.4425 -0.3365
 5430TIP3    H237782   3.159   0.137   1.621 -0.8786 -1.3317 -1.5460
 5431TIP3   OH237783   5.389   6.025   2.445 -0.4133 -0.0787 -0.0916
 5431TIP3    H137784   5.476   5.985   2.435  0.2774  1.3760 -0.1784
 5431TIP3    H237785   5.366   6.054   2.357 -1.3881 -1.2211 -0.2244
 5432TIP3   OH237786   1.055   3.701   3.608 -0.3027  0.4560 -0.2467
 5432TIP3    H137787   1.056   3.605   3.610  2.7623  0.3999  0.1020
 5432TIP3    H237788   1.081   3.726   3.697  1.4103  1.5236 -1.0175
 5433TIP3   OH237789   4.750   0.214   1.092 -0.3422 -0.1303 -0.0891
 5433TIP3    H137790   4.753   0.286   1.030 -1.7879 -0.0375 -0.0833
 5433TIP3    H237791   4.663   0.176   1.081 -0.1669 -0.9040  0.9956
 5434TIP3   OH237792   3.389   2.631   5.680  0.0811 -0.5311 -0.0196
 5434TIP3    H137793   3.352   2.549   5.647  0.5230 -0.1791 -1.4482
 5434TIP3    H237794   3.313   2.683   5.705 -0.6611  0.6581 -4.0265
 5435TIP3   OH237795   5.785   4.806  17.041  0.3235  0.2818  0.3215
 5435TIP3    H137796   5.715   4.855  17.085 -0.9693 -1.3124  0.1495
 5435TIP3    H237797   5.742   4.767  16.965  1.4863 -0.5293  0.0629
 5436TIP3   OH237798   4.738   6.364  17.093 -0.1113  0.0783 -0.0072
 5436TIP3    H137799   4.782   6.394  17.173 -0.3788  1.5794 -0.3948
 5436TIP3    H237800   4.711   6.444  17.049 -1.8697 -0.7659 -0.5626
 5437TIP3   OH237801   3.855   2.730  16.283 -0.0408  0.3981 -0.0338
 5437TIP3    H137802   3.778   2.777  16.314  0.0529  0.4206  0.1678
 5437TIP3    H237803   3.900   2.702  16.363 -0.7055 -1.0276 -0.1301
 5438TIP3   OH237804   0.207   5.231  11.546  0.3580 -0.0941 -0.3928
 5438TIP3    H137805   0.118   5.243  11.513  0.6873 -0.1585 -1.3280
 5438TIP3    H237806   0.196   5.227  11.641 -0.6791 -0.4762 -0.5083
 5439TIP3   OH237807   3.698   6.697  15.943  0.5726  0.0520 -0.2592
 5439TIP3    H137808   3.614   6.703  15.987  0.7651 -1.5593  0.3583
 5439TIP3    H237809   3.763   6.696  16.014  1.2713  2.5947 -0.7351
 5440TIP3   OH237810   3.078   1.890   5.166 -0.3821  0.5411 -0.1114
 5440TIP3    H137811   3.046   1.947   5.236 -1.4643  0.6748 -0.6933
 5440TIP3    H237812   3.134   1.826   5.210 -2.4419 -0.4736  1.1537
 5441TIP3   OH237813   2.440   6.431   3.372  0.0526  0.3553 -0.2629
 5441TIP3    H137814   2.435   6.512   3.422 -0.4504  0.1886 -0.0334
 5441TIP3    H237815   2.475   6.457   3.287  0.6425  0.6858  0.0774
 5442TIP3   OH237816   2.323   2.027   4.610 -0.3869  0.2971 -0.5776
 5442TIP3    H137817   2.374   1.946   4.613  0.2674  0.7360  1.9226
 5442TIP3    H237818   2.232   1.998   4.623 -0.1481 -0.0529  0.3748
 5443TIP3   OH237819   4.447   6.372   2.383 -0.4709  0.5856  0.0200
 5443TIP3    H137820   4.356   6.352   2.361  0.0662 -2.1541 -0.1625
 5443TIP3    H237821   4.446   6.387   2.478 -0.7571 -2.9565  0.7215
 5444TIP3   OH237822   1.849   6.785   2.504  0.7992 -0.4063 -0.0842
 5444TIP3    H137823   1.902   6.809   2.429  0.3171 -0.1025 -0.3359
 5444TIP3    H237824   1.850   6.862   2.561  1.1239 -0.6173  0.2010
 5445TIP3   OH237825   2.141   6.079  13.248 -0.2955 -0.0415  0.5188
 5445TIP3    H137826   2.156   6.014  13.179  1.7319  1.8890 -1.0173
 5445TIP3    H237827   2.052   6.110  13.233 -0.5652 -1.0234 -0.0013
 5446TIP3   OH237828   0.699   2.787   4.376  0.4566 -0.1689 -0.0033
 5446TIP3    H137829   0.692   2.828   4.290  1.0956 -0.0563 -0.0061
 5446TIP3    H237830   0.711   2.694   4.357  1.0866 -0.0780 -0.0470
 5447TIP3   OH237831   2.105   1.999  12.888  0.4741  0.1008  0.6918
 5447TIP3    H137832   2.049   2.065  12.928  0.9898  0.0435  1.5190
 5447TIP3    H237833   2.111   2.026  12.796 -1.0438 -0.0003  0.5461
 5448TIP3   OH237834   3.264   4.499   4.384 -0.3243 -0.4346 -0.0605
 5448TIP3    H137835   3.189   4.493   4.325 -0.5885 -0.0514  0.2291
 5448TIP3    H237836   3.227   4.534   4.465  0.1781 -0.2100  0.0731
 5449TIP3   OH237837   0.256   4.153  13.480  0.1157 -0.6598 -0.6993
 5449TIP3    H137838   0.200   4.228  13.503  1.9952  0.8289 -0.7677
 5449TIP3    H237839   0.344   4.189  13.479  1.1671 -3.0566 -0.0683
 5450TIP3   OH237840   4.684   6.791  15.440  0.2448  0.0140  0.0663
 5450TIP3    H137841   4.658   6.699  15.446  0.9330 -0.1779  0.2457
 5450TIP3    H237842   4.693   6.807  15.346 -1.4707  0.3693 -0.0534
 5451TIP3   OH237843   4.134   6.336   1.606  0.4497 -0.6785 -0.5174
 5451TIP3    H137844   4.162   6.427   1.598 -0.5574 -0.3901 -0.8398
 5451TIP3    H237845   4.106   6.312   1.518 -3.5699  0.1533  0.3426
 5452TIP3   OH237846   1.390   1.928  11.861  0.5605  0.1947 -0.4662
 5452TIP3    H137847   1.453   1.981  11.811 -1.0527  1.4529 -1.2621
 5452TIP3    H237848   1.349   1.871  11.796 -0.4027  0.6895 -0.3060
 5453TIP3   OH237849   2.163   6.582  13.828  0.6559 -0.6994  0.3306
 5453TIP3    H137850   2.211   6.593  13.909  0.0008 -0.1733  0.6580
 5453TIP3    H237851   2.088   6.527  13.852 -0.7556  1.2656  0.5972
 5454TIP3   OH237852   1.871   0.697   5.143  0.2307 -0.3206 -0.7233
 5454TIP3    H137853   1.899   0.677   5.232 -0.5705 -1.9488 -0.8090
 5454TIP3    H237854   1.952   0.694   5.092  0.7091  0.7251 -0.0535
 5455TIP3   OH237855   5.379   5.704   3.665  0.3505  0.4652  0.2156
 5455TIP3    H137856   5.321   5.741   3.598  1.5269  2.0642  0.0409
 5455TIP3    H237857   5.346   5.615   3.677 -2.1093  1.2612  0.0701
 5456TIP3   OH237858   2.095   5.291  11.187  0.4967 -0.8753 -0.0012
 5456TIP3    H137859   2.160   5.226  11.162 -0.3957 -2.3123  1.2530
 5456TIP3    H237860   2.125   5.324  11.272  1.1431  0.6907 -0.7870
 5457TIP3   OH237861   3.823   4.997  10.868  0.2444 -0.8262  0.0265
 5457TIP3    H137862   3.809   5.043  10.785 -1.4471 -0.2828  0.5685
 5457TIP3    H237863   3.804   5.061  10.935  0.1398 -1.6682  0.8214
 5458TIP3   OH237864   1.000   4.633   3.752 -0.0914  0.1310  0.0989
 5458TIP3    H137865   0.961   4.547   3.770 -1.7379  0.8354  0.0377
 5458TIP3    H237866   1.094   4.618   3.760 -0.2277 -2.0285 -1.4064
 5459TIP3   OH237867   4.402   1.476  10.774 -0.1261  0.1737 -0.1011
 5459TIP3    H137868   4.466   1.541  10.801 -1.1818  1.3594 -0.3511
 5459TIP3    H237869   4.428   1.396  10.820 -0.5695  1.5355  2.8027
 5460TIP3   OH237870   2.776   5.772   4.303 -0.6302 -0.1924 -0.0271
 5460TIP3    H137871   2.857   5.767   4.252 -0.1816 -0.2603  0.6796
 5460TIP3    H237872   2.734   5.687   4.290  0.7124 -1.2060  1.6876
 5461TIP3   OH237873   1.661   2.889   5.867  0.9051 -0.3553  0.4722
 5461TIP3    H137874   1.616   2.837   5.801  0.0363  1.2234 -0.2507
 5461TIP3    H237875   1.595   2.903   5.936 -0.1337  2.5919 -0.9295
 5462TIP3   OH237876   0.683   5.512  13.408  0.2532  0.0790 -0.2499
 5462TIP3    H137877   0.624   5.438  13.418  1.2534 -0.7640 -0.3676
 5462TIP3    H237878   0.701   5.541  13.497 -1.9003  1.6700 -0.2587
 5463TIP3   OH237879   2.036   6.004  15.391 -0.3701  0.5672  0.2140
 5463TIP3    H137880   1.957   5.951  15.403 -0.1388  0.0037 -0.6103
 5463TIP3    H237881   2.004   6.088  15.359 -0.7720  1.1078  1.9240
 5464TIP3   OH237882   4.642   6.546  16.191  0.0588  0.3080  0.0121
 5464TIP3    H137883   4.672   6.499  16.114  1.6689  0.2382  0.6299
 5464TIP3    H237884   4.616   6.632  16.159 -0.7293 -0.2317 -0.8060
 5465TIP3   OH237885   0.980   1.352   0.242 -0.4295 -0.0665  0.1219
 5465TIP3    H137886   0.996   1.272   0.191 -1.6605 -0.4478  0.2952
 5465TIP3    H237887   0.947   1.320   0.326 -1.1204  0.6153  0.1203
 5466TIP3   OH237888   5.083   0.288  16.950  0.0927  0.0382  0.2928
 5466TIP3    H137889   5.054   0.267  16.862  1.9670 -1.6354  0.0163
 5466TIP3    H237890   5.006   0.275  17.005 -0.9306  0.5101 -0.9838
 5467TIP3   OH237891   6.316   5.447  11.862  0.2216  0.3483  0.0201
 5467TIP3    H137892   6.404   5.448  11.824 -0.3672 -0.5644 -1.4539
 5467TIP3    H237893   6.316   5.373  11.922  0.2626 -0.0855 -0.5081
 5468TIP3   OH237894   3.692   0.176   2.458  0.1563 -0.2660  0.0271
 5468TIP3    H137895   3.692   0.272   2.448  2.0925 -0.0812  1.2398
 5468TIP3    H237896   3.603   0.156   2.488 -0.2311  1.1897 -0.0359
 5469TIP3   OH237897   2.802   1.761  15.740  0.3458  0.5900 -0.1910
 5469TIP3    H137898   2.785   1.680  15.692 -0.0466  0.9389 -0.6598
 5469TIP3    H237899   2.765   1.746  15.827  0.4248  0.2048 -0.2248
 5470TIP3   OH237900   6.802   1.682   0.015  0.4390  0.2231  0.5362
 5470TIP3    H137901   6.848   1.638  -0.057  0.9014 -0.5689  1.2921
 5470TIP3    H237902   6.766   1.762  -0.024  0.4154 -0.3475 -0.6384
 5471TIP3   OH237903   4.478   6.577  15.888  0.4223  0.0651 -0.2785
 5471TIP3    H137904   4.481   6.485  15.912 -0.5506 -0.2286 -1.2062
 5471TIP3    H237905   4.466   6.576  15.793 -0.3578  1.1367 -0.2049
 5472TIP3   OH237906   2.046   0.291   2.695 -0.2714  0.4152  0.0545
 5472TIP3    H137907   2.069   0.382   2.676  0.0292  0.7856  1.9954
 5472TIP3    H237908   2.041   0.287   2.790  0.3620 -1.7554  0.0486
 5473TIP3   OH237909   3.126   5.086  11.196 -0.2043  0.2139 -0.0622
 5473TIP3    H137910   3.220   5.085  11.178 -0.2580  0.4715 -0.3484
 5473TIP3    H237911   3.085   5.067  11.112 -0.3744 -1.3106  0.3254
 5474TIP3   OH237912   2.391   0.281   5.136 -0.2062 -0.1128  0.5119
 5474TIP3    H137913   2.483   0.306   5.147 -0.0847  0.5833 -1.6306
 5474TIP3    H237914   2.389   0.188   5.161  1.0908 -0.1590  0.5440
 5475TIP3   OH237915   6.704   4.665   5.341  0.7532 -0.2663 -0.3301
 5475TIP3    H137916   6.619   4.653   5.299  0.5652 -0.4956  0.1192
 5475TIP3    H237917   6.767   4.630   5.278  0.3471 -2.1680  0.2648
 5476TIP3   OH237918   1.523   5.618   1.347  0.2277 -0.4147  0.3910
 5476TIP3    H137919   1.436   5.595   1.314 -0.4580  0.7814  1.2909
 5476TIP3    H237920   1.552   5.690   1.290  1.1246 -1.5161 -0.5966
 5477TIP3   OH237921   1.668   0.865  14.370 -0.1633  0.0281  0.3801
 5477TIP3    H137922   1.738   0.807  14.338 -0.4633 -1.2649  1.9330
 5477TIP3    H237923   1.629   0.900  14.290  1.2878 -0.3884 -0.5660
 5478TIP3   OH237924   6.364   4.090   5.723  0.3692 -0.9392 -0.3044
 5478TIP3    H137925   6.368   3.994   5.717  4.0160 -0.8530 -1.1777
 5478TIP3    H237926   6.425   4.113   5.792 -1.1182  0.8041  0.5186
 5479TIP3   OH237927   1.735   4.388  12.505  0.7116  0.0759  0.3354
 5479TIP3    H137928   1.764   4.478  12.490  0.0299  0.1245 -0.7885
 5479TIP3    H237929   1.774   4.364  12.589  1.2061  1.2890  0.4710
 5480TIP3   OH237930   5.070   0.562   1.817 -0.1428 -0.0192  0.2491
 5480TIP3    H137931   5.015   0.639   1.820 -1.0988 -0.7069  0.7656
 5480TIP3    H237932   5.010   0.488   1.831  0.7410 -0.8590 -0.2287
 5481TIP3   OH237933   4.860   1.374  13.430 -0.0583 -0.4625 -0.3314
 5481TIP3    H137934   4.885   1.369  13.522  0.2770 -2.6067 -0.5003
 5481TIP3    H237935   4.775   1.329  13.426 -0.7050  0.7540 -0.8811
 5482TIP3   OH237936   2.496   4.578   1.548 -0.6685  0.2599  0.2609
 5482TIP3    H137937   2.442   4.519   1.497 -1.6516  0.1203  1.4023
 5482TIP3    H237938   2.545   4.521   1.607 -1.1023  0.5264  0.8903
 5483TIP3   OH237939   5.921   3.477  13.782 -0.5113  0.2231 -0.0094
 5483TIP3    H137940   5.828   3.463  13.801 -0.8364  0.1957 -1.5014
 5483TIP3    H237941   5.932   3.572  13.788 -0.9038  0.3345 -0.9154
 5484TIP3   OH237942   2.898   3.672  14.249  0.3017  0.1063  0.4981
 5484TIP3    H137943   2.971   3.734  14.246 -0.1081  0.5696 -0.3545
 5484TIP3    H237944   2.876   3.657  14.158  1.3779 -2.5219  0.5861
 5485TIP3   OH237945   2.132   5.103   2.192 -0.2444 -0.1067  0.0709
 5485TIP3    H137946   2.180   5.186   2.200  0.4519 -0.5845  1.1004
 5485TIP3    H237947   2.139   5.081   2.099  0.5009  0.4506 -0.0210
 5486TIP3   OH237948   0.053   2.853   5.411  0.0551 -0.1736 -0.1097
 5486TIP3    H137949  -0.025   2.865   5.464  1.1106 -1.4279  1.8466
 5486TIP3    H237950   0.097   2.939   5.413 -0.6854  0.2203 -0.3029
 5487TIP3   OH237951   1.475   1.572   1.049  0.5783 -0.4065  0.1301
 5487TIP3    H137952   1.414   1.530   0.988  1.4911 -0.1235 -1.0084
 5487TIP3    H237953   1.498   1.655   1.008  2.2036 -0.7728  0.2115
 5488TIP3   OH237954   4.913   2.025   4.263  0.1269 -0.1446  0.0924
 5488TIP3    H137955   4.921   2.024   4.168  1.3453  0.0520  0.1705
 5488TIP3    H237956   5.001   2.048   4.294  0.3755 -2.4825  1.3515
 5489TIP3   OH237957   1.970   2.057   5.410 -0.3923  0.3650  0.5364
 5489TIP3    H137958   2.045   2.005   5.381  0.5059  1.3028  1.1244
 5489TIP3    H237959   1.969   2.048   5.505 -0.3741  1.1975  0.6269
 5490TIP3   OH237960   4.511   1.982   1.247  0.5401  0.3737  0.3733
 5490TIP3    H137961   4.504   2.064   1.198 -0.3446  0.9934  1.4902
 5490TIP3    H237962   4.583   1.935   1.206 -1.0479  0.2142 -2.4430
 5491TIP3   OH237963   3.171   5.240   4.789 -0.5974  0.0824  0.0840
 5491TIP3    H137964   3.233   5.308   4.817 -0.0938 -0.8220  1.2533
 5491TIP3    H237965   3.174   5.175   4.859 -0.6687 -1.4058 -1.2412
 5492TIP3   OH237966   6.088   4.303  14.356  0.1523 -0.4428 -0.0569
 5492TIP3    H137967   6.167   4.356  14.352 -1.4820  2.1818 -0.3178
 5492TIP3    H237968   6.089   4.252  14.275  0.4176  1.4399 -1.3204
 5493TIP3   OH237969   6.528   1.578  14.726  0.3768  0.6673 -0.2247
 5493TIP3    H137970   6.545   1.646  14.661  0.7817  0.9812  0.2130
 5493TIP3    H237971   6.562   1.498  14.686 -1.0932  0.4940 -1.2185
 5494TIP3   OH237972   5.490   3.616  17.153 -0.0293  0.7072 -0.6328
 5494TIP3    H137973   5.413   3.632  17.207  0.9023 -2.3873  1.8748
 5494TIP3    H237974   5.519   3.528  17.177  4.0588  1.5479 -1.7533
 5495TIP3   OH237975   5.352   1.985  15.582  0.6545 -0.0675  0.0542
 5495TIP3    H137976   5.388   2.049  15.520 -1.3072 -0.0564 -1.1439
 5495TIP3    H237977   5.291   2.035  15.636 -0.4381 -0.7878 -0.4843
 5496TIP3   OH237978   5.974   1.720  13.953  0.2766 -0.4332 -0.5422
 5496TIP3    H137979   5.893   1.684  13.916 -0.3124 -0.5466  0.7727
 5496TIP3    H237980   6.043   1.659  13.926 -0.2427 -0.9002 -0.8372
 5497TIP3   OH237981   2.542   1.275   4.138 -0.3608  0.5296 -0.2830
 5497TIP3    H137982   2.515   1.330   4.212  0.4529 -0.0661  0.4720
 5497TIP3    H237983   2.559   1.190   4.176  0.9652  0.4507 -1.0039
 5498TIP3   OH237984   4.661   3.804  12.320  0.4569 -0.0067 -0.0738
 5498TIP3    H137985   4.639   3.740  12.252  0.3274 -0.0432  0.0010
 5498TIP3    H237986   4.592   3.794  12.386  1.1827 -0.7645  0.6022
 5499TIP3   OH237987   0.676   6.068   4.681  0.0472 -0.2950 -0.3512
 5499TIP3    H137988   0.602   6.009   4.696 -0.2785 -0.5705 -2.6812
 5499TIP3    H237989   0.654   6.147   4.731 -1.2631 -0.8008 -0.0846
 5500TIP3   OH237990   6.322   4.415  16.758  0.0845 -0.5414  0.3625
 5500TIP3    H137991   6.315   4.500  16.715 -1.0332 -0.7241  0.1591
 5500TIP3    H237992   6.242   4.407  16.810 -0.6685 -2.1637 -0.9272
 5501TIP3   OH237993   5.291   0.969   2.348 -0.7263 -0.1226 -0.5367
 5501TIP3    H137994   5.258   1.043   2.399 -2.5532 -0.9929 -0.3941
 5501TIP3    H237995   5.298   1.002   2.259 -3.2329 -0.1953 -0.8275
 5502TIP3   OH237996   3.352   5.216  16.888 -0.1614 -0.1722  0.2467
 5502TIP3    H137997   3.295   5.141  16.873  3.1718 -2.7994 -0.5821
 5502TIP3    H237998   3.373   5.212  16.981  1.0473 -1.1944 -0.0372
 5503TIP3   OH237999   2.926   1.630  10.317 -0.4790 -0.2930 -0.4657
 5503TIP3    H138000   2.857   1.679  10.272 -1.6232  0.2736  1.7595
 5503TIP3    H238001   2.960   1.691  10.383 -0.8289 -1.9330  1.3158
 5504TIP3   OH238002   2.790   3.213   5.850 -0.0293 -0.2302  0.2383
 5504TIP3    H138003   2.749   3.249   5.929  0.4303  0.9696 -0.0412
 5504TIP3    H238004   2.716   3.188   5.794 -0.3544 -1.0294  1.0198
 5505TIP3   OH238005   4.032   5.970   5.857 -0.0748 -0.1061  0.1209
 5505TIP3    H138006   4.010   5.904   5.791  0.0696 -0.0765  0.0446
 5505TIP3    H238007   4.126   5.960   5.873  0.3566  1.3321 -1.2764
 5506TIP3   OH238008   2.593   3.488   5.597 -0.2055  0.6611  0.2666
 5506TIP3    H138009   2.669   3.514   5.545  1.5820  1.1114  2.8851
 5506TIP3    H238010   2.609   3.396   5.619 -0.9405  0.4768  0.0858
 5507TIP3   OH238011   4.024   4.036   0.736 -0.5975 -0.2109 -0.2134
 5507TIP3    H138012   4.097   4.079   0.781  0.9940 -1.8484 -1.1201
 5507TIP3    H238013   4.035   4.060   0.644 -0.3529 -1.5648 -0.5640
 5508TIP3   OH238014   5.909   3.122  12.036 -0.2032  0.2348 -0.3956
 5508TIP3    H138015   5.925   3.215  12.021 -0.1271  0.3785  0.4924
 5508TIP3    H238016   5.821   3.118  12.073  0.1838  0.0663  0.5391
 5509TIP3   OH238017   0.233   2.018   0.518 -0.1185  0.1849  0.2997
 5509TIP3    H138018   0.237   1.922   0.525  0.2192  0.2243  0.6683
 5509TIP3    H238019   0.169   2.034   0.449  0.9376 -0.3483 -0.8506
 5510TIP3   OH238020   4.726   3.002  12.343  0.5036 -0.3072  0.0773
 5510TIP3    H138021   4.679   3.086  12.339  0.9183  0.0323  1.6910
 5510TIP3    H238022   4.762   2.991  12.255  2.4857  2.4287  0.4158
 5511TIP3   OH238023   1.510   6.620   3.485 -0.1217 -0.5685 -0.4604
 5511TIP3    H138024   1.432   6.564   3.488 -0.5608  0.0463  0.0059
 5511TIP3    H238025   1.576   6.573   3.535  0.1421 -1.5646 -1.6912
 5512TIP3   OH238026   3.643   2.914  12.261  0.4766  0.3015  0.6291
 5512TIP3    H138027   3.739   2.911  12.257  0.4611  0.7520 -0.9002
 5512TIP3    H238028   3.614   2.838  12.210 -0.0546 -1.7779  3.7756
 5513TIP3   OH238029   0.583   1.129  13.346  0.3295 -0.5583 -0.3254
 5513TIP3    H138030   0.640   1.206  13.351  0.7993 -0.9005 -0.3288
 5513TIP3    H238031   0.643   1.056  13.331 -0.0880 -0.9607 -0.0575
 5514TIP3   OH238032   5.985   1.878   5.794  0.8106  0.5943 -0.0276
 5514TIP3    H138033   6.007   1.965   5.761  1.1878  0.2662 -0.6559
 5514TIP3    H238034   5.958   1.829   5.716  0.6324  0.1380  0.3173
 5515TIP3   OH238035   2.057   2.361  12.054  0.0487  0.2034  0.1563
 5515TIP3    H138036   2.111   2.415  11.996 -1.4407 -0.0346 -1.5289
 5515TIP3    H238037   1.978   2.412  12.068  0.2257  0.0915  1.7454
 5516TIP3   OH238038   4.758   4.620   0.532 -0.0590  0.5192  0.2637
 5516TIP3    H138039   4.722   4.703   0.564  0.9987  0.8235  0.6970
 5516TIP3    H238040   4.726   4.555   0.595 -1.8315  0.3859 -0.7058
 5517TIP3   OH238041   4.290   5.629   0.919 -0.2090 -0.5666 -0.3083
 5517TIP3    H138042   4.333   5.565   0.975  0.7642  0.4179  0.1128
 5517TIP3    H238043   4.229   5.674   0.977  0.9291  0.5767  0.0661
 5518TIP3   OH238044   2.398   2.714  15.188  0.1109  0.0062  0.0412
 5518TIP3    H138045   2.405   2.761  15.271 -0.3513  0.8512 -0.3870
 5518TIP3    H238046   2.311   2.738  15.154  0.7986  0.7025 -1.2957
 5519TIP3   OH238047   4.197   3.276   4.158 -0.4017  1.0820  0.7029
 5519TIP3    H138048   4.149   3.193   4.151  1.5014 -0.1028  0.9331
 5519TIP3    H238049   4.206   3.290   4.252  3.1800 -0.9639  0.8463
 5520TIP3   OH238050   1.944   2.975   2.798 -0.6025  0.0194  0.0408
 5520TIP3    H138051   1.908   2.950   2.713 -0.0751 -1.0022  0.1007
 5520TIP3    H238052   1.917   3.066   2.810 -0.6254  0.2009 -1.2514
 5521TIP3   OH238053   0.697   0.170   1.913 -0.1508 -0.3222 -0.2609
 5521TIP3    H138054   0.746   0.159   1.832  1.1316  0.7334  0.3435
 5521TIP3    H238055   0.763   0.164   1.982 -1.2633 -1.5594  0.7597
 5522TIP3   OH238056   1.722   5.569  12.588  0.3527 -0.4316 -0.2061
 5522TIP3    H138057   1.801   5.618  12.612 -0.3870  0.3764  0.6748
 5522TIP3    H238058   1.744   5.478  12.607  1.1339 -0.2315 -0.1217
 5523TIP3   OH238059   5.371   6.175   5.397 -0.2443  0.5196 -0.0649
 5523TIP3    H138060   5.436   6.206   5.460  0.6445 -1.0711 -0.1291
 5523TIP3    H238061   5.416   6.176   5.313 -1.8541  3.9697 -1.0466
 5524TIP3   OH238062   1.400   0.720  12.846 -0.1714 -0.0341  0.3303
 5524TIP3    H138063   1.326   0.667  12.876 -0.8456  0.4717 -0.3752
 5524TIP3    H238064   1.458   0.658  12.800 -0.8545 -0.2105 -0.3214
 5525TIP3   OH238065   3.373   5.817   1.404 -0.3894 -0.4503 -0.0305
 5525TIP3    H138066   3.340   5.892   1.454  1.1200  0.3850 -0.2004
 5525TIP3    H238067   3.326   5.821   1.321 -0.4482  0.2161  0.0291
 5526TIP3   OH238068   6.186   6.583   1.597 -0.0465  0.0687 -0.1755
 5526TIP3    H138069   6.152   6.666   1.632  0.9562  0.1402  0.7136
 5526TIP3    H238070   6.115   6.521   1.608 -1.7138  1.2836 -3.0641
 5527TIP3   OH238071   6.752   5.359   4.081 -0.3374  0.5197  0.0473
 5527TIP3    H138072   6.720   5.437   4.126 -3.5696 -0.1849 -0.7677
 5527TIP3    H238073   6.829   5.388   4.033  0.2152  2.4848  1.9869
 5528TIP3   OH238074   2.424   0.828  17.087  0.2796  0.4143  0.2260
 5528TIP3    H138075   2.374   0.813  17.168 -1.4408 -0.1638 -0.8734
 5528TIP3    H238076   2.515   0.830  17.115 -0.3185  1.4584  2.3457
 5529TIP3   OH238077   2.763   1.026  14.658  0.2233 -1.0283 -0.3322
 5529TIP3    H138078   2.714   1.043  14.577  1.9536  1.2571 -0.9876
 5529TIP3    H238079   2.758   0.931  14.669 -0.4812 -1.3550 -2.8378
 5530TIP3   OH238080   0.188   6.484  12.344 -0.2925 -0.1250  0.2789
 5530TIP3    H138081   0.218   6.549  12.408  0.6690 -0.7735  0.5008
 5530TIP3    H238082   0.096   6.469  12.367 -0.1277  0.1026  1.1161
 5531TIP3   OH238083   1.523   6.836  10.047  0.2862  0.0484  0.1711
 5531TIP3    H138084   1.540   6.928  10.026 -0.3698  0.5355  1.6059
 5531TIP3    H238085   1.601   6.808  10.094 -0.1367  0.3439  1.0693
 5532TIP3   OH238086   2.698   3.866  12.016 -0.2644 -0.1222 -0.2009
 5532TIP3    H138087   2.786   3.837  11.991  0.5358  3.2190 -1.8265
 5532TIP3    H238088   2.643   3.842  11.941 -0.3832 -0.6795  0.0630
 5533TIP3   OH238089   1.618   0.883  11.290 -0.4130  0.0112  0.4348
 5533TIP3    H138090   1.524   0.883  11.272 -1.0288 -3.8588  2.5117
 5533TIP3    H238091   1.624   0.876  11.385  1.7697 -2.8700  0.2251
 5534TIP3   OH238092   6.051   4.935  12.125 -0.0681 -0.2933 -0.1339
 5534TIP3    H138093   5.997   4.859  12.107 -0.3365 -1.0832  3.3193
 5534TIP3    H238094   6.133   4.918  12.078 -0.4189 -2.3200 -0.0823
 5535TIP3   OH238095   5.219   3.453  10.851 -0.1304  0.1052  0.3517
 5535TIP3    H138096   5.192   3.519  10.787  0.1899  1.2795  1.3894
 5535TIP3    H238097   5.152   3.384  10.844 -0.1869  0.2814 -1.1112
 5536TIP3   OH238098   3.587   1.713   2.087  0.5530  0.4473  0.2089
 5536TIP3    H138099   3.583   1.680   1.997  0.1589 -2.3285  1.1689
 5536TIP3    H238100   3.523   1.661   2.135  2.2484  0.3619  2.5376
 5537TIP3   OH238101   6.214   1.159  16.152  0.2870 -0.1306 -0.1733
 5537TIP3    H138102   6.155   1.153  16.227  0.6059 -0.0991  0.0825
 5537TIP3    H238103   6.285   1.216  16.182  0.3705 -0.0454 -0.5298
 5538TIP3   OH238104   3.723   6.747   0.615  0.0759 -0.0873 -0.7068
 5538TIP3    H138105   3.787   6.788   0.557 -1.3426  2.3448 -0.7205
 5538TIP3    H238106   3.674   6.688   0.559  0.8751 -0.2960 -1.2010
 5539TIP3   OH238107   3.511   0.868  11.817  0.0075  0.0531 -0.1768
 5539TIP3    H138108   3.501   0.869  11.721  0.8319  1.0855 -0.2706
 5539TIP3    H238109   3.432   0.913  11.849 -1.1648 -1.8396 -0.2344
 5540TIP3   OH238110   2.869   2.977  13.352  0.2517  0.0830  0.0953
 5540TIP3    H138111   2.776   2.963  13.372  0.6051 -0.8348  1.1384
 5540TIP3    H238112   2.877   3.072  13.342 -0.9719  0.1115 -0.9515
 5541TIP3   OH238113   0.877   2.977   3.619 -0.1095  0.1981  0.1097
 5541TIP3    H138114   0.967   3.007   3.627 -0.7995  1.9577  2.0301
 5541TIP3    H238115   0.838   3.036   3.553 -0.7968  2.0480  2.0601
 5542TIP3   OH238116   2.694   6.206  10.298 -0.1042 -0.1914  0.5277
 5542TIP3    H138117   2.650   6.121  10.295  0.0976 -0.2728 -1.4386
 5542TIP3    H238118   2.646   6.260  10.235  0.3519  0.8717  1.0698
 5543TIP3   OH238119   3.245   1.038   1.411 -0.5162  0.1622  0.1674
 5543TIP3    H138120   3.264   0.945   1.394 -2.9322 -0.3189 -0.2615
 5543TIP3    H238121   3.230   1.042   1.506  0.0828  0.2186  0.2609
 5544TIP3   OH238122   4.320   4.989   5.044  0.3359  0.3035  0.1671
 5544TIP3    H138123   4.295   5.036   4.965  0.2753 -1.1930 -0.7423
 5544TIP3    H238124   4.253   4.921   5.053  1.4003 -0.7358  0.4173
 5545TIP3   OH238125   0.277   4.431  13.723 -0.2598  0.4621  0.0164
 5545TIP3    H138126   0.222   4.373  13.775  1.8444  0.3731  2.2839
 5545TIP3    H238127   0.272   4.516  13.767  0.5386  0.7370 -0.3987
 5546TIP3   OH238128   5.702   4.219   1.223 -0.2255  0.0329 -1.2628
 5546TIP3    H138129   5.744   4.302   1.198  0.7785 -0.2841 -0.6978
 5546TIP3    H238130   5.664   4.186   1.141  0.2215  0.5739 -1.6961
 5547TIP3   OH238131   1.317   0.213  11.645  0.5249  0.4885  0.3408
 5547TIP3    H138132   1.407   0.222  11.676  0.3234 -0.1984  1.1727
 5547TIP3    H238133   1.326   0.201  11.550  1.2577  1.1147  0.3177
 5548TIP3   OH238134   5.540   4.861  11.363 -0.7383 -0.1984  0.0515
 5548TIP3    H138135   5.451   4.828  11.375 -0.7189 -0.0301  0.6877
 5548TIP3    H238136   5.542   4.942  11.413 -0.5039  0.2887 -0.7350
 5549TIP3   OH238137   0.759   4.449   3.392  0.4799  0.1511  0.0250
 5549TIP3    H138138   0.846   4.422   3.364 -0.0305 -1.2529 -0.3186
 5549TIP3    H238139   0.720   4.492   3.316  0.6102  0.1174 -0.0594
 5550TIP3   OH238140   3.565   0.583  11.843 -0.1671  0.9187  0.1278
 5550TIP3    H138141   3.585   0.657  11.786 -2.0132  1.7809  0.5230
 5550TIP3    H238142   3.645   0.568  11.893 -0.1293  3.4747  0.9514
 5551TIP3   OH238143   3.721   0.364   2.177 -0.0691  0.1655 -0.2678
 5551TIP3    H138144   3.746   0.390   2.266  1.3376 -1.1351 -0.2526
 5551TIP3    H238145   3.792   0.398   2.122 -1.2958  1.6207 -1.0403
 5552TIP3   OH238146   1.531   5.998  15.337 -0.8804  0.1431 -0.7608
 5552TIP3    H138147   1.459   5.973  15.395 -0.4048  1.1383  0.3101
 5552TIP3    H238148   1.582   5.918  15.326 -1.0213 -0.0886  0.1528
 5553TIP3   OH238149   3.493   1.614  15.793 -0.0735 -0.1506 -0.7096
 5553TIP3    H138150   3.440   1.683  15.834 -1.8453 -1.9311  0.1813
 5553TIP3    H238151   3.560   1.594  15.858 -0.8549 -0.6853 -0.0448
 5554TIP3   OH238152   5.752   1.972  14.311 -0.5079 -0.0048  0.2800
 5554TIP3    H138153   5.814   1.981  14.239 -1.2706 -1.1825 -0.5497
 5554TIP3    H238154   5.766   2.051  14.364  0.2291  0.7701 -1.0106
 5555TIP3   OH238155   0.945   6.422  12.388 -0.2474 -0.3227 -0.1850
 5555TIP3    H138156   0.926   6.335  12.423 -0.1828 -0.3824 -0.2969
 5555TIP3    H238157   0.999   6.405  12.311 -2.1131 -0.3075 -1.5614
 5556TIP3   OH238158   3.421   2.126   1.398  0.1745 -0.2171 -0.3049
 5556TIP3    H138159   3.440   2.217   1.422 -2.1269  0.3905 -0.5075
 5556TIP3    H238160   3.377   2.089   1.475 -0.7979 -0.4691 -0.9564
 5557TIP3   OH238161   3.104   3.563  10.974  0.2291  0.0895 -0.5479
 5557TIP3    H138162   3.124   3.505  11.047  0.7246 -1.1548 -1.6247
 5557TIP3    H238163   3.057   3.507  10.912  0.8818  0.7842 -1.6998
 5558TIP3   OH238164   5.210   3.117  15.776  0.1828 -0.2801  0.2071
 5558TIP3    H138165   5.275   3.129  15.846 -1.5247  1.2579  1.6630
 5558TIP3    H238166   5.208   3.201  15.730  2.4416 -1.7658 -2.8913
 5559TIP3   OH238167   0.937   4.439   2.638 -0.2096 -0.2290  0.6522
 5559TIP3    H138168   0.872   4.510   2.629 -0.3601 -0.0879  2.4415
 5559TIP3    H238169   1.013   4.470   2.589 -1.4127 -0.3549 -1.4306
 5560TIP3   OH238170   6.059   4.612  13.767 -0.2612  0.0389  0.2135
 5560TIP3    H138171   5.988   4.555  13.797  0.1535 -0.6341 -0.0525
 5560TIP3    H238172   6.019   4.699  13.760 -1.2488 -0.4536 -0.6007
 5561TIP3   OH238173   4.324   2.230   3.504  0.5170  0.2272  0.2317
 5561TIP3    H138174   4.402   2.179   3.485  0.0595 -0.4160  0.0513
 5561TIP3    H238175   4.251   2.172   3.481 -0.0145  1.2246 -0.7210
 5562TIP3   OH238176   1.312   2.587  11.904 -0.2080 -0.3554  0.4657
 5562TIP3    H138177   1.344   2.657  11.961 -0.2009  0.3279 -0.3467
 5562TIP3    H238178   1.368   2.512  11.923  1.3837  0.5639 -0.3475
 5563TIP3   OH238179   1.656   5.706   2.142 -0.2823  0.3565  0.0896
 5563TIP3    H138180   1.646   5.633   2.203 -0.8263 -1.3462 -1.8914
 5563TIP3    H238181   1.746   5.736   2.155  1.3652 -3.2109 -1.5006
 5564TIP3   OH238182   2.764   6.739  10.609  0.0512  0.0012  0.0624
 5564TIP3    H138183   2.727   6.675  10.548  0.5581 -0.2777  0.0489
 5564TIP3    H238184   2.734   6.823  10.575 -0.6790 -0.2301  0.1208
 5565TIP3   OH238185   4.595   1.203   4.788 -0.6879  0.0560 -0.2601
 5565TIP3    H138186   4.616   1.174   4.877 -1.6904  0.7627  0.2317
 5565TIP3    H238187   4.586   1.122   4.738  0.7499 -0.3255  0.0615
 5566TIP3   OH238188   4.826   0.117  11.209 -0.7978  0.7321 -0.0638
 5566TIP3    H138189   4.735   0.094  11.229 -0.9884  1.1326 -0.4489
 5566TIP3    H238190   4.877   0.075  11.278 -1.1405 -0.7550 -0.6703
 5567TIP3   OH238191   5.073   4.673  10.603 -0.0043 -0.5668  1.2152
 5567TIP3    H138192   5.053   4.625  10.523 -1.7581 -1.2751  2.0304
 5567TIP3    H238193   5.169   4.678  10.604  0.0591  0.0297 -1.2136
 5568TIP3   OH238194   1.531   1.595  11.552 -0.6629 -0.3132 -0.0731
 5568TIP3    H138195   1.591   1.559  11.617 -1.3912  0.1883  0.8971
 5568TIP3    H238196   1.510   1.521  11.495  2.3061 -0.1073 -1.5936
 5569TIP3   OH238197   6.145   3.640   1.122  0.0538  0.5491  0.4358
 5569TIP3    H138198   6.229   3.682   1.136  1.6017 -1.1868 -2.6125
 5569TIP3    H238199   6.138   3.576   1.193 -0.2492  2.7086  2.4762
 5570TIP3   OH238200   1.301   0.241  11.385 -0.3470  0.0113 -0.0229
 5570TIP3    H138201   1.279   0.333  11.371  0.2799  0.3824  1.3516
 5570TIP3    H238202   1.351   0.217  11.307  1.3206  1.4551  0.5449
 5571TIP3   OH238203   4.056   5.450   6.163 -0.1551  0.4285  0.1925
 5571TIP3    H138204   4.023   5.453   6.253 -2.0686 -0.9013 -0.4056
 5571TIP3    H238205   4.095   5.537   6.149  0.1397  0.6795  2.2604
 5572TIP3   OH238206   6.011   6.617   4.345  0.0812  0.0853  0.1546
 5572TIP3    H138207   5.927   6.646   4.383  0.9184  1.4217  1.0870
 5572TIP3    H238208   5.995   6.528   4.316 -1.2833 -0.1717  1.5820
 5573TIP3   OH238209   4.045   6.111  12.517  1.2225 -0.1391  0.2572
 5573TIP3    H138210   3.993   6.080  12.443  0.8945  1.0675 -0.0358
 5573TIP3    H238211   4.135   6.106  12.487  1.3216 -2.1577  0.7332
 5574TIP3   OH238212   6.415   6.778  13.346 -0.0451  0.3801  0.2080
 5574TIP3    H138213   6.321   6.792  13.342 -0.2320 -0.4929  1.0485
 5574TIP3    H238214   6.441   6.814  13.431  0.0062 -1.2785  0.9276
 5575TIP3   OH238215   5.192   2.355  16.457  0.1776 -0.0786  0.1668
 5575TIP3    H138216   5.100   2.360  16.433  0.0536  0.8069  0.7898
 5575TIP3    H238217   5.193   2.361  16.552  0.8578 -0.5060  0.1990
 5576TIP3   OH238218   5.749   5.991  15.042 -0.2956  0.8859 -0.4182
 5576TIP3    H138219   5.842   5.999  15.021 -0.4106 -1.0033 -1.9795
 5576TIP3    H238220   5.733   6.060  15.106  2.0404  1.6297 -0.5227
 5577TIP3   OH238221   6.141   3.950   3.139 -0.0448  0.4557 -0.2646
 5577TIP3    H138222   6.140   3.855   3.135 -2.2305  0.4005  0.4060
 5577TIP3    H238223   6.183   3.969   3.223 -1.5931 -0.0279  0.6566
 5578TIP3   OH238224   2.910   5.197   3.137  0.2745 -0.1424  0.8855
 5578TIP3    H138225   3.001   5.166   3.142  0.8596  1.3340  0.2313
 5578TIP3    H238226   2.914   5.287   3.168 -0.7256  0.3505 -0.3172
 5579TIP3   OH238227   1.434   0.464   2.268 -1.0707 -0.4193 -0.1969
 5579TIP3    H138228   1.491   0.409   2.321  2.5095  0.8959 -2.3217
 5579TIP3    H238229   1.415   0.540   2.323  1.4205  0.2754 -0.1793
 5580TIP3   OH238230   0.037   5.410   0.956  0.3622  0.0036  0.1842
 5580TIP3    H138231   0.062   5.328   0.998  0.0027  0.8407  2.1437
 5580TIP3    H238232   0.118   5.462   0.955  0.1875  0.3021  0.6794
 5581TIP3   OH238233   0.463   1.914   4.563  0.2086  0.2351 -0.5903
 5581TIP3    H138234   0.489   1.822   4.571  0.8616  0.4754  0.2676
 5581TIP3    H238235   0.431   1.937   4.651 -0.0554  0.7954 -0.8315
 5582TIP3   OH238236   3.084   4.983  13.744 -0.2852  0.4332  0.4068
 5582TIP3    H138237   3.167   4.952  13.782 -0.8014 -0.0413  1.1828
 5582TIP3    H238238   3.059   5.057  13.800 -1.8564 -1.2524  2.0578
 5583TIP3   OH238239   4.451   0.622  12.473  0.0956 -0.1843 -0.1526
 5583TIP3    H138240   4.395   0.615  12.395  0.3565  1.2965 -0.4998
 5583TIP3    H238241   4.527   0.567  12.453  1.3903  2.1576 -2.0907
 5584TIP3   OH238242   6.416   6.367   4.697 -0.0363 -0.8856 -0.4208
 5584TIP3    H138243   6.512   6.369   4.696 -0.0139 -0.5706  0.9626
 5584TIP3    H238244   6.393   6.333   4.783 -1.1774 -0.9191 -0.7184
 5585TIP3   OH238245   5.347   6.480   5.915  0.2689  0.3006 -0.4089
 5585TIP3    H138246   5.304   6.395   5.927 -1.1561  1.0432  0.0566
 5585TIP3    H238247   5.291   6.542   5.963  1.7295  1.3841 -0.0214
 5586TIP3   OH238248   2.185   5.352  16.399  0.5066  0.1394 -0.1624
 5586TIP3    H138249   2.133   5.273  16.390 -0.2943  0.4789  1.1708
 5586TIP3    H238250   2.130   5.411  16.451  1.8760  0.8118  0.5821
 5587TIP3   OH238251   4.443   0.598   3.824 -0.2301 -0.3814 -0.2191
 5587TIP3    H138252   4.351   0.615   3.804 -0.6135 -0.4177  1.3937
 5587TIP3    H238253   4.476   0.550   3.748 -2.2329 -2.6641  0.2211
 5588TIP3   OH238254   0.430   2.126   3.307 -0.4523  0.6627  0.3026
 5588TIP3    H138255   0.525   2.134   3.312 -0.5621  3.0257 -0.0167
 5588TIP3    H238256   0.404   2.196   3.247 -2.6471  2.4049  3.0359
 5589TIP3   OH238257   3.041   4.853  11.350  0.5383  0.1067  0.0850
 5589TIP3    H138258   3.023   4.927  11.293 -3.9036  0.9075  2.1248
 5589TIP3    H238259   3.113   4.883  11.406 -0.0511  2.2671 -0.2294
 5590TIP3   OH238260   1.177   1.091  14.038  0.5344  0.5240 -0.3308
 5590TIP3    H138261   1.184   1.083  14.133 -1.5525 -0.2859 -0.1971
 5590TIP3    H238262   1.211   1.178  14.019 -0.0300  1.1273  1.2814
 5591TIP3   OH238263   6.123   4.879   2.782 -0.2579 -0.2381 -0.1070
 5591TIP3    H138264   6.051   4.942   2.771  1.1094  1.9498  2.3189
 5591TIP3    H238265   6.084   4.809   2.834 -0.8928  0.5453  0.5224
 5592TIP3   OH238266   0.758   3.074  12.940 -0.3743 -0.2890 -0.1676
 5592TIP3    H138267   0.678   3.122  12.916  0.5491  0.6914 -1.4544
 5592TIP3    H238268   0.829   3.125  12.900  0.9886 -0.6563  1.6714
 5593TIP3   OH238269   1.562   0.310  16.340 -0.3280 -0.1317  0.4291
 5593TIP3    H138270   1.550   0.238  16.402 -1.9309 -0.6635 -0.4475
 5593TIP3    H238271   1.486   0.305  16.283 -0.9152  2.7965  0.8358
 5594TIP3   OH238272   6.736   2.204   2.532 -0.1445  0.1379 -0.1246
 5594TIP3    H138273   6.746   2.230   2.623 -0.2566  0.5074 -0.2144
 5594TIP3    H238274   6.704   2.113   2.536  0.6837 -0.1457  0.1882
 5595TIP3   OH238275   2.697   3.891   0.840 -0.6880 -0.1520  0.0484
 5595TIP3    H138276   2.720   3.813   0.789 -1.8633 -0.8876  0.6098
 5595TIP3    H238277   2.741   3.879   0.924 -0.9040 -0.2367  0.1504
 5596TIP3   OH238278   3.436   2.102   6.517  0.0921  0.1348  0.0256
 5596TIP3    H138279   3.372   2.169   6.491  0.6894  1.3606  1.5467
 5596TIP3    H238280   3.468   2.131   6.602 -0.0064 -2.4084  1.0060
 5597TIP3   OH238281   4.709   1.287   1.491 -0.8374 -0.1559 -0.0452
 5597TIP3    H138282   4.768   1.340   1.544 -1.8519  0.2906  0.6759
 5597TIP3    H238283   4.731   1.196   1.514  0.8486 -0.0973 -1.2251
 5598TIP3   OH238284   6.058   2.295   1.142 -0.1139  0.3076  0.6090
 5598TIP3    H138285   6.105   2.265   1.064 -0.7138 -1.6456  0.9585
 5598TIP3    H238286   6.116   2.273   1.215 -0.2776  0.6368  0.8430
 5599TIP3   OH238287   0.422   3.433   5.914 -0.4837  0.5208 -0.1837
 5599TIP3    H138288   0.343   3.393   5.880 -1.4308  1.4011  0.8821
 5599TIP3    H238289   0.394   3.478   5.994  1.1556  0.5831  0.3998
 5600TIP3   OH238290   1.064   1.112  14.617  0.2278  0.1976 -0.1984
 5600TIP3    H138291   1.151   1.112  14.578  0.8699  0.9680  1.1923
 5600TIP3    H238292   1.042   1.205  14.628  0.3077  0.0371  1.7170
 5601TIP3   OH238293   3.908   3.223  12.686  0.4299  0.4533 -0.0639
 5601TIP3    H138294   3.885   3.226  12.779 -1.5790  2.2352 -0.5308
 5601TIP3    H238295   3.992   3.268  12.681  0.1426  1.1105  0.8063
 5602TIP3   OH238296   2.240   0.559  13.334 -0.2740  0.1979 -0.0181
 5602TIP3    H138297   2.283   0.557  13.419 -0.4077  0.9393  0.0755
 5602TIP3    H238298   2.264   0.476  13.293  0.3620  0.1368  0.4616
 5603TIP3   OH238299   3.690   3.239   5.581 -0.2548 -0.1081 -0.1584
 5603TIP3    H138300   3.657   3.204   5.664 -2.0221  1.2452 -0.2229
 5603TIP3    H238301   3.707   3.331   5.599 -0.4361  0.1516 -1.2341
 5604TIP3   OH238302   0.892   0.906   5.166 -0.5075 -0.3108 -0.2437
 5604TIP3    H138303   0.861   0.942   5.248  0.6225 -0.7291  0.3853
 5604TIP3    H238304   0.901   0.812   5.183 -2.3507 -0.7770 -1.5162
 5605TIP3   OH238305   2.221   1.306   3.608 -0.4532 -0.3978  0.0176
 5605TIP3    H138306   2.241   1.394   3.575 -0.6658 -0.3305  0.0696
 5605TIP3    H238307   2.126   1.304   3.616 -0.4576 -0.6745 -0.0973
 5606TIP3   OH238308   3.648   2.779   5.114 -0.6032 -0.2742 -0.2343
 5606TIP3    H138309   3.673   2.852   5.170 -0.3440  0.5905 -1.4503
 5606TIP3    H238310   3.730   2.739   5.088 -0.5657  0.8995 -2.0345
 5607TIP3   OH238311   4.639   2.182  15.698  0.1407  0.1711 -0.4277
 5607TIP3    H138312   4.580   2.180  15.773 -0.2523  1.3228 -0.6793
 5607TIP3    H238313   4.632   2.095  15.659 -0.6654 -0.0081  0.1067
 5608TIP3   OH238314   5.426   6.115   1.802 -0.0966  0.0215  0.2233
 5608TIP3    H138315   5.397   6.205   1.790 -0.1463 -0.1339 -0.9360
 5608TIP3    H238316   5.521   6.118   1.794 -0.0895 -0.0037  0.3026
 5609TIP3   OH238317   6.732   6.148  11.906 -0.3596  0.0764 -0.2063
 5609TIP3    H138318   6.651   6.150  11.854  0.3159  1.2762 -1.2911
 5609TIP3    H238319   6.802   6.151  11.841  0.5687 -0.8083  0.7235
 5610TIP3   OH238320   5.445   3.635  15.100 -0.0514 -0.5686  0.7772
 5610TIP3    H138321   5.491   3.552  15.104  2.0558  0.4726 -0.0829
 5610TIP3    H238322   5.399   3.633  15.016  2.8373  0.4113 -0.9657
 5611TIP3   OH238323   0.356   1.202   2.869  0.4910 -0.2150  0.1649
 5611TIP3    H138324   0.263   1.226   2.868  0.3827 -0.6278 -0.0083
 5611TIP3    H238325   0.378   1.189   2.777  0.4858 -0.9827  0.2656
 5612TIP3   OH238326   2.561   2.828   0.302 -0.1058 -0.0329  0.2922
 5612TIP3    H138327   2.636   2.796   0.252 -0.1127 -0.3324  0.4737
 5612TIP3    H238328   2.591   2.827   0.393 -0.0782  0.5524  0.2947
 5613TIP3   OH238329   6.382   2.768   2.291 -0.1354 -1.1716  0.7687
 5613TIP3    H138330   6.429   2.787   2.373  0.9647 -0.2753 -0.0326
 5613TIP3    H238331   6.451   2.755   2.227 -0.9378 -3.5441  0.2753
 5614TIP3   OH238332   6.230   2.114   3.798 -0.3799  0.4381  0.4790
 5614TIP3    H138333   6.220   2.184   3.734  1.4424 -1.1202 -1.7119
 5614TIP3    H238334   6.289   2.150   3.865 -1.0278  1.5963  0.4354
 5615TIP3   OH238335   0.173   5.524   3.829 -0.2105  0.4345 -0.3393
 5615TIP3    H138336   0.266   5.512   3.847 -0.2169  0.1193 -0.5031
 5615TIP3    H238337   0.131   5.449   3.870 -0.3523  0.3750 -0.5912
 5616TIP3   OH238338   0.271   5.883  15.156  0.4165 -0.8699  0.3666
 5616TIP3    H138339   0.352   5.894  15.205  0.3706 -0.8894  0.4458
 5616TIP3    H238340   0.292   5.818  15.089  0.9750  0.3920 -0.7366
 5617TIP3   OH238341   5.403   3.762  11.830 -0.2950 -0.6033  0.3280
 5617TIP3    H138342   5.424   3.686  11.885 -0.8379 -0.5362  0.6323
 5617TIP3    H238343   5.411   3.837  11.889 -0.7133 -0.5137  0.2724
 5618TIP3   OH238344   3.421   5.386  12.854  0.1061  0.1027 -0.3303
 5618TIP3    H138345   3.379   5.428  12.928 -0.8292  1.3675 -1.5185
 5618TIP3    H238346   3.457   5.458  12.803  1.3314 -0.7875 -0.7549
 5619TIP3   OH238347   0.331   4.392  14.626 -0.3727  0.0822  0.7299
 5619TIP3    H138348   0.398   4.334  14.663 -2.5738 -2.1072  1.5828
 5619TIP3    H238349   0.318   4.460  14.692  0.5045  0.1235  0.8621
 5620TIP3   OH238350   4.496   5.343  15.317  0.3088  0.1695 -0.0680
 5620TIP3    H138351   4.415   5.344  15.265 -0.5672 -0.2474  1.2372
 5620TIP3    H238352   4.558   5.394  15.265 -1.0530  1.2888 -0.6770
 5621TIP3   OH238353   0.086   3.211   2.516 -0.2644 -0.2288  0.1626
 5621TIP3    H138354   0.097   3.219   2.421 -1.7943 -2.4814 -0.2918
 5621TIP3    H238355   0.166   3.168   2.546  0.2005  0.4381 -0.0934
 5622TIP3   OH238356   6.574   6.210  11.696 -0.4655 -0.4572  0.8597
 5622TIP3    H138357   6.584   6.209  11.601  0.3642 -0.5433  0.9445
 5622TIP3    H238358   6.593   6.300  11.722  2.3478 -1.0945  1.2401
 5623TIP3   OH238359   5.810   4.684   5.212 -0.2776 -0.2768 -0.5841
 5623TIP3    H138360   5.902   4.685   5.240 -0.2484  2.5915 -0.4295
 5623TIP3    H238361   5.760   4.679   5.294 -0.2230  0.4469 -0.4987
 5624TIP3   OH238362   1.450   5.579  15.037 -0.0701  0.6810 -0.4920
 5624TIP3    H138363   1.499   5.647  15.084  0.8543  0.8174 -1.5916
 5624TIP3    H238364   1.509   5.553  14.966 -1.2260  0.1586 -1.2866
 5625TIP3   OH238365   0.856   3.281   5.213  0.1550 -0.0193 -0.5545
 5625TIP3    H138366   0.836   3.374   5.212  1.1447  0.2257  0.1476
 5625TIP3    H238367   0.779   3.239   5.175  0.4030  1.1989 -2.5313
 5626TIP3   OH238368   5.334   2.818   5.897  0.3166 -0.1596 -0.3346
 5626TIP3    H138369   5.281   2.759   5.845 -3.2011  0.4902  2.1474
 5626TIP3    H238370   5.369   2.764   5.968  1.3331 -0.1808 -0.8351
 5627TIP3   OH238371   4.346   4.392  12.415  0.1157  0.4190 -0.2122
 5627TIP3    H138372   4.342   4.416  12.323  1.6394 -0.0263 -0.4251
 5627TIP3    H238373   4.421   4.332  12.421 -1.6512 -1.8198  0.8240
 5628TIP3   OH238374   0.966   3.747  11.341  0.0935 -0.5720 -0.8306
 5628TIP3    H138375   1.053   3.734  11.302  2.2462  0.7458  3.0246
 5628TIP3    H238376   0.950   3.667  11.391 -0.4550 -0.3680 -0.6749
 5629TIP3   OH238377   0.266   3.693   5.205  0.4244 -0.3832 -0.1896
 5629TIP3    H138378   0.304   3.726   5.123  2.2641 -1.9321 -0.0375
 5629TIP3    H238379   0.268   3.598   5.195 -0.2636 -0.5701  1.2775
 5630TIP3   OH238380   3.371   6.316   4.799  0.3415  0.1318 -0.4935
 5630TIP3    H138381   3.334   6.344   4.882  1.5258  0.5152 -0.0717
 5630TIP3    H238382   3.308   6.345   4.733 -0.2032  0.5688  0.2150
 5631TIP3   OH238383   2.984   6.157  16.181  0.1945  0.4268 -0.3487
 5631TIP3    H138384   2.909   6.215  16.168  1.2856  2.2072  0.8794
 5631TIP3    H238385   2.973   6.088  16.115 -0.5697  2.6311 -2.6824
 5632TIP3   OH238386   5.883   4.763  14.776  0.4601  0.8393  0.0366
 5632TIP3    H138387   5.973   4.775  14.808  0.7108  1.2235 -0.7938
 5632TIP3    H238388   5.833   4.829  14.823  0.3520 -0.2283  1.4855
 5633TIP3   OH238389   6.377   5.890  13.410 -0.4084  0.5449  0.5077
 5633TIP3    H138390   6.337   5.973  13.385  0.2131  0.8745  0.5795
 5633TIP3    H238391   6.335   5.867  13.493 -1.4899  0.1444 -0.1376
 5634TIP3   OH238392   5.535   2.983   0.152  0.0071 -0.3710 -0.0414
 5634TIP3    H138393   5.509   3.017   0.067 -1.4848 -1.3926 -0.0278
 5634TIP3    H238394   5.625   3.015   0.164 -0.4090  1.3724 -1.1372
 5635TIP3   OH238395   3.508   4.949   3.298  0.5507 -0.3560 -0.3338
 5635TIP3    H138396   3.485   4.955   3.391  0.3890  0.2270 -0.4048
 5635TIP3    H238397   3.503   4.856   3.278  1.9410 -0.6583  0.5778
 5636TIP3   OH238398   5.298   2.512  14.518  0.7023 -0.3016 -0.0827
 5636TIP3    H138399   5.361   2.580  14.540  1.2432 -0.9238  0.2982
 5636TIP3    H238400   5.336   2.431  14.552 -0.2664 -0.6933  0.1020
 5637TIP3   OH238401   6.739   0.861   2.884  0.2466 -0.5434  0.2532
 5637TIP3    H138402   6.784   0.852   2.799 -0.2200  0.0042 -0.0586
 5637TIP3    H238403   6.752   0.777   2.927 -1.0431 -1.4721 -1.1046
 5638TIP3   OH238404   3.599   6.037  12.259  0.3020  0.3719  0.5372
 5638TIP3    H138405   3.510   6.013  12.285  0.5120 -0.1701  0.7728
 5638TIP3    H238406   3.588   6.086  12.178 -0.0746 -1.9149 -0.8974
 5639TIP3   OH238407   1.521   4.745   5.796 -0.3236 -0.2377  0.1366
 5639TIP3    H138408   1.541   4.675   5.858  0.2660  0.5687  0.9018
 5639TIP3    H238409   1.426   4.743   5.786 -0.6075  0.4518  2.1559
 5640TIP3   OH238410   1.138   4.800  14.910 -0.0811  0.4524  0.2327
 5640TIP3    H138411   1.156   4.710  14.880 -1.7822 -0.1414  0.9094
 5640TIP3    H238412   1.192   4.855  14.852  0.0708 -0.9184 -0.9992
 5641TIP3   OH238413   5.194   5.552  15.290 -0.2103  0.3039  0.2730
 5641TIP3    H138414   5.142   5.472  15.287  1.1722 -0.5805 -1.2666
 5641TIP3    H238415   5.262   5.534  15.356 -1.5372  1.3214  2.0111
 5642TIP3   OH238416   3.847   4.311   3.871 -0.3633  0.1694  0.0810
 5642TIP3    H138417   3.896   4.347   3.797  1.0280 -2.2123 -0.2606
 5642TIP3    H238418   3.909   4.314   3.944 -0.8887  0.2105  0.5324
 5643TIP3   OH238419   0.204   5.490   5.909 -0.4337  0.4635 -0.2263
 5643TIP3    H138420   0.290   5.502   5.949 -0.4200 -3.2619  1.2546
 5643TIP3    H238421   0.144   5.537   5.966  0.2751  0.3410  0.6341
 5644TIP3   OH238422   5.167   0.859  14.372  0.0191 -0.2743  0.0625
 5644TIP3    H138423   5.178   0.799  14.298 -0.6325  0.7820 -0.9223
 5644TIP3    H238424   5.215   0.817  14.443 -0.1956 -1.8335 -0.6558
 5645TIP3   OH238425   5.977   1.043  11.117  0.0483 -0.7666  0.7872
 5645TIP3    H138426   6.031   1.123  11.117 -0.4352 -0.4278 -0.0286
 5645TIP3    H238427   6.041   0.972  11.126  0.4488 -0.2790  2.0248
 5646TIP3   OH238428   3.184   6.188   2.133 -0.0531  0.0508  0.3440
 5646TIP3    H138429   3.113   6.141   2.176 -0.9288  0.7566 -0.2992
 5646TIP3    H238430   3.192   6.147   2.047 -1.1742  1.3746 -0.4211
 5647TIP3   OH238431   6.419   2.741   2.681 -0.2948  0.2440 -0.4838
 5647TIP3    H138432   6.479   2.746   2.756  1.6363  0.9650 -1.9965
 5647TIP3    H238433   6.354   2.809   2.699 -0.2119  0.0106  0.8090
 5648TIP3   OH238434   3.458   3.934  12.287  0.0189  0.5112  0.1483
 5648TIP3    H138435   3.552   3.946  12.290  0.2255 -0.6439 -0.8579
 5648TIP3    H238436   3.446   3.851  12.240 -1.4842  0.5398  0.4333
 5649TIP3   OH238437   3.824   3.676  14.340  0.0796 -0.0855 -0.1654
 5649TIP3    H138438   3.769   3.610  14.298  0.6986  0.4200 -1.8792
 5649TIP3    H238439   3.841   3.641  14.427 -1.3675 -1.1455 -0.2607
 5650TIP3   OH238440   4.452   6.678   0.355 -0.3589  0.2702  0.1032
 5650TIP3    H138441   4.458   6.611   0.287 -0.4989  0.1500  0.2103
 5650TIP3    H238442   4.359   6.684   0.375 -0.2155 -0.4909  1.0767
 5651TIP3   OH238443   6.481   1.250  15.703 -0.3920  0.1607  0.5797
 5651TIP3    H138444   6.425   1.234  15.779 -0.2243 -0.2567  0.6154
 5651TIP3    H238445   6.542   1.176  15.702 -0.7476 -0.1285 -0.2895
 5652TIP3   OH238446   4.775   5.786  16.007 -0.4107 -0.2374  0.1179
 5652TIP3    H138447   4.696   5.831  16.038  0.1773  0.3081  0.8633
 5652TIP3    H238448   4.847   5.831  16.052  0.2585 -1.3399  0.1786
 5653TIP3   OH238449   5.430   6.212  14.762 -0.1205  0.0637 -0.2239
 5653TIP3    H138450   5.518   6.181  14.740  0.0017  0.2356  0.0097
 5653TIP3    H238451   5.392   6.143  14.816  0.8899  1.1368  1.9907
 5654TIP3   OH238452   5.212   1.097  12.622 -0.5398 -0.5614 -0.2708
 5654TIP3    H138453   5.238   1.185  12.592  1.4065 -1.0315 -0.1031
 5654TIP3    H238454   5.137   1.075  12.567 -1.6247  1.5361  0.2584
 5655TIP3   OH238455   2.522   4.569  13.676  0.6691 -0.7398 -0.0981
 5655TIP3    H138456   2.432   4.545  13.698 -0.0402  1.0261 -0.8732
 5655TIP3    H238457   2.573   4.540  13.751 -1.0052  1.0351  1.8835
 5656TIP3   OH238458   4.879   4.499   1.134  0.3045  0.3762 -0.1557
 5656TIP3    H138459   4.906   4.424   1.187 -1.0641 -1.4579 -1.8801
 5656TIP3    H238460   4.960   4.547   1.118  1.0777 -0.1977  1.7445
 5657TIP3   OH238461   0.266   6.659   2.656 -0.5296  0.7974  0.2721
 5657TIP3    H138462   0.261   6.576   2.702 -2.3033  0.4564 -0.4437
 5657TIP3    H238463   0.356   6.665   2.626 -0.0556 -0.2498  1.4136
 5658TIP3   OH238464   0.351   6.840  17.176 -0.6306 -0.2749  0.7919
 5658TIP3    H138465   0.272   6.796  17.146 -0.6771  0.6047 -0.4215
 5658TIP3    H238466   0.320   6.904  17.241 -1.0590  0.7205 -0.3602
 5659TIP3   OH238467   1.388   6.670  11.062 -0.0549 -0.2846 -0.5430
 5659TIP3    H138468   1.364   6.602  11.125 -1.3117 -0.8337 -1.5621
 5659TIP3    H238469   1.471   6.704  11.094 -0.3761 -0.9389  1.0808
 5660TIP3   OH238470   5.664   0.947  16.471 -0.4878 -0.1801 -0.3142
 5660TIP3    H138471   5.623   0.867  16.503  0.6696  0.4857  3.3328
 5660TIP3    H238472   5.756   0.939  16.497  0.1683  1.3874 -1.9170
 5661TIP3   OH238473   0.133   2.783  12.542  0.0211 -0.0725 -0.0263
 5661TIP3    H138474   0.098   2.694  12.551 -2.8440  0.7301 -1.8608
 5661TIP3    H238475   0.197   2.776  12.471 -0.6295 -0.6240 -0.5867
 5662TIP3   OH238476   3.962   0.298  10.350 -0.1893  0.3263 -0.0020
 5662TIP3    H138477   4.041   0.249  10.329  0.3275  0.4399  1.5747
 5662TIP3    H238478   3.894   0.258  10.296  0.3342 -1.7169  0.7696
 5663TIP3   OH238479   4.334   3.410   5.322  0.3571  0.0760  0.2067
 5663TIP3    H138480   4.292   3.493   5.298  1.1440  0.6397  0.6944
 5663TIP3    H238481   4.316   3.352   5.249 -0.6574  0.5134  0.0871
 5664TIP3   OH238482   0.993   5.165   2.849 -0.4483 -0.0623 -0.1940
 5664TIP3    H138483   1.056   5.125   2.909  0.0492 -1.1440 -1.3851
 5664TIP3    H238484   0.945   5.228   2.902 -0.0447 -1.0016  1.3400
 5665TIP3   OH238485   0.356   0.309  12.027  0.4326 -0.0301  0.1310
 5665TIP3    H138486   0.384   0.260  12.105 -2.1992 -0.2189  1.0428
 5665TIP3    H238487   0.263   0.324  12.040  0.5818  2.8769 -1.4569
 5666TIP3   OH238488   3.784   5.134  17.020  0.6201 -0.8217  0.0163
 5666TIP3    H138489   3.833   5.204  17.061 -0.7778  0.6290 -0.6711
 5666TIP3    H238490   3.837   5.056  17.034  1.5468  0.0983  2.0521
 5667TIP3   OH238491   0.142   1.806   3.551  0.5977  0.0972 -0.7387
 5667TIP3    H138492   0.100   1.751   3.484 -1.6203  0.8168 -0.0308
 5667TIP3    H238493   0.104   1.893   3.539  1.4667  0.6643  0.3568
 5668TIP3   OH238494   1.280   2.547   2.274  0.1927  0.0080  0.4262
 5668TIP3    H138495   1.254   2.620   2.217 -1.3602 -0.3634  0.5991
 5668TIP3    H238496   1.207   2.537   2.335  0.2736 -1.7994  0.2958
 5669TIP3   OH238497   6.283   2.711  14.519 -0.0016 -0.6777  0.4103
 5669TIP3    H138498   6.190   2.707  14.495 -0.4330  0.4398  1.7300
 5669TIP3    H238499   6.314   2.621  14.510 -0.5660 -0.6789 -2.3196
 5670TIP3   OH238500   6.484   5.102   3.283 -0.0406 -0.2709  0.2343
 5670TIP3    H138501   6.503   5.105   3.377 -0.0035 -0.0837  0.2206
 5670TIP3    H238502   6.546   5.163   3.244 -0.9039  0.6399  0.2358
 5671TIP3   OH238503   4.452   0.077  14.560 -0.1519 -0.5835 -0.5723
 5671TIP3    H138504   4.518   0.117  14.617 -0.1699  1.0424 -1.6218
 5671TIP3    H238505   4.376   0.135  14.567 -1.0120 -1.6889 -0.4272
 5672TIP3   OH238506   5.529   4.013   1.869  0.0994  0.1383  0.1383
 5672TIP3    H138507   5.470   3.955   1.821 -1.6195  2.0911 -0.2289
 5672TIP3    H238508   5.472   4.061   1.929  1.5874  0.8723  1.0291
 5673TIP3   OH238509   2.020   5.080  15.261  0.5941  0.0228  0.6206
 5673TIP3    H138510   1.979   5.138  15.326  1.5773 -0.3910  1.6447
 5673TIP3    H238511   2.108   5.063  15.296  1.6350  0.7802 -1.4276
 5674TIP3   OH238512   2.868   4.195  12.381  0.4425 -0.2599 -0.9367
 5674TIP3    H138513   2.895   4.150  12.461  0.3838 -1.9422 -1.8064
 5674TIP3    H238514   2.780   4.227  12.399  1.1142  0.9978  0.2692
 5675TIP3   OH238515   5.198   4.306  11.258  0.2097  0.4062 -0.0472
 5675TIP3    H138516   5.213   4.347  11.173 -1.1917  0.9250 -0.0772
 5675TIP3    H238517   5.239   4.366  11.321  0.0555  0.7381 -0.2578
 5676TIP3   OH238518   3.814   6.387  13.145 -0.2144 -0.3315 -0.0841
 5676TIP3    H138519   3.773   6.465  13.108  0.2194  0.0551  0.2442
 5676TIP3    H238520   3.825   6.328  13.070 -2.0738 -0.7794 -0.0532
 5677TIP3   OH238521   3.074   6.758  13.371  0.2461  0.0926  0.5591
 5677TIP3    H138522   3.066   6.692  13.301  0.2233 -0.1404  0.7812
 5677TIP3    H238523   3.153   6.807  13.348 -0.0787  0.3927  0.0524
 5678TIP3   OH238524   5.693   3.797   2.923 -0.3544  0.1542  0.1286
 5678TIP3    H138525   5.648   3.868   2.966  0.9897  0.1029  1.7388
 5678TIP3    H238526   5.769   3.779   2.979  0.4223 -1.2198 -1.2674
 5679TIP3   OH238527   3.915   3.469  13.215 -0.8420  0.2475 -0.2401
 5679TIP3    H138528   3.976   3.520  13.269 -2.3303 -1.0797  2.9270
 5679TIP3    H238529   3.940   3.491  13.125  1.3455  3.1915  0.8956
 5680TIP3   OH238530   4.253   0.554  11.660 -0.3039 -0.1890 -0.9908
 5680TIP3    H138531   4.294   0.599  11.733 -0.2906 -1.5595 -0.1067
 5680TIP3    H238532   4.163   0.585  11.659  0.1586  1.2243 -1.5918
 5681TIP3   OH238533   0.026   1.093  12.518  0.7186  0.5078 -0.9055
 5681TIP3    H138534   0.008   1.187  12.511 -0.2710  0.2885 -1.5229
 5681TIP3    H238535   0.093   1.077  12.451  1.2951  0.8670 -0.4190
 5682TIP3   OH238536   3.438   0.858  14.027 -0.0931  0.5030 -0.6015
 5682TIP3    H138537   3.524   0.864  14.069  1.6087 -0.3403 -3.6515
 5682TIP3    H238538   3.451   0.895  13.940 -3.3617  2.0234 -0.5707
 5683TIP3   OH238539   5.407   5.147  13.523  0.0458  0.0035  0.5661
 5683TIP3    H138540   5.464   5.220  13.548 -0.4733  0.4736  0.3981
 5683TIP3    H238541   5.379   5.168  13.434 -0.3248 -0.2630  0.6175
 5684TIP3   OH238542   4.852   4.607   3.058 -0.0812  0.2295  0.0669
 5684TIP3    H138543   4.924   4.668   3.040 -0.3753  0.2875 -0.9884
 5684TIP3    H238544   4.788   4.659   3.108  0.0271  0.5507 -0.1296
 5685TIP3   OH238545   1.745   4.483   5.170  0.3904  0.5586  0.1554
 5685TIP3    H138546   1.724   4.498   5.262  0.6080  2.0467 -0.0168
 5685TIP3    H238547   1.835   4.514   5.161 -0.0240  1.5336 -0.8055
 5686TIP3   OH238548   1.080   0.752  14.753 -0.1233  0.3140  0.2215
 5686TIP3    H138549   1.074   0.659  14.772  0.2084  0.3654  0.5809
 5686TIP3    H238550   1.106   0.756  14.661  0.1089  0.0471  0.2753
 5687TIP3   OH238551   4.192   6.205  10.968  0.4003  0.5457 -0.2533
 5687TIP3    H138552   4.254   6.224  10.897 -2.0681  0.8925 -2.4817
 5687TIP3    H238553   4.194   6.284  11.023  0.1584  1.6103 -1.7075
 5688TIP3   OH238554   5.810   3.535   5.294 -0.2122  0.5140 -0.3368
 5688TIP3    H138555   5.863   3.464   5.258  0.9211  2.2869 -2.4495
 5688TIP3    H238556   5.845   3.548   5.383  0.5771 -0.5764 -0.4689
 5689TIP3   OH238557   6.820   1.356  16.418  0.3844 -0.2377 -0.6301
 5689TIP3    H138558   6.864   1.380  16.336  0.7169  1.0804 -0.0863
 5689TIP3    H238559   6.888   1.311  16.469  0.8196  0.8585 -0.2191
 5690TIP3   OH238560   4.577   1.375   2.796 -0.1551  0.2584 -0.6493
 5690TIP3    H138561   4.597   1.465   2.770 -2.1343  0.7336 -0.6862
 5690TIP3    H238562   4.599   1.322   2.720 -0.5045  0.9160 -1.2117
 5691TIP3   OH238563   2.111   2.882  12.376  0.1166 -0.2998 -0.4464
 5691TIP3    H138564   2.149   2.945  12.316 -1.2871  0.3375 -0.7185
 5691TIP3    H238565   2.100   2.802  12.324  0.9817 -0.4594 -0.3855
 5692TIP3   OH238566   3.391   4.076  12.491 -0.0457 -0.3064 -0.2350
 5692TIP3    H138567   3.406   4.025  12.411  0.8977  0.1842 -0.3797
 5692TIP3    H238568   3.308   4.043  12.525  1.0622 -2.7487  0.2916
 5693TIP3   OH238569   3.758   3.592   4.632  0.0839  0.0662 -0.3441
 5693TIP3    H138570   3.727   3.675   4.595 -1.5019 -1.2457 -2.2318
 5693TIP3    H238571   3.697   3.527   4.597  0.7867 -1.8169  1.7094
 5694TIP3   OH238572   4.278   6.729  12.345 -0.2052 -0.3496 -0.1173
 5694TIP3    H138573   4.254   6.802  12.402  1.6433  1.2745 -1.2868
 5694TIP3    H238574   4.218   6.734  12.271  2.1466  2.4898 -2.0725
 5695TIP3   OH238575   1.925   0.732   0.185 -0.3692 -0.5876 -0.1016
 5695TIP3    H138576   2.001   0.780   0.218 -0.2291  0.3187 -1.6689
 5695TIP3    H238577   1.853   0.761   0.242  0.1788 -0.3845  0.5039
 5696TIP3   OH238578   2.315   4.860  12.226 -0.2290 -0.1217 -0.4396
 5696TIP3    H138579   2.240   4.825  12.179  1.1011 -1.7673 -1.4886
 5696TIP3    H238580   2.356   4.783  12.266 -1.1498  1.1583  3.3428
 5697TIP3   OH238581   3.971   6.163  11.804  1.0472  0.2119  0.3477
 5697TIP3    H138582   3.935   6.223  11.739  1.4569 -0.0453 -0.1293
 5697TIP3    H238583   3.974   6.214  11.885  0.8453  0.6449  0.0866
 5698TIP3   OH238584   0.248   0.743   2.452  0.4799 -0.5232  0.1998
 5698TIP3    H138585   0.154   0.748   2.469  0.5668 -0.6949  0.7415
 5698TIP3    H238586   0.287   0.717   2.536  0.8277 -2.3369 -0.4861
 5699TIP3   OH238587   4.244   4.795   6.894 -0.1200  0.0849  0.2497
 5699TIP3    H138588   4.188   4.718   6.881  0.5176 -0.3347 -0.0733
 5699TIP3    H238589   4.326   4.759   6.927  0.2251  0.6257 -0.0151
 5700TIP3   OH238590   0.644   0.442  16.145  0.1786 -0.4526  0.0766
 5700TIP3    H138591   0.572   0.400  16.098  0.1605  1.2070 -1.4752
 5700TIP3    H238592   0.670   0.515  16.089  1.6832  0.2554  1.6110
 5701TIP3   OH238593   6.473   1.487  15.170  0.2855 -0.0357  0.1157
 5701TIP3    H138594   6.461   1.451  15.083  0.7469  0.5425 -0.1937
 5701TIP3    H238595   6.531   1.425  15.215  2.2108  0.9792 -0.8649
 5702TIP3   OH238596   1.674   1.401  14.475 -0.9818  0.2044  0.4409
 5702TIP3    H138597   1.623   1.438  14.548 -0.0830 -2.0686  2.3680
 5702TIP3    H238598   1.639   1.313  14.464 -0.2224  0.0578 -1.0530
 5703TIP3   OH238599   2.359   4.365   1.180  0.0169  0.5181  0.5715
 5703TIP3    H138600   2.289   4.323   1.130  0.0807 -1.8664  2.3065
 5703TIP3    H238601   2.323   4.449   1.208 -1.4274  0.1782 -0.1770
 5704TIP3   OH238602   4.485   5.205  13.010  0.6948  0.3674 -0.5404
 5704TIP3    H138603   4.580   5.211  13.014  0.6028  2.0920 -0.1703
 5704TIP3    H238604   4.459   5.264  12.939 -0.0572 -0.8784 -1.3416
 5705TIP3   OH238605   2.219   4.096  17.184  0.3833 -0.3695  0.1625
 5705TIP3    H138606   2.218   4.087  17.089  0.3499 -1.1292  0.2282
 5705TIP3    H238607   2.127   4.082  17.210  0.3856 -0.1243  0.3040
 5706TIP3   OH238608   2.500   3.230   0.098 -0.3356 -0.2419 -0.1540
 5706TIP3    H138609   2.554   3.262   0.025 -1.3566  1.5707 -0.1750
 5706TIP3    H238610   2.449   3.158   0.061  2.6034 -2.6504  0.0920
 5707TIP3   OH238611   5.619   3.054  16.042  0.0606 -0.0637 -0.3119
 5707TIP3    H138612   5.645   3.037  15.952  0.8666  2.5282 -0.6587
 5707TIP3    H238613   5.694   3.100  16.081 -0.3025 -1.0214  1.6691
 5708TIP3   OH238614   0.189   3.544   6.099 -0.3706  0.4930 -0.3827
 5708TIP3    H138615   0.133   3.521   6.173  2.4059  0.2910  1.8679
 5708TIP3    H238616   0.206   3.638   6.110 -0.4536  0.5997 -1.1531
 5709TIP3   OH238617   3.104   1.891   1.402 -0.1433 -0.7700 -0.0167
 5709TIP3    H138618   3.015   1.902   1.436 -1.2982 -3.1903 -1.9947
 5709TIP3    H238619   3.101   1.930   1.315  1.0331 -0.0562  0.2435
 5710TIP3   OH238620   4.293   3.445   2.445 -0.2049 -0.0506  0.1273
 5710TIP3    H138621   4.280   3.355   2.475 -0.9059  0.0832  0.2413
 5710TIP3    H238622   4.368   3.477   2.495 -0.6267 -0.2192  0.8784
 5711TIP3   OH238623   0.657   2.650  14.322  0.1103  0.4272 -0.1819
 5711TIP3    H138624   0.594   2.593  14.278  0.7259  0.1423 -0.7075
 5711TIP3    H238625   0.680   2.716  14.257  0.6660  0.2860 -0.1309
 5712TIP3   OH238626   4.084   6.737   4.379 -0.1033 -0.1769 -0.3659
 5712TIP3    H138627   4.057   6.797   4.308  0.7377 -0.3374 -0.8314
 5712TIP3    H238628   4.174   6.762   4.398  0.5012 -1.7395 -1.0503
 5713TIP3   OH238629   0.682   3.337   1.953  0.2087  0.3403 -0.1228
 5713TIP3    H138630   0.726   3.417   1.978 -0.5453  1.1342 -1.2359
 5713TIP3    H238631   0.741   3.295   1.890  0.1167  0.5683 -0.3606
 5714TIP3   OH238632   0.010   2.702   2.333  0.3790  0.2275 -0.5605
 5714TIP3    H138633   0.052   2.783   2.303  0.7197 -0.1130 -1.0223
 5714TIP3    H238634  -0.000   2.650   2.253 -0.6303  0.1704 -0.4030
 5715TIP3   OH238635   0.762   3.562   2.350 -0.7307 -0.1594 -0.0994
 5715TIP3    H138636   0.751   3.595   2.439  2.3332  0.7393  0.0437
 5715TIP3    H238637   0.728   3.632   2.295 -1.9216 -0.3901  0.3089
 5716TIP3   OH238638   5.078   6.055   1.562 -0.3689 -0.3540  0.1143
 5716TIP3    H138639   5.128   6.136   1.573  0.5764 -1.0829  1.3385
 5716TIP3    H238640   5.100   6.001   1.638 -1.6684 -1.4231 -0.2143
 5717TIP3   OH238641   3.753   2.204  16.952  0.3522 -0.0860 -0.9437
 5717TIP3    H138642   3.780   2.295  16.936  0.5488  0.0923  0.3221
 5717TIP3    H238643   3.748   2.165  16.865  3.8861  0.1148 -1.3735
 5718TIP3   OH238644   1.477   4.984  12.224 -0.5438 -0.1964 -0.2917
 5718TIP3    H138645   1.523   4.922  12.168  0.4058  0.8389 -0.6898
 5718TIP3    H238646   1.399   5.008  12.174  0.6126  1.2146 -1.5455
 5719TIP3   OH238647   1.440   4.357   4.094 -0.1094 -0.9840 -0.4997
 5719TIP3    H138648   1.451   4.306   4.014 -2.1922 -1.2983 -0.6386
 5719TIP3    H238649   1.392   4.298   4.153 -3.7575  1.0840 -1.0985
 5720TIP3   OH238650   1.663   2.568  11.040  0.4231  0.1780 -0.4291
 5720TIP3    H138651   1.676   2.550  11.133  2.4254 -1.0312 -0.8738
 5720TIP3    H238652   1.741   2.619  11.015 -0.0075  0.3494 -1.4832
 5721TIP3   OH238653   5.441   5.692   2.285 -0.3300 -0.3384 -0.1941
 5721TIP3    H138654   5.385   5.690   2.207  0.1617 -0.3988 -0.5481
 5721TIP3    H238655   5.494   5.770   2.273  0.2371 -0.7335 -0.2616
 5722TIP3   OH238656   0.537   6.285   5.858  0.1636 -0.4927  0.0729
 5722TIP3    H138657   0.629   6.287   5.882  0.1037  0.6871  0.3042
 5722TIP3    H238658   0.497   6.354   5.911  0.0638  2.4650 -3.4155
 5723TIP3   OH238659   2.281   6.242  11.616  0.4172  0.5953 -0.0353
 5723TIP3    H138660   2.246   6.289  11.693 -0.6338 -0.2988  0.0466
 5723TIP3    H238661   2.239   6.156  11.619  2.9193 -0.7120  0.2884
 5724TIP3   OH238662   5.016   1.162   1.690  0.3136 -0.3455 -0.2593
 5724TIP3    H138663   5.024   1.225   1.761 -0.4123 -0.0040 -0.4682
 5724TIP3    H238664   5.063   1.202   1.617  2.5695 -1.4692  0.4889
 5725TIP3   OH238665   3.236   0.251   2.532 -0.0386 -0.3384  0.0613
 5725TIP3    H138666   3.221   0.312   2.604 -0.7467 -0.4840  0.0505
 5725TIP3    H238667   3.289   0.300   2.469 -0.8171  0.3720 -0.0697
 5726TIP3   OH238668   2.285   0.273  11.669 -0.8836  0.5282 -0.3956
 5726TIP3    H138669   2.271   0.182  11.694  0.7301  0.4529  0.3592
 5726TIP3    H238670   2.380   0.280  11.655 -0.8884  2.2303  0.1656
 5727TIP3   OH238671   3.078   1.873   4.854  0.2677 -0.2522 -0.0900
 5727TIP3    H138672   3.093   1.811   4.926  0.1141  0.0170  0.1774
 5727TIP3    H238673   3.067   1.818   4.777 -1.0135 -0.6160  0.3261
 5728TIP3   OH238674   5.352   1.357  12.610 -0.1077 -0.3059 -0.5034
 5728TIP3    H138675   5.446   1.376  12.608 -0.2001  0.1779 -3.3480
 5728TIP3    H238676   5.311   1.444  12.610 -0.5247 -0.4839 -2.1033
 5729TIP3   OH238677   3.228   0.341  15.428 -0.2948  0.0517 -0.1900
 5729TIP3    H138678   3.185   0.347  15.513 -1.1361 -1.0993 -0.5042
 5729TIP3    H238679   3.275   0.257  15.431  1.2909  0.8942 -0.1681
 5730TIP3   OH238680   0.851   6.195  12.500 -0.2200 -0.6370  0.4137
 5730TIP3    H138681   0.756   6.183  12.511 -0.0764 -1.0887  1.2292
 5730TIP3    H238682   0.888   6.108  12.517  0.4417 -0.1841  1.3493
 5731TIP3   OH238683   4.788   5.860   2.375 -0.5861  0.5173 -0.2373
 5731TIP3    H138684   4.715   5.906   2.416  0.7090 -0.3387  3.4047
 5731TIP3    H238685   4.832   5.927   2.323 -2.5868  1.6087 -0.6421
 5732TIP3   OH238686   0.985   5.536  12.087 -0.0454  0.5800 -0.2311
 5732TIP3    H138687   1.001   5.470  12.154 -0.0164 -0.0347 -0.8268
 5732TIP3    H238688   0.908   5.584  12.118 -0.4188 -0.1113 -0.0603
 5733TIP3   OH238689   3.628   6.549   2.160  0.4902  0.3135 -0.1114
 5733TIP3    H138690   3.587   6.467   2.132 -0.1200  0.7802 -0.6195
 5733TIP3    H238691   3.620   6.548   2.255  1.2316 -0.5912 -0.0386
 5734TIP3   OH238692   6.773   1.606  13.936 -0.0166 -0.1280  0.3929
 5734TIP3    H138693   6.813   1.519  13.927 -2.3564 -1.1610 -1.2052
 5734TIP3    H238694   6.807   1.656  13.861  0.7398  0.1059  0.8812
 5735TIP3   OH238695   1.058   3.593   4.142 -0.6966  0.3626 -0.4665
 5735TIP3    H138696   1.139   3.543   4.133 -0.4480  1.0024 -2.0353
 5735TIP3    H238697   1.086   3.684   4.146 -1.3002  0.5476 -0.3235
 5736TIP3   OH238698   4.569   6.549   5.564 -0.2819  0.1106 -0.7782
 5736TIP3    H138699   4.622   6.622   5.532 -0.5374  1.3919  1.5491
 5736TIP3    H238700   4.606   6.528   5.649 -2.3324 -0.2082  0.0750
 5737TIP3   OH238701   0.661   3.858   2.944 -0.5166  0.0230 -0.4647
 5737TIP3    H138702   0.593   3.897   2.889 -0.0006  1.5264 -0.1038
 5737TIP3    H238703   0.708   3.799   2.886 -1.0237  0.3037 -1.1808
 5738TIP3   OH238704   3.604   6.769  13.766  0.0132  0.2673 -0.2491
 5738TIP3    H138705   3.589   6.787  13.859 -1.6664  0.8400 -0.5939
 5738TIP3    H238706   3.693   6.802  13.749  0.1815  0.5296  1.0597
 5739TIP3   OH238707   5.943   5.026  15.802  0.5174  0.6846  0.3690
 5739TIP3    H138708   5.947   4.931  15.790  1.3589  0.7818 -0.1404
 5739TIP3    H238709   5.986   5.041  15.886 -2.4829  0.3341  2.1499
 5740TIP3   OH238710   6.053   4.373   6.246  0.2977  0.0379 -0.0583
 5740TIP3    H138711   6.090   4.386   6.334 -1.8902  1.0346  0.8015
 5740TIP3    H238712   6.100   4.298   6.211  1.5006 -0.1617  1.8217
 5741TIP3   OH238713   4.196   0.407  16.082 -0.5342 -0.0926 -0.0915
 5741TIP3    H138714   4.289   0.421  16.068 -0.8564  0.7786 -1.5855
 5741TIP3    H238715   4.188   0.394  16.177  0.9897  0.8012  0.2007
 5742TIP3   OH238716   3.170   1.942  15.763  0.4530  0.2393  0.2273
 5742TIP3    H138717   3.203   1.921  15.676  1.2667  0.5871  0.4412
 5742TIP3    H238718   3.238   1.997  15.802 -0.2830  0.7996  0.7685
 5743TIP3   OH238719   5.649   2.563  13.260 -0.7025 -0.9885 -0.2501
 5743TIP3    H138720   5.730   2.541  13.306  0.3955 -0.6461 -1.9117
 5743TIP3    H238721   5.624   2.648  13.295 -0.2530 -1.0226  0.1643
 5744TIP3   OH238722   2.255   6.267   3.541  0.1467 -0.1168  0.0606
 5744TIP3    H138723   2.322   6.307   3.484 -0.3392  0.4157 -0.1493
 5744TIP3    H238724   2.297   6.187   3.574  1.8693  1.4714  1.9948
 5745TIP3   OH238725   6.342   2.373  16.245 -0.6732  0.1768  0.7868
 5745TIP3    H138726   6.322   2.284  16.215 -0.5751  0.1567  0.7795
 5745TIP3    H238727   6.388   2.413  16.171 -2.2646  0.8184  0.0964
 5746TIP3   OH238728   5.245   5.208   1.411  0.4813 -0.1452  0.0684
 5746TIP3    H138729   5.271   5.293   1.446 -0.9043  0.1238  0.4931
 5746TIP3    H238730   5.281   5.207   1.322  0.3121  0.9900 -0.0273
 5747TIP3   OH238731   5.500   0.485  16.477 -0.2856  0.3947 -0.0440
 5747TIP3    H138732   5.486   0.500  16.384 -0.3299  1.3363  0.1039
 5747TIP3    H238733   5.512   0.572  16.514  0.5001 -0.0133  0.7113
 5748TIP3   OH238734   2.350   1.958   2.680  0.1563 -0.0988  0.1326
 5748TIP3    H138735   2.349   1.954   2.776  1.5267 -0.9346  0.1461
 5748TIP3    H238736   2.273   1.909   2.653 -0.7380  0.8916  0.7946
 5749TIP3   OH238737   1.891   0.298  17.132  0.4467  0.1506 -0.6026
 5749TIP3    H138738   1.950   0.228  17.159 -0.0883  0.2861  1.0232
 5749TIP3    H238739   1.804   0.257  17.132  0.2981  0.4592 -1.0186
 5750TIP3   OH238740   5.620   3.748   5.276  0.4364 -0.2121 -0.2781
 5750TIP3    H138741   5.702   3.783   5.241 -1.5774  2.4940 -2.8461
 5750TIP3    H238742   5.585   3.819   5.329 -1.4140 -0.2005 -1.4267
 5751TIP3   OH238743   0.656   0.665   2.754  0.1693  0.9978 -0.3745
 5751TIP3    H138744   0.627   0.647   2.844 -1.1766  1.5432 -0.6798
 5751TIP3    H238745   0.577   0.694   2.709  0.6056 -0.2154 -2.0096
 5752TIP3   OH238746   0.866   1.979   1.624 -0.4512  0.1703 -0.3203
 5752TIP3    H138747   0.793   1.989   1.563 -0.7483 -2.5844 -0.5359
 5752TIP3    H238748   0.830   2.008   1.708 -0.9054  1.3926 -0.9080
 5753TIP3   OH238749   4.947   6.142  11.790  0.0028  0.2289 -0.0585
 5753TIP3    H138750   4.887   6.196  11.739 -0.5300  0.6421  0.9744
 5753TIP3    H238751   5.022   6.128  11.733  0.5163  2.7079 -0.1151
 5754TIP3   OH238752   1.326   0.677  14.139  0.1952  0.0985  0.1849
 5754TIP3    H138753   1.294   0.652  14.225  0.3528  0.8028  0.4613
 5754TIP3    H238754   1.395   0.614  14.119  0.1308 -0.0917  0.5609
 5755TIP3   OH238755   4.405   5.638  13.848  0.2277  0.0267 -0.5715
 5755TIP3    H138756   4.386   5.722  13.805  1.0868  0.3939 -0.2622
 5755TIP3    H238757   4.402   5.574  13.777 -1.1681  0.2003 -0.6837
 5756TIP3   OH238758   2.730   6.479  12.346 -0.1372  0.1350 -0.7065
 5756TIP3    H138759   2.774   6.401  12.380  1.6435  0.9665 -0.9636
 5756TIP3    H238760   2.748   6.478  12.252  0.1365  0.9821 -0.6761
 5757TIP3   OH238761   2.896   0.472  14.166 -0.4569  0.3615 -0.4090
 5757TIP3    H138762   2.878   0.566  14.166  0.6553  0.6938 -4.0588
 5757TIP3    H238763   2.964   0.461  14.232 -1.2815  1.8850  0.7759
 5758TIP3   OH238764   1.382   3.855  11.625  0.0832  0.5015  0.5816
 5758TIP3    H138765   1.345   3.916  11.561 -1.2013  1.2816  2.0322
 5758TIP3    H238766   1.476   3.854  11.604 -0.1738  1.3961 -0.7539
 5759TIP3   OH238767   1.152   3.043   4.467 -0.1529 -0.5620  0.0547
 5759TIP3    H138768   1.214   2.971   4.481  0.1521  0.0646  2.1929
 5759TIP3    H238769   1.099   3.045   4.547 -0.3901  1.3653 -0.1189
 5760TIP3   OH238770   4.218   2.263   2.588 -0.2089 -0.1574  0.1704
 5760TIP3    H138771   4.175   2.180   2.607 -0.9329  0.1166 -0.2467
 5760TIP3    H238772   4.270   2.246   2.510 -0.5345 -0.1609 -0.0463
 5761TIP3   OH238773   2.267   6.348  10.943 -0.4597 -0.0922 -0.2430
 5761TIP3    H138774   2.317   6.279  10.900 -0.2926  1.7494 -3.2689
 5761TIP3    H238775   2.193   6.365  10.885  0.4154  3.3497 -0.5494
 5762TIP3   OH238776   1.084   1.515   3.008 -0.2543  0.1239  0.5998
 5762TIP3    H138777   1.061   1.491   2.919 -0.4555 -0.2715  0.7594
 5762TIP3    H238778   1.005   1.497   3.060 -0.7841  2.0983  0.5603
 5763TIP3   OH238779   2.529   1.450   5.463 -0.5259  0.2568  0.4804
 5763TIP3    H138780   2.598   1.386   5.445 -1.0855  0.2934 -2.2643
 5763TIP3    H238781   2.576   1.527   5.496  0.7556  0.0773 -0.7779
 5764TIP3   OH238782   1.900   1.302   3.495  0.2668  0.5000 -0.4171
 5764TIP3    H138783   1.807   1.281   3.505  0.4164  0.0090 -0.0642
 5764TIP3    H238784   1.907   1.336   3.405 -0.0210 -0.7348 -0.9215
 5765TIP3   OH238785   3.748   0.036   1.092  0.6617 -0.5493 -0.3065
 5765TIP3    H138786   3.739  -0.017   1.171  3.4725 -1.4132 -0.4732
 5765TIP3    H238787   3.705  -0.015   1.023  2.4464 -2.2171 -0.2543
 5766TIP3   OH238788   5.520   6.491  11.917  1.2150 -0.3564 -0.1110
 5766TIP3    H138789   5.550   6.420  11.973  0.3053 -1.9992 -1.6044
 5766TIP3    H238790   5.451   6.452  11.864 -0.1285  1.9612 -0.2210
 5767TIP3   OH238791   1.314   4.818  11.298 -0.2736 -0.5824  0.8081
 5767TIP3    H138792   1.321   4.796  11.391  0.6004 -0.4775  0.7813
 5767TIP3    H238793   1.225   4.853  11.288 -0.6092 -1.2274  1.4589
 5768TIP3   OH238794   4.341   1.623  13.363 -0.0076 -0.6581 -0.1058
 5768TIP3    H138795   4.382   1.687  13.304 -0.8732  0.4452  0.4505
 5768TIP3    H238796   4.387   1.634  13.446 -1.6815  0.9436  0.6677
 5769TIP3   OH238797   3.131   3.298  12.223  0.5202  0.8386 -0.5362
 5769TIP3    H138798   3.191   3.357  12.177  1.5584  0.1236 -0.1279
 5769TIP3    H238799   3.124   3.336  12.311  1.4280  0.2108 -0.1796
 5770TIP3   OH238800   1.946   6.481  11.472  0.1398 -0.8117 -0.1454
 5770TIP3    H138801   1.922   6.571  11.448  2.1364  0.2548  1.5205
 5770TIP3    H238802   2.030   6.490  11.518 -0.3880 -3.3595  1.5043
 5771TIP3   OH238803   1.364   5.479  11.935  0.0900 -0.5895 -0.1383
 5771TIP3    H138804   1.326   5.402  11.892  0.5620 -1.4360  0.9046
 5771TIP3    H238805   1.290   5.536  11.952 -0.2248 -0.6476 -1.2448
 5772TIP3   OH238806   2.680   2.848  15.293 -0.0262 -0.3071  0.2461
 5772TIP3    H138807   2.632   2.817  15.217  1.6224 -2.2694 -0.0948
 5772TIP3    H238808   2.631   2.925  15.323 -2.0213 -0.8522 -1.3753
 5773TIP3   OH238809   1.595   2.712   4.081 -0.5373  0.6956 -0.3631
 5773TIP3    H138810   1.551   2.627   4.081 -0.7909  0.7611  1.9274
 5773TIP3    H238811   1.633   2.720   4.169 -1.1734  3.2427 -0.2271
 5774TIP3   OH238812   5.673   6.400  11.710  0.1461 -0.0628  0.4696
 5774TIP3    H138813   5.650   6.449  11.789 -2.5298  1.4243 -1.0743
 5774TIP3    H238814   5.748   6.446  11.673  0.6685 -0.0624  1.5156
 5775TIP3   OH238815   5.159   6.177  15.133  0.3189 -0.2047  0.0282
 5775TIP3    H138816   5.099   6.208  15.200  0.0396  3.0413 -1.5277
 5775TIP3    H238817   5.197   6.257  15.095  1.6338 -1.9150 -2.6018
 5776TIP3   OH238818   6.370   2.546  15.539 -0.5711 -0.5448 -0.1554
 5776TIP3    H138819   6.391   2.571  15.629 -2.2987  1.2369 -0.1942
 5776TIP3    H238820   6.276   2.558  15.531 -0.8630 -2.9719 -1.5593
 5777TIP3   OH238821   6.397   2.287   1.035 -0.0315 -0.5042  0.3695
 5777TIP3    H138822   6.465   2.296   1.101 -0.3329  1.0784  0.5079
 5777TIP3    H238823   6.444   2.289   0.951  0.0520  2.3798  0.3798
 5778TIP3   OH238824   5.393   2.882   1.190  0.1517 -0.1271 -0.2640
 5778TIP3    H138825   5.440   2.914   1.113 -2.3776 -1.7162 -2.6351
 5778TIP3    H238826   5.366   2.962   1.236  0.8396  0.8917 -1.5587
 5779TIP3   OH238827   5.087   2.038   5.330  0.3020  0.3568 -0.7987
 5779TIP3    H138828   5.116   1.953   5.297 -0.5133 -0.6812  0.9651
 5779TIP3    H238829   5.000   2.021   5.367  0.6735  1.6248  0.8074
 5780TIP3   OH238830   0.846   3.578  11.516  0.2581  0.7327 -0.1063
 5780TIP3    H138831   0.853   3.500  11.571 -3.3661  1.6386  1.9512
 5780TIP3    H238832   0.912   3.638  11.551  0.9140 -0.2589  0.4061
 5781TIP3   OH238833   2.641   0.335   3.889  0.3166 -0.1357  0.8798
 5781TIP3    H138834   2.722   0.286   3.874  1.6472  1.6115  1.9739
 5781TIP3    H238835   2.624   0.323   3.983 -0.8859 -0.7239  0.6046
 5782TIP3   OH238836   4.573   4.288  13.452 -0.4109  0.1057 -0.0216
 5782TIP3    H138837   4.491   4.338  13.454 -1.4301 -1.3913 -1.4372
 5782TIP3    H238838   4.617   4.310  13.534 -2.5515  0.4453  1.1041
 5783TIP3   OH238839   0.800   4.295   6.632 -0.1793 -0.1162 -0.0234
 5783TIP3    H138840   0.726   4.354   6.626  1.5291  2.0276 -1.9762
 5783TIP3    H238841   0.795   4.241   6.553  0.3352  0.0647 -0.1847
 5784TIP3   OH238842   2.131   3.277   3.267  0.1024  0.2244 -0.1443
 5784TIP3    H138843   2.219   3.279   3.230  0.3128  1.0196  0.3736
 5784TIP3    H238844   2.130   3.197   3.320  0.5728  0.3078 -0.0012
 5785TIP3   OH238845   4.146   4.342  10.878  0.1211  0.3458  0.1142
 5785TIP3    H138846   4.220   4.384  10.835  0.9448  0.8666  1.9244
 5785TIP3    H238847   4.175   4.252  10.893 -0.6945 -0.2465 -1.5480
 5786TIP3   OH238848   2.482   6.713  11.308 -0.2938 -0.1957  0.0932
 5786TIP3    H138849   2.492   6.642  11.371 -1.6415 -1.7511 -1.3215
 5786TIP3    H238850   2.467   6.791  11.361  0.5966 -1.0659  1.6874
 5787TIP3   OH238851   2.129   3.169   0.771  0.1089  0.1695 -1.1036
 5787TIP3    H138852   2.053   3.145   0.718 -0.6588 -1.2969  0.5770
 5787TIP3    H238853   2.171   3.086   0.793  1.4138  0.8712 -0.8519
 5788TIP3   OH238854   1.644   0.271   1.641  0.3441  0.3300 -0.7809
 5788TIP3    H138855   1.574   0.318   1.685 -0.5382  0.4458 -2.2533
 5788TIP3    H238856   1.723   0.293   1.691 -0.6551  0.0857  0.9809
 5789TIP3   OH238857   2.853   5.984  16.405 -0.4813 -0.1197 -0.4443
 5789TIP3    H138858   2.936   5.957  16.364 -0.6741  0.7985 -1.4704
 5789TIP3    H238859   2.845   6.077  16.385 -2.0707 -0.3264 -0.9079
 5790TIP3   OH238860   3.059   4.266   0.148 -0.1348 -0.3360 -0.6083
 5790TIP3    H138861   3.122   4.262   0.220 -0.8682 -0.0003  0.0685
 5790TIP3    H238862   3.045   4.359   0.133 -1.0806 -0.3933 -0.1853
 5791TIP3   OH238863   0.190   3.661   0.303  0.0104  0.1949 -0.6651
 5791TIP3    H138864   0.124   3.675   0.234 -1.8062  0.0580  0.9705
 5791TIP3    H238865   0.224   3.574   0.284  0.1966  0.5103 -1.9010
 5792TIP3   OH238866   4.537   2.661   3.662  0.4862 -0.0116  0.3833
 5792TIP3    H138867   4.498   2.576   3.639  2.0421 -0.5851 -0.2748
 5792TIP3    H238868   4.468   2.707   3.710 -0.9249 -1.0406 -0.5741
 5793TIP3   OH238869   0.592   0.551  11.251 -0.2970 -1.2992  0.1678
 5793TIP3    H138870   0.642   0.506  11.319  0.9967 -1.4119 -0.8180
 5793TIP3    H238871   0.604   0.644  11.270 -2.4925 -1.2676  1.8618
 5794TIP3   OH238872   0.339   3.793   4.083  0.6480  0.1271  0.5708
 5794TIP3    H138873   0.292   3.876   4.094  0.7515  0.1745  0.6636
 5794TIP3    H238874   0.430   3.814   4.105  0.7474  0.0781  0.2124
 5795TIP3   OH238875   1.605   3.204  16.530  0.3819 -0.0590 -0.1062
 5795TIP3    H138876   1.613   3.215  16.435 -0.4652 -1.5137 -0.3758
 5795TIP3    H238877   1.690   3.172  16.558  0.1641 -1.1154 -0.6260
 5796TIP3   OH238878   2.599   5.618   3.843  0.0740  0.3054  0.3213
 5796TIP3    H138879   2.521   5.666   3.816 -0.2402 -0.6885 -0.5740
 5796TIP3    H238880   2.579   5.586   3.930  0.0789  1.3202  0.7099
 5797TIP3   OH238881   1.711   2.823  13.286 -0.3074  0.2311 -0.2055
 5797TIP3    H138882   1.802   2.809  13.311 -0.4211  1.0183  0.7331
 5797TIP3    H238883   1.660   2.788  13.359 -0.7867 -0.5033 -0.8674
 5798TIP3   OH238884   4.515   5.209  16.597 -0.3815  0.9434 -0.2598
 5798TIP3    H138885   4.506   5.136  16.658  1.0338 -1.0973 -2.3066
 5798TIP3    H238886   4.426   5.228  16.568 -0.9520  1.2717  1.6030
 5799TIP3   OH238887   6.662   4.493  13.323  0.0144 -0.2061 -0.3103
 5799TIP3    H138888   6.584   4.547  13.311  0.2384  0.6763  1.8692
 5799TIP3    H238889   6.629   4.412  13.363  0.2358  0.3801  1.1103
 5800TIP3   OH238890   5.152   5.427  16.843  0.0043  0.3082  0.8447
 5800TIP3    H138891   5.214   5.375  16.792  0.7887 -0.2255  2.2656
 5800TIP3    H238892   5.198   5.443  16.926 -1.5767  0.2946  1.7599
 5801TIP3   OH238893   0.663   6.762   2.827  0.1207 -0.0783  1.1254
 5801TIP3    H138894   0.584   6.795   2.869  0.0416  0.1574  0.7968
 5801TIP3    H238895   0.682   6.680   2.873 -0.8433 -0.6171  0.5954
 5802TIP3   OH238896   6.829   4.629   0.813 -0.4345 -0.7366  0.3396
 5802TIP3    H138897   6.852   4.537   0.798 -2.3995 -1.3800  0.8933
 5802TIP3    H238898   6.754   4.625   0.873 -0.6230  1.2296  0.2975
 5803TIP3   OH238899   1.367   4.047   3.017 -0.4663 -0.2935  0.6946
 5803TIP3    H138900   1.435   3.980   3.025  1.4881  1.5908  0.6485
 5803TIP3    H238901   1.290   4.007   3.058  1.0788 -1.9396  2.2137
 5804TIP3   OH238902   6.614   4.848  13.659 -0.4841 -0.0162  0.1761
 5804TIP3    H138903   6.627   4.884  13.571 -0.8470 -1.0305 -0.3158
 5804TIP3    H238904   6.535   4.795  13.652  1.3461 -3.0024  0.1307
 5805TIP3   OH238905   6.402   3.740  13.025  0.1737 -0.4998 -0.1038
 5805TIP3    H138906   6.367   3.651  13.015 -0.1750 -0.3163 -0.5454
 5805TIP3    H238907   6.432   3.744  13.116 -0.5179 -0.8110  0.1409
 5806TIP3   OH238908   4.676   4.819   6.582 -0.0250 -0.2972  0.0173
 5806TIP3    H138909   4.635   4.841   6.499  0.9173 -2.6149 -1.1601
 5806TIP3    H238910   4.757   4.870   6.583 -0.6212  0.6632  0.1078
 5807TIP3   OH238911   2.005   3.764   5.139 -0.3610  0.3248  0.3038
 5807TIP3    H138912   2.035   3.677   5.112 -0.8214  0.0792  0.5752
 5807TIP3    H238913   1.910   3.761   5.128 -0.2574  1.2859 -1.1005
 5808TIP3   OH238914   4.430   1.747   2.215  0.4084 -0.4311 -0.4323
 5808TIP3    H138915   4.406   1.663   2.174  1.6009 -0.8890 -0.2479
 5808TIP3    H238916   4.436   1.808   2.141 -0.6221 -0.4575 -0.5519
 5809TIP3   OH238917   6.244   3.946   2.409 -0.2513 -0.0797 -0.2380
 5809TIP3    H138918   6.310   3.903   2.353  0.5836  0.0415  0.6241
 5809TIP3    H238919   6.160   3.918   2.373  0.2764 -1.2686 -0.5857
 5810TIP3   OH238920   3.655   4.446   1.740 -0.0754  0.2214 -0.5852
 5810TIP3    H138921   3.629   4.364   1.698 -0.0057 -1.2383  1.9948
 5810TIP3    H238922   3.751   4.447   1.734 -0.0802  0.1389 -0.6740
 5811TIP3   OH238923   3.853   4.784  16.358 -0.4231  0.4776 -0.1526
 5811TIP3    H138924   3.946   4.801  16.340 -0.6735  3.2509  0.6803
 5811TIP3    H238925   3.853   4.747  16.446 -0.0953  0.1197 -0.2997
 5812TIP3   OH238926   4.993   3.382  16.031  0.3179 -0.5110 -0.3086
 5812TIP3    H138927   4.988   3.338  15.946  1.6288  0.1698 -0.7577
 5812TIP3    H238928   4.960   3.317  16.093 -1.5720 -0.6858 -1.4168
 5813TIP3   OH238929   6.657   2.978  12.026 -0.5118 -0.1055  0.2575
 5813TIP3    H138930   6.653   2.897  12.077  1.3126 -1.4897 -1.6008
 5813TIP3    H238931   6.580   3.028  12.054 -1.7199 -2.4788  1.4881
 5814TIP3   OH238932   3.849   4.132   4.480 -0.2762  0.7247 -0.0248
 5814TIP3    H138933   3.936   4.120   4.519  1.5928  2.4129 -3.1970
 5814TIP3    H238934   3.818   4.214   4.518  0.0755  0.7512  0.2187
 5815TIP3   OH238935   2.017   4.522  15.107 -0.0761  0.1473 -0.0188
 5815TIP3    H138936   2.063   4.501  15.188  1.7428  0.1239 -0.9944
 5815TIP3    H238937   2.038   4.614  15.091 -1.3800  0.4892  0.1033
 5816TIP3   OH238938   1.456   2.618   2.685  0.0004  0.0610  0.2831
 5816TIP3    H138939   1.452   2.541   2.743 -0.3895 -0.4559 -0.4120
 5816TIP3    H238940   1.408   2.591   2.607 -0.6386  1.2246  0.2610
 5817TIP3   OH238941   0.372   2.797  12.414 -0.7920 -0.0536  0.0108
 5817TIP3    H138942   0.404   2.714  12.379  0.6840  0.2497  0.5944
 5817TIP3    H238943   0.449   2.854  12.417 -1.2474  0.5338  1.9509
 5818TIP3   OH238944   2.505   1.533   0.810 -1.0011 -0.0210  0.1917
 5818TIP3    H138945   2.433   1.595   0.800 -1.9226 -0.8601  1.2399
 5818TIP3    H238946   2.473   1.472   0.877  1.2485  0.3871  1.7318
 5819TIP3   OH238947   2.352   6.104  12.572 -0.5180  0.0499  0.4157
 5819TIP3    H138948   2.300   6.098  12.491  0.8281 -1.0779 -0.4118
 5819TIP3    H238949   2.343   6.019  12.613 -0.8021  0.4625  1.2139
 5820TIP3   OH238950   6.025   5.071  14.578 -0.2370  0.5845  0.0600
 5820TIP3    H138951   5.990   4.988  14.546  0.9068  0.4951 -1.0139
 5820TIP3    H238952   5.966   5.137  14.543 -0.6373  0.2935  0.1730
 5821TIP3   OH238953   0.913   2.862   5.853  0.7469 -0.6222  0.3725
 5821TIP3    H138954   0.872   2.881   5.769  2.3307 -0.3946 -0.3773
 5821TIP3    H238955   0.940   2.948   5.887 -0.4574 -0.6353  1.4489
 5822TIP3   OH238956   4.437   0.931   5.684  0.2007  0.2973 -0.1179
 5822TIP3    H138957   4.479   0.862   5.633  2.0705  0.7574  0.6929
 5822TIP3    H238958   4.422   0.892   5.770 -1.4843  0.0079 -0.5236
 5823TIP3   OH238959   2.809   1.268  12.430  0.0887 -0.3456  0.4170
 5823TIP3    H138960   2.727   1.282  12.479 -0.5706  2.4632 -1.2717
 5823TIP3    H238961   2.868   1.335  12.464  0.8600 -0.7449 -0.1191
 5824TIP3   OH238962   1.214   6.694  10.653  0.0051  0.3375 -0.1684
 5824TIP3    H138963   1.236   6.631  10.722 -0.0445  0.3340 -0.1555
 5824TIP3    H238964   1.121   6.681  10.637  0.1039  0.0521 -0.5267
 5825TIP3   OH238965   3.920   4.687  14.243  0.0075 -0.0621 -0.6781
 5825TIP3    H138966   4.014   4.693  14.222 -0.1371 -0.2251 -1.3767
 5825TIP3    H238967   3.915   4.714  14.335  0.8776 -1.0078 -0.3231
 5826TIP3   OH238968   4.973   2.180   6.283  0.2540 -0.1365  0.0343
 5826TIP3    H138969   5.005   2.096   6.316 -3.3021 -1.9408 -0.6283
 5826TIP3    H238970   4.944   2.227   6.361 -2.6988 -1.9175  0.1439
 5827TIP3   OH238971   4.403   3.301   0.493 -0.1738 -0.1646 -0.6876
 5827TIP3    H138972   4.449   3.269   0.571 -0.3860 -0.3802 -0.6491
 5827TIP3    H238973   4.453   3.267   0.419 -2.1813 -3.4127 -0.7311
 5828TIP3   OH238974   4.215   6.182  12.761 -0.0975  0.0500  0.3719
 5828TIP3    H138975   4.267   6.178  12.681  0.4506  1.1990  0.6464
 5828TIP3    H238976   4.223   6.095  12.801  0.8850 -0.0538 -0.0382
 5829TIP3   OH238977   0.575   2.504  12.892 -0.3775  0.4735  0.1817
 5829TIP3    H138978   0.578   2.439  12.822  0.0400  0.2143  0.4323
 5829TIP3    H238979   0.514   2.570  12.862 -1.1854 -0.2818  0.1248
 5830TIP3   OH238980   0.127   2.059  11.307 -0.1270 -0.0841  0.0987
 5830TIP3    H138981   0.133   2.035  11.215 -1.1796  0.7798 -0.2041
 5830TIP3    H238982   0.183   2.136  11.315  1.4754 -1.2287  0.6124
 5831TIP3   OH238983   6.609   3.596  14.306  0.1306  0.1106 -0.2226
 5831TIP3    H138984   6.602   3.667  14.242  0.5471  1.4129  1.1221
 5831TIP3    H238985   6.522   3.590  14.344  0.9555  2.8200  2.5583
 5832TIP3   OH238986   0.755   1.081   3.216 -0.3833  0.2904  0.2436
 5832TIP3    H138987   0.671   1.114   3.249  0.3243  1.7216  0.7009
 5832TIP3    H238988   0.745   0.986   3.216 -1.0712  0.2856  2.9019
 5833TIP3   OH238989   0.975   0.747  12.484 -0.1652 -0.2234 -0.4760
 5833TIP3    H138990   1.064   0.747  12.450  0.3823 -2.2672  0.8092
 5833TIP3    H238991   0.926   0.688  12.427 -0.7293  0.8233 -1.1259
 5834TIP3   OH238992   4.113   5.282   5.545 -0.5928  0.2878 -0.3820
 5834TIP3    H138993   4.119   5.307   5.637 -1.3145  0.4951 -0.3831
 5834TIP3    H238994   4.091   5.189   5.546  1.2353 -0.2006 -0.3737
 5835TIP3   OH238995   3.047   0.574   2.171  0.0105 -0.0530 -0.4776
 5835TIP3    H138996   3.001   0.491   2.189  0.2460  0.1601  1.3029
 5835TIP3    H238997   3.026   0.629   2.246  1.5338  0.7665 -0.6199
 5836TIP3   OH238998   5.775   5.369   0.920 -0.1780  0.1657 -0.4006
 5836TIP3    H138999   5.696   5.315   0.913 -1.1136  1.4879 -0.3087
 5836TIP3    H239000   5.783   5.388   1.014  2.0542 -2.5018  0.0764
 5837TIP3   OH239001   1.115   2.980   3.737 -0.2796  0.1796 -0.2358
 5837TIP3    H139002   1.198   3.026   3.725 -1.8021  2.9230 -1.2576
 5837TIP3    H239003   1.075   3.023   3.813 -2.0750  1.1487 -1.6550
 5838TIP3   OH239004   0.305   6.148  14.752  0.3719 -0.3517 -0.0754
 5838TIP3    H139005   0.359   6.135  14.674 -0.4364  2.8757 -1.3148
 5838TIP3    H239006   0.232   6.087  14.742 -0.7104  1.2344 -2.9280
 5839TIP3   OH239007   3.615   1.896   6.472 -0.0438 -0.5381 -0.1035
 5839TIP3    H139008   3.647   1.868   6.558 -0.2484  2.0196  0.8921
 5839TIP3    H239009   3.561   1.973   6.490 -1.1135 -0.6538 -2.4343
 5840TIP3   OH239010   2.615   2.074  12.254 -0.0323 -0.3298  0.2482
 5840TIP3    H139011   2.665   2.134  12.310 -0.5359 -0.1813  0.5466
 5840TIP3    H239012   2.634   1.987  12.290 -2.2316 -0.0872  2.2246
 5841TIP3   OH239013   2.655   5.088  16.924 -0.7092  0.5945 -0.2905
 5841TIP3    H139014   2.735   5.139  16.939 -0.0397 -0.2614 -0.8050
 5841TIP3    H239015   2.608   5.137  16.857 -0.6164  1.1037  0.0080
 5842TIP3   OH239016   1.404   1.659  12.448 -0.0215  0.2397 -0.2811
 5842TIP3    H139017   1.495   1.690  12.444 -0.3654  1.2025 -0.8144
 5842TIP3    H239018   1.411   1.571  12.486  0.9945  0.9299  1.2430
 5843TIP3   OH239019   2.380   2.302   1.077  0.1567 -0.5119 -0.5482
 5843TIP3    H139020   2.284   2.303   1.075  0.1559  0.5489 -0.2575
 5843TIP3    H239021   2.403   2.334   1.164  0.7827 -0.4510 -0.7325
 5844TIP3   OH239022   6.290   6.202   2.640  0.3557  0.8445  0.4090
 5844TIP3    H139023   6.275   6.190   2.734  1.7412  0.3855  0.5800
 5844TIP3    H239024   6.205   6.181   2.600  0.3142 -1.0493  1.3837
 5845TIP3   OH239025   0.521   4.713  15.893 -0.2637  0.2273  0.0719
 5845TIP3    H139026   0.584   4.753  15.833  0.3325  0.1331  0.6219
 5845TIP3    H239027   0.436   4.733  15.855  0.0838  0.7026 -0.4737
 5846TIP3   OH239028   2.021   6.409  16.886 -0.5825 -0.2320 -0.0124
 5846TIP3    H139029   1.944   6.353  16.886 -0.7710 -0.0250  1.6673
 5846TIP3    H239030   2.090   6.355  16.924 -0.6153  0.4500  1.0601
 5847TIP3   OH239031   6.762   0.114   5.045  0.7402  0.2470  0.0107
 5847TIP3    H139032   6.802   0.174   5.107  0.4986 -0.0812  0.4940
 5847TIP3    H239033   6.709   0.169   4.988  0.7941  0.5265  0.2314
 5848TIP3   OH239034   4.342   6.269  15.561  0.0571 -0.2566 -0.6443
 5848TIP3    H139035   4.424   6.227  15.535  1.4341  2.0409 -0.3174
 5848TIP3    H239036   4.311   6.217  15.636  1.5785 -0.7817 -0.3426
 5849TIP3   OH239037   4.267   6.235  10.536 -0.0431  0.4002 -0.5869
 5849TIP3    H139038   4.231   6.174  10.472  0.8323  0.5006 -1.1947
 5849TIP3    H239039   4.351   6.196  10.562 -1.7050 -1.3310  2.9580
 5850TIP3   OH239040   1.587   1.874   2.803 -0.1393  0.1912  0.3998
 5850TIP3    H139041   1.603   1.892   2.711  0.5745 -0.3773  0.4060
 5850TIP3    H239042   1.495   1.897   2.816 -0.4680 -0.4815 -0.6430
 5851TIP3   OH239043   2.801   3.253  11.533  0.3152  0.5260 -0.2414
 5851TIP3    H139044   2.854   3.328  11.504 -0.9264  1.5709  0.1240
 5851TIP3    H239045   2.711   3.276  11.510  0.1383 -2.2113 -2.9811
 5852TIP3   OH239046   1.614   2.149   2.913  0.1840 -0.5461  0.1415
 5852TIP3    H139047   1.678   2.109   2.972  1.1454 -1.1632 -1.2565
 5852TIP3    H239048   1.563   2.075   2.880  0.3092 -0.3338 -0.5463
 5853TIP3   OH239049   2.431   0.622   1.950  0.0096  0.1086  0.3208
 5853TIP3    H139050   2.431   0.543   2.004  1.2299 -1.1084 -1.3367
 5853TIP3    H239051   2.373   0.601   1.877  0.6271  0.5823 -0.3190
 5854TIP3   OH239052   0.014   6.525   1.912  0.4869  0.1191 -0.1256
 5854TIP3    H139053   0.104   6.551   1.930  0.1775  0.2078  1.4519
 5854TIP3    H239054  -0.040   6.591   1.957 -0.3228 -1.4872  1.4173
 5855TIP3   OH239055   0.134   4.575   5.339 -0.1169 -0.2092 -0.3261
 5855TIP3    H139056   0.138   4.580   5.434 -0.4935 -0.6559 -0.2839
 5855TIP3    H239057   0.156   4.664   5.310  2.2679 -0.6106  0.0826
 5856TIP3   OH239058   0.248   4.114  14.514  0.6440  0.0436 -0.5313
 5856TIP3    H139059   0.202   4.180  14.463  1.4703  0.3424 -0.9031
 5856TIP3    H239060   0.228   4.136  14.605  0.0870  0.1807 -0.6792
 5857TIP3   OH239061   3.318   2.675   5.049 -0.3400 -0.0474 -0.3945
 5857TIP3    H139062   3.304   2.702   5.139 -1.5462 -2.2944  0.1830
 5857TIP3    H239063   3.281   2.746   4.996 -0.1442  1.0293  0.8778
 5858TIP3   OH239064   5.903   3.836  10.988  0.4708 -0.2114 -0.7100
 5858TIP3    H139065   5.864   3.831  10.901  0.7803 -1.5915 -0.7953
 5858TIP3    H239066   5.894   3.747  11.023 -1.1679  0.6809  1.3557
 5859TIP3   OH239067   2.832   4.555  16.288  0.5811 -0.3916 -0.2933
 5859TIP3    H139068   2.867   4.485  16.342  0.5398 -0.1177  0.0898
 5859TIP3    H239069   2.794   4.617  16.350 -1.6552 -1.2283 -0.7473
 5860TIP3   OH239070   2.228   2.686  14.815 -0.1158 -0.2415 -0.7657
 5860TIP3    H139071   2.177   2.752  14.767  1.2681  0.8331 -0.8373
 5860TIP3    H239072   2.261   2.733  14.891 -0.1868 -1.2442 -0.0977
 5861TIP3   OH239073   2.428   3.810  12.076 -0.3325  0.1933  0.2793
 5861TIP3    H139074   2.519   3.831  12.096 -0.2899  0.4935 -0.2272
 5861TIP3    H239075   2.378   3.884  12.110 -0.1957  1.0771 -1.3676
 5862TIP3   OH239076   4.104   6.578  17.088 -0.3301  0.0354  0.5551
 5862TIP3    H139077   4.193   6.557  17.059 -0.3531 -0.6801  0.9645
 5862TIP3    H239078   4.116   6.646  17.155  0.1993 -2.0541  2.7279
 5863TIP3   OH239079   6.698   5.357  15.155  0.4021  0.2707 -0.2620
 5863TIP3    H139080   6.739   5.322  15.075 -1.3731  1.9197 -1.9859
 5863TIP3    H239081   6.701   5.452  15.145  1.2054  0.5926  2.2614
 5864TIP3   OH239082   0.535   2.837  15.351  0.5076  0.3030 -0.5933
 5864TIP3    H139083   0.488   2.888  15.418  0.4599  0.9157 -1.0812
 5864TIP3    H239084   0.479   2.840  15.274 -1.9407 -4.5765  0.6204
 5865TIP3   OH239085   2.526   4.512   1.000  0.2006  0.6897  0.3638
 5865TIP3    H139086   2.483   4.513   1.085 -0.7524 -0.9148 -0.0681
 5865TIP3    H239087   2.602   4.454   1.012 -1.6148 -2.0944 -0.5667
 5866TIP3   OH239088   3.287   0.477  13.031 -0.0021 -0.4738  0.1062
 5866TIP3    H139089   3.234   0.483  12.951  0.5626  2.6688 -0.1591
 5866TIP3    H239090   3.225   0.494  13.102  0.2023  1.0106 -0.0401
 5867TIP3   OH239091   5.243   1.120  12.255  0.3370 -0.3160  0.0405
 5867TIP3    H139092   5.285   1.043  12.294 -1.2717 -1.0581  0.4025
 5867TIP3    H239093   5.309   1.189  12.261  2.3646 -1.9944 -1.6310
 5868TIP3   OH239094   1.778   3.111  16.830 -0.0698 -1.0409 -0.2773
 5868TIP3    H139095   1.782   3.205  16.811  0.0357 -0.6329  1.6044
 5868TIP3    H239096   1.684   3.090  16.827 -0.3020 -0.3783  1.3963
 5869TIP3   OH239097   5.039   3.662  10.800  0.3464  0.1614 -0.9143
 5869TIP3    H139098   5.092   3.742  10.802 -0.4820  0.7359 -1.2854
 5869TIP3    H239099   4.975   3.674  10.870  2.2201 -1.6460  1.2748
 5870TIP3   OH239100   2.940   1.411   5.216 -0.1864 -0.3396  0.0279
 5870TIP3    H139101   2.968   1.350   5.148  3.2594  0.4147  0.5801
 5870TIP3    H239102   2.929   1.495   5.172  1.1451 -0.0525  0.2158
 5871TIP3   OH239103   3.792   1.640  13.254  0.0560  0.5480 -0.4300
 5871TIP3    H139104   3.741   1.702  13.307  0.3688  1.4075 -1.1078
 5871TIP3    H239105   3.727   1.600  13.196 -0.1701  0.1191  0.1036
 5872TIP3   OH239106   3.687   5.759  13.422 -0.0530 -0.1283 -0.1325
 5872TIP3    H139107   3.602   5.794  13.448  0.5684  1.0145  0.4380
 5872TIP3    H239108   3.683   5.755  13.327 -0.7836 -0.1834 -0.1026
 5873TIP3   OH239109   5.810   1.188   4.115  0.3430  0.6025 -0.0357
 5873TIP3    H139110   5.749   1.249   4.073  0.3892 -0.2375 -1.4026
 5873TIP3    H239111   5.870   1.163   4.044 -0.0191 -1.4609  0.3338
 5874TIP3   OH239112   3.494   1.230   4.340 -0.0279 -0.4381  0.3638
 5874TIP3    H139113   3.513   1.206   4.430 -3.2075 -1.9536  0.7682
 5874TIP3    H239114   3.406   1.267   4.342 -0.2123 -0.5328 -2.0965
 5875TIP3   OH239115   3.996   0.944  11.520  0.4053 -0.0797  0.2979
 5875TIP3    H139116   3.942   0.983  11.589 -1.2178 -0.0165 -0.9355
 5875TIP3    H239117   3.979   0.998  11.443  1.3489 -0.7770 -0.4256
 5876TIP3   OH239118   6.687   6.041  14.868 -0.0386  0.7139  0.6521
 5876TIP3    H139119   6.756   5.975  14.865 -0.5849  0.1560 -1.4037
 5876TIP3    H239120   6.726   6.119  14.828 -0.2222  0.7679  0.5722
 5877TIP3   OH239121   0.219   1.265  16.727  0.1930  0.2665  0.0717
 5877TIP3    H139122   0.126   1.284  16.721  0.3389  0.6368 -2.4786
 5877TIP3    H239123   0.262   1.349  16.707  1.1470  0.4206  2.4417
 5878TIP3   OH239124   6.547   6.483  11.622  1.3530  0.0296 -0.2584
 5878TIP3    H139125   6.513   6.552  11.679  1.0662  0.6715 -1.1754
 5878TIP3    H239126   6.640   6.477  11.645  1.2296  0.2221  0.3242
 5879TIP3   OH239127   2.065   0.124   0.066  0.2580  0.1274  0.1412
 5879TIP3    H139128   2.115   0.201   0.091  0.1055  0.1858  0.2686
 5879TIP3    H239129   2.131   0.058   0.047  0.3868 -0.0636  1.1565
 5880TIP3   OH239130   3.849   5.916  14.780  0.1746 -0.2392  0.6098
 5880TIP3    H139131   3.926   5.890  14.729 -0.2776 -1.0170  0.3039
 5880TIP3    H239132   3.815   5.833  14.814 -1.0799 -0.0264 -0.0693
 5881TIP3   OH239133   3.910   0.751   0.877  0.7279 -0.2500  0.2684
 5881TIP3    H139134   3.839   0.726   0.936 -0.1815 -0.4117 -0.8719
 5881TIP3    H239135   3.970   0.677   0.879  1.3664  0.2657  1.9423
 5882TIP3   OH239136   5.376   4.591   0.787 -0.1094 -0.6597  0.3427
 5882TIP3    H139137   5.426   4.563   0.710  0.9404  1.2082  0.2789
 5882TIP3    H239138   5.424   4.556   0.861 -0.1440 -0.9912  0.2120
 5883TIP3   OH239139   5.738   4.188  12.715  0.4318  0.1277 -0.2706
 5883TIP3    H139140   5.661   4.238  12.740 -0.3497 -1.0149 -0.3322
 5883TIP3    H239141   5.809   4.253  12.713 -0.8445  1.6012 -2.1029
 5884TIP3   OH239142   5.366   5.510   1.816 -0.4149  0.2363  0.4473
 5884TIP3    H139143   5.377   5.590   1.764 -0.5520  1.0281  1.5946
 5884TIP3    H239144   5.276   5.482   1.799 -0.7676  1.0241  0.9725
 5885TIP3   OH239145   5.268   0.283   0.832  0.5776  0.4263  0.3892
 5885TIP3    H139146   5.323   0.293   0.754 -0.4086 -1.0425 -0.5465
 5885TIP3    H239147   5.316   0.221   0.887  0.8347  0.7438  0.5234
 5886TIP3   OH239148   4.170   2.554  15.377 -0.1405  0.1069 -0.3818
 5886TIP3    H139149   4.209   2.543  15.290 -2.0844 -0.0501 -1.2673
 5886TIP3    H239150   4.134   2.642  15.376 -1.6345 -0.4850 -0.3702
 5887TIP3   OH239151   1.634   2.479  12.541  0.0783  0.3009 -0.2778
 5887TIP3    H139152   1.625   2.567  12.503 -0.2095 -0.1552 -1.2983
 5887TIP3    H239153   1.648   2.422  12.465  0.7919 -0.4719  0.4134
 5888TIP3   OH239154   1.764   4.282   0.101  0.2945 -0.2967 -0.0955
 5888TIP3    H139155   1.853   4.290   0.134  0.7785 -0.8196 -1.2199
 5888TIP3    H239156   1.774   4.280   0.006 -0.8503 -1.1413 -0.2201
 5889TIP3   OH239157   0.034   1.188  13.534  0.5568 -0.3283  0.0583
 5889TIP3    H139158   0.129   1.176  13.523  0.7032  0.6487  0.1960
 5889TIP3    H239159   0.003   1.103  13.567  1.5607 -0.3240  1.0766
 5890TIP3   OH239160   6.453   3.158  13.502  0.0535  0.2455  0.2297
 5890TIP3    H139161   6.460   3.117  13.588  1.3632  0.5349  0.2921
 5890TIP3    H239162   6.485   3.092  13.441  1.3568  0.8260  0.2416
 5891TIP3   OH239163   0.043   3.901   3.965 -0.0510  0.0612  0.2300
 5891TIP3    H139164   0.125   3.858   3.939  0.0036  0.2761  0.0482
 5891TIP3    H239165  -0.025   3.838   3.940  0.0897 -0.4304  1.0174
 5892TIP3   OH239166   5.044   3.453   5.908  0.0770  0.5528  0.3325
 5892TIP3    H139167   5.085   3.404   5.836  1.0977  0.7438  0.7656
 5892TIP3    H239168   4.970   3.399   5.935 -0.6923  0.7505 -1.2403
 5893TIP3   OH239169   4.007   1.510   3.089 -0.2206 -0.0420  0.0619
 5893TIP3    H139170   4.003   1.430   3.141  2.3908 -0.1741  0.2294
 5893TIP3    H239171   3.939   1.500   3.024  0.3631 -2.6897 -0.2646
 5894TIP3   OH239172   4.090   3.189   2.749 -0.3242  0.1920  0.3465
 5894TIP3    H139173   4.117   3.196   2.658 -0.5300  0.6491  0.3176
 5894TIP3    H239174   4.151   3.245   2.797  0.1666 -0.5165  0.5776
 5895TIP3   OH239175   6.525   0.140  14.994 -0.0174 -0.6290  0.2808
 5895TIP3    H139176   6.567   0.105  14.916 -0.6480 -0.3835 -0.1739
 5895TIP3    H239177   6.448   0.086  15.007  1.0726 -1.9325  1.8815
 5896TIP3   OH239178   5.753   1.022   3.426  0.4370  0.0540  0.3049
 5896TIP3    H139179   5.799   0.964   3.366 -1.6748 -2.4693  0.9472
 5896TIP3    H239180   5.745   1.105   3.379  2.7138 -0.4336 -1.0429
 5897TIP3   OH239181   1.885   2.544   0.047  0.2270  0.1962  0.1060
 5897TIP3    H139182   1.804   2.538   0.097  0.2129  0.2552  0.0905
 5897TIP3    H239183   1.946   2.589   0.105  1.0367 -2.0323  1.1134
 5898TIP3   OH239184   3.670   3.375  12.633  0.1283 -0.3643  0.1885
 5898TIP3    H139185   3.740   3.309  12.630  1.4525  1.0164 -0.8875
 5898TIP3    H239186   3.626   3.359  12.717  0.6721 -2.3094  0.1683
 5899TIP3   OH239187   6.158   6.720  11.666  0.1030 -0.6488 -0.0554
 5899TIP3    H139188   6.069   6.724  11.702  1.0040  0.0742  2.2805
 5899TIP3    H239189   6.184   6.629  11.679  0.1977 -0.5351  0.5910
 5900TIP3   OH239190   0.919   1.163   5.051 -0.2457 -0.0206  0.3079
 5900TIP3    H139191   0.916   1.068   5.057  0.7295 -0.2452 -1.8656
 5900TIP3    H239192   1.004   1.188   5.086 -0.5124  0.0868  0.9049
 5901TIP3   OH239193   5.146   3.044  14.372  0.2221 -0.4560  0.2315
 5901TIP3    H139194   5.130   3.123  14.319  2.0748 -1.1100 -1.3986
 5901TIP3    H239195   5.097   2.975  14.327 -0.4547 -0.4985  1.0028
 5902TIP3   OH239196   6.071   2.025   3.004  0.1214 -0.1194 -0.1641
 5902TIP3    H139197   6.002   2.091   3.002  0.2347 -0.0042 -2.1204
 5902TIP3    H239198   6.026   1.943   2.984 -0.0096 -0.7049  2.1913
 5903TIP3   OH239199   4.498   5.263   6.016 -0.0166  0.5203  0.3922
 5903TIP3    H139200   4.553   5.315   6.073  0.1850 -0.8545  1.5150
 5903TIP3    H239201   4.466   5.192   6.072 -1.0856  0.0097 -0.8135
 5904TIP3   OH239202   4.617   2.662   0.343 -0.0861 -0.2681 -0.6127
 5904TIP3    H139203   4.702   2.697   0.317 -1.3236  3.1097 -0.6443
 5904TIP3    H239204   4.559   2.684   0.270 -1.6543  0.7052  0.8551
 5905TIP3   OH239205   3.887   5.428   4.323  0.3979  0.6117 -0.5030
 5905TIP3    H139206   3.908   5.414   4.231  0.2820 -0.0456 -0.4340
 5905TIP3    H239207   3.891   5.523   4.335  2.0164  0.6090 -0.8043
 5906TIP3   OH239208   3.517   2.580  11.539 -0.1377 -0.0206  0.5420
 5906TIP3    H139209   3.461   2.637  11.487  0.3853  1.3059  1.3839
 5906TIP3    H239210   3.607   2.607  11.517  0.1311 -0.7101  0.7516
 5907TIP3   OH239211   3.475   4.249  11.701  0.3333  0.3829  0.4073
 5907TIP3    H139212   3.482   4.155  11.717 -1.0244 -0.3518 -2.5086
 5907TIP3    H239213   3.381   4.264  11.690  0.7137  1.4083 -2.1331
 5908TIP3   OH239214   6.078   0.329  15.935  0.9597 -0.3536  0.5118
 5908TIP3    H139215   6.009   0.300  15.995  0.0617 -0.1602 -0.3955
 5908TIP3    H239216   6.076   0.425  15.941  2.0370 -0.3615  1.4286
 5909TIP3   OH239217   3.595   0.551   1.177 -0.6075 -0.0782 -0.0491
 5909TIP3    H139218   3.512   0.596   1.164  0.0309  1.1758  0.1434
 5909TIP3    H239219   3.583   0.466   1.133 -2.7779 -0.8983  1.9129
 5910TIP3   OH239220   3.888   0.357   5.851 -0.3758 -0.8933  0.5208
 5910TIP3    H139221   3.948   0.283   5.840 -3.1101 -3.0442 -1.2466
 5910TIP3    H239222   3.894   0.404   5.768 -0.8407 -0.9164  0.4735
 5911TIP3   OH239223   4.659   2.489  13.055  0.9841  0.1402 -0.0814
 5911TIP3    H139224   4.576   2.526  13.026  0.4496 -0.4941  0.5807
 5911TIP3    H239225   4.726   2.539  13.009  0.3193  2.1469  1.0243
 5912TIP3   OH239226   3.435   3.566  15.165  0.1295  0.1502 -0.0957
 5912TIP3    H139227   3.469   3.477  15.170 -1.1176 -0.5231 -2.2247
 5912TIP3    H239228   3.358   3.559  15.108  0.8401  2.8001 -1.5555
 5913TIP3   OH239229   1.577   5.434   6.475  0.2488  0.1656  0.1812
 5913TIP3    H139230   1.493   5.461   6.438 -0.2324 -0.6378  0.6527
 5913TIP3    H239231   1.578   5.472   6.563  0.2663 -0.0363  0.2686
 5914TIP3   OH239232   4.831   6.311  14.968 -0.2911  0.4366  0.1486
 5914TIP3    H139233   4.830   6.274  15.056 -0.1891  0.7878  0.2980
 5914TIP3    H239234   4.789   6.244  14.913 -1.8296  0.8794  0.7317
 5915TIP3   OH239235   3.520   6.541  15.344  0.2331 -0.2236 -0.4307
 5915TIP3    H139236   3.520   6.617  15.402 -0.3074 -0.0405 -0.6681
 5915TIP3    H239237   3.428   6.522  15.328  0.3382 -1.3950  0.2302
 5916TIP3   OH239238   4.250   5.879  10.513 -0.6739 -0.4212  0.1924
 5916TIP3    H139239   4.241   5.947  10.446  0.4148 -0.9974 -0.5754
 5916TIP3    H239240   4.345   5.873  10.528 -0.7944 -1.3968  0.6333
 5917TIP3   OH239241   6.700   4.443  16.249  0.0868  0.3775 -0.3915
 5917TIP3    H139242   6.735   4.386  16.181 -0.1550 -0.1102 -0.1162
 5917TIP3    H239243   6.610   4.412  16.262 -0.3543  1.4122 -0.8824
 5918TIP3   OH239244   2.297   0.868  13.524 -0.2644 -0.3844 -0.0868
 5918TIP3    H139245   2.285   0.956  13.489 -0.6580 -1.3571 -2.6565
 5918TIP3    H239246   2.223   0.818  13.490  0.2992 -1.8615  0.7547
 5919TIP3   OH239247   6.034   4.079  13.403 -0.6119 -0.1223  0.9408
 5919TIP3    H139248   6.088   4.011  13.443  1.4740  0.3835 -0.8303
 5919TIP3    H239249   6.080   4.161  13.422 -0.6799  0.3219 -0.6368
 5920TIP3   OH239250   2.242   4.179  16.637  0.0384 -0.0410  0.0941
 5920TIP3    H139251   2.288   4.095  16.632 -0.4152 -0.2348 -2.9615
 5920TIP3    H239252   2.307   4.239  16.674  0.6633 -1.4978  1.5093
 5921TIP3   OH239253   6.115   0.073   0.215 -0.1296 -0.2201  0.5482
 5921TIP3    H139254   6.195   0.022   0.209 -0.2036 -0.2361 -0.6143
 5921TIP3    H239255   6.116   0.130   0.138 -0.6172  0.7067  1.1944
 5922TIP3   OH239256   6.588   1.398  13.934  0.4642 -0.8000 -0.1538
 5922TIP3    H139257   6.634   1.326  13.979 -0.4319 -0.7361  0.8953
 5922TIP3    H239258   6.648   1.472  13.940  0.9710 -1.1890 -0.3547
 5923TIP3   OH239259   0.046   3.510   0.904 -0.5299  0.0352  0.4229
 5923TIP3    H139260   0.114   3.446   0.925 -0.7081 -0.6298 -0.8734
 5923TIP3    H239261  -0.012   3.464   0.843 -0.8992  1.2942 -0.2218
 5924TIP3   OH239262   2.197   3.413   5.496  0.2038 -0.3280 -0.5580
 5924TIP3    H139263   2.109   3.451   5.501 -0.2024 -0.9258 -2.3900
 5924TIP3    H239264   2.255   3.488   5.482 -0.3557 -0.1376 -2.0448
 5925TIP3   OH239265   6.468   1.272  14.317  0.2445 -0.7187  0.0292
 5925TIP3    H139266   6.487   1.293  14.408  1.5537 -1.5586 -0.0284
 5925TIP3    H239267   6.396   1.331  14.293 -0.1910 -0.5628  1.6205
 5926TIP3   OH239268   6.477   5.908   5.702 -0.5106 -0.4371 -0.0975
 5926TIP3    H139269   6.526   5.986   5.677  2.1461 -1.9453  0.0197
 5926TIP3    H239270   6.408   5.940   5.761  2.3241  1.5489  2.4028
 5927TIP3   OH239271   6.013   2.758  16.646  0.1556 -0.8681  0.0912
 5927TIP3    H139272   5.995   2.832  16.704 -1.5208 -2.1069  1.2134
 5927TIP3    H239273   6.062   2.696  16.700  0.8030 -0.9652 -0.5896
 5928TIP3   OH239274   3.866   1.318   2.029  0.2245 -0.2700  0.5231
 5928TIP3    H139275   3.860   1.413   2.039 -1.2115 -0.3738  0.7525
 5928TIP3    H239276   3.877   1.286   2.119 -1.1347 -0.4261  0.6527
 5929TIP3   OH239277   2.931   1.525  14.690 -0.0220  0.5965 -0.4134
 5929TIP3    H139278   2.875   1.459  14.730 -1.8102  2.0937 -0.3051
 5929TIP3    H239279   2.871   1.595  14.664  1.5268  1.3156 -2.3578
 5930TIP3   OH239280   2.324   3.549   3.821  0.1703  0.0087  0.5515
 5930TIP3    H139281   2.378   3.577   3.747 -1.3785  3.1123  0.4449
 5930TIP3    H239282   2.239   3.528   3.782 -0.3502  0.6458  1.3318
 5931TIP3   OH239283   5.018   0.365  15.807  0.2600 -0.1854 -0.0349
 5931TIP3    H139284   5.036   0.312  15.730 -0.6062 -1.7548  0.7921
 5931TIP3    H239285   5.087   0.431  15.808  0.0494  0.1608 -2.3681
 5932TIP3   OH239286   1.178   5.528  15.096 -0.4068  0.2360 -0.4024
 5932TIP3    H139287   1.132   5.596  15.145 -2.0793 -1.2430  0.2352
 5932TIP3    H239288   1.268   5.559  15.089 -0.5114  1.3461  2.0819
 5933TIP3   OH239289   1.450   5.018   4.383  0.5851 -0.2928  0.1598
 5933TIP3    H139290   1.425   5.037   4.292 -0.6850 -0.1676  0.5035
 5933TIP3    H239291   1.543   4.996   4.379  0.6420  0.0947 -1.1129
 5934TIP3   OH239292   5.120   4.055  12.772 -0.4723  0.2484 -0.7339
 5934TIP3    H139293   5.139   3.982  12.831  1.0525  0.4775 -0.9009
 5934TIP3    H239294   5.201   4.068  12.723 -0.1800  2.9580  0.2635
 5935TIP3   OH239295   5.926   3.372  15.760  0.2073  0.3971  0.2653
 5935TIP3    H139296   5.875   3.321  15.696 -0.2028 -0.3452  1.1601
 5935TIP3    H239297   5.977   3.307  15.807  1.1629  1.0312  0.1398
 5936TIP3   OH239298   5.656   6.782  16.697  0.2314  0.0067  0.4199
 5936TIP3    H139299   5.641   6.687  16.698 -2.3105  0.2326 -1.8247
 5936TIP3    H239300   5.742   6.792  16.655 -0.2234 -1.3190 -0.9349
 5937TIP3   OH239301   4.634   4.385  16.042 -0.1713  0.0400  0.1832
 5937TIP3    H139302   4.721   4.395  16.080 -0.6947 -0.7027  1.6408
 5937TIP3    H239303   4.642   4.310  15.983  0.5813  1.0408 -1.0481
 5938TIP3   OH239304   4.572   4.294  14.091  0.4500 -0.1948 -0.1117
 5938TIP3    H139305   4.630   4.357  14.134 -1.4144  0.4406  1.6759
 5938TIP3    H239306   4.502   4.347  14.053  1.0165 -0.9282 -2.2906
 5939TIP3   OH239307   5.970   0.244  10.705 -0.5502  0.4521  0.0530
 5939TIP3    H139308   5.968   0.334  10.673  0.0223  0.1182 -0.9579
 5939TIP3    H239309   5.976   0.190  10.626 -0.0041 -0.4414  0.6791
 5940TIP3   OH239310   2.256   2.549  12.736 -0.3416 -0.4480 -0.4482
 5940TIP3    H139311   2.289   2.562  12.825 -1.3352  0.0350 -0.1334
 5940TIP3    H239312   2.194   2.620  12.722 -0.8556 -1.0153 -1.2101
 5941TIP3   OH239313   0.880   3.986   3.989  0.1280 -0.5892  0.2859
 5941TIP3    H139314   0.870   4.065   4.042 -0.8906 -1.0908  0.8598
 5941TIP3    H239315   0.921   3.922   4.047  0.8331 -0.5365 -0.1394
 5942TIP3   OH239316   0.302   4.088   2.738 -0.0118 -0.2122 -0.7581
 5942TIP3    H139317   0.384   4.040   2.739  0.5842  0.7093  1.7932
 5942TIP3    H239318   0.285   4.109   2.830 -0.4612  3.9838 -1.5976
 5943TIP3   OH239319   0.063   5.776   4.614  0.0655 -0.1891 -0.5144
 5943TIP3    H139320   0.140   5.723   4.593 -0.8378 -1.5374 -0.5537
 5943TIP3    H239321  -0.004   5.712   4.639 -0.8504  0.9937  0.1436
 5944TIP3   OH239322   1.554   1.063  14.996  0.4139 -0.2349  0.9091
 5944TIP3    H139323   1.477   1.008  15.012  1.2736 -1.6430  0.3153
 5944TIP3    H239324   1.609   1.051  15.073  1.3592 -1.5542  0.0695
 5945TIP3   OH239325   3.639   6.031   3.352 -0.4487  0.0088 -0.1984
 5945TIP3    H139326   3.676   6.025   3.263 -0.7503  1.4390 -0.4420
 5945TIP3    H239327   3.693   6.096   3.396 -1.9301  1.3079 -0.2016
 5946TIP3   OH239328   6.405   0.164   4.612  0.1189 -0.1656 -0.4734
 5946TIP3    H139329   6.353   0.099   4.564  1.8422 -1.2413 -0.9914
 5946TIP3    H239330   6.492   0.124   4.619  0.7916  1.3996  0.6776
 5947TIP3   OH239331   6.636   3.423  16.512 -0.2063 -0.4792  0.2329
 5947TIP3    H139332   6.570   3.465  16.566  1.0069  0.4282  1.0399
 5947TIP3    H239333   6.704   3.395  16.573  0.1109 -1.5423 -0.5616
 5948TIP3   OH239334   4.956   4.214  13.380 -0.4025 -0.1373 -0.0823
 5948TIP3    H139335   4.935   4.229  13.472  1.4000  1.3234  0.1422
 5948TIP3    H239336   4.928   4.293  13.335  1.3247  0.4028 -0.2921
 5949TIP3   OH239337   1.450   6.042   3.304  0.3496  0.2200 -0.2595
 5949TIP3    H139338   1.476   5.951   3.313  0.5889  0.1932 -1.1347
 5949TIP3    H239339   1.429   6.052   3.211 -1.8196  0.4897  0.2048
 5950TIP3   OH239340   4.576   3.209   5.899 -0.6564  1.0566 -0.1950
 5950TIP3    H139341   4.670   3.193   5.892 -0.4511  1.9430  0.2949
 5950TIP3    H239342   4.537   3.157   5.829 -0.0171 -1.1125  0.9677
 5951TIP3   OH239343   3.197   5.067  17.208  0.4786  0.7518  0.7203
 5951TIP3    H139344   3.138   4.994  17.227 -1.0546  1.9801  0.8655
 5951TIP3    H239345   3.161   5.140  17.258  0.3161  2.3299 -1.5944
 5952TIP3   OH239346   4.186   6.027  16.883  0.7114 -0.4377  0.5364
 5952TIP3    H139347   4.266   5.978  16.901  1.2675  0.1675 -0.2446
 5952TIP3    H239348   4.196   6.060  16.794  0.7419  1.7836  1.2847
 5953TIP3   OH239349   2.910   0.491   1.130 -0.2045  0.4389  0.4834
 5953TIP3    H139350   2.921   0.579   1.095 -0.8721  0.3607  0.0737
 5953TIP3    H239351   2.832   0.496   1.185  0.4502  0.3964  1.4381
 5954TIP3   OH239352   0.326   2.174  15.428 -0.6950  0.3527  0.6054
 5954TIP3    H139353   0.329   2.203  15.337 -1.5738  0.7693  0.6939
 5954TIP3    H239354   0.417   2.165  15.454 -0.4328  0.7879 -0.1433
 5955TIP3   OH239355   3.586   6.458   1.783 -0.4238 -0.3025  0.0813
 5955TIP3    H139356   3.548   6.422   1.863 -1.3971  1.0277  0.2581
 5955TIP3    H239357   3.523   6.437   1.715  0.1347 -0.9504 -0.2400
 5956TIP3   OH239358   0.690   1.804  15.930  0.0034  0.3011 -0.6491
 5956TIP3    H139359   0.629   1.869  15.896  0.9454  1.0742 -0.8849
 5956TIP3    H239360   0.734   1.847  16.003  0.0019 -0.3865 -0.2256
 5957TIP3   OH239361   5.634   5.445   5.353  0.4837  0.2692  0.3449
 5957TIP3    H139362   5.669   5.507   5.289  1.6191 -0.8934 -0.2059
 5957TIP3    H239363   5.653   5.485   5.438 -3.3342  3.1171  0.1329
 5958TIP3   OH239364   2.241   2.522  11.578  0.1764 -0.5503 -0.0811
 5958TIP3    H139365   2.150   2.498  11.599 -1.3104  4.2303  0.1375
 5958TIP3    H239366   2.237   2.555  11.489  2.0786 -1.4534 -0.5466
 5959TIP3   OH239367   2.059   4.911  13.171 -0.4697  0.2816 -0.4424
 5959TIP3    H139368   2.016   4.834  13.133  0.9738 -0.4230 -0.7321
 5959TIP3    H239369   2.127   4.874  13.227 -0.7729  1.3577  0.6570
 5960TIP3   OH239370   5.034   4.173  15.366 -0.5483 -0.1484  0.3647
 5960TIP3    H139371   4.995   4.254  15.399  0.9594  0.4831  0.6540
 5960TIP3    H239372   5.128   4.191  15.362 -0.3524 -1.2800 -1.2637
 5961TIP3   OH239373   4.051   3.279   1.345 -0.1787 -0.5284 -0.2250
 5961TIP3    H139374   4.070   3.362   1.301 -3.3105  0.2322 -0.4400
 5961TIP3    H239375   4.068   3.212   1.278  0.4324  0.1131 -0.7293
 5962TIP3   OH239376   5.611   1.764   3.987  0.0027  0.0206  0.8292
 5962TIP3    H139377   5.542   1.704   4.015 -0.4333 -0.9975 -2.0831
 5962TIP3    H239378   5.571   1.851   3.994 -0.3510 -0.2338  2.3681
 5963TIP3   OH239379   4.053   5.746  15.386 -0.5239  0.7140  0.1868
 5963TIP3    H139380   3.999   5.668  15.401 -0.8776  0.6007 -1.5331
 5963TIP3    H239381   4.037   5.769  15.295  3.2863 -0.0553 -0.8191
 5964TIP3   OH239382   3.408   6.534  10.912 -0.4116  0.6176  0.4958
 5964TIP3    H139383   3.345   6.596  10.949 -0.6461  0.2541  0.7187
 5964TIP3    H239384   3.458   6.585  10.849  0.0805  1.2796  1.4034
 5965TIP3   OH239385   4.719   4.295   1.026 -0.1498  0.2368  0.7683
 5965TIP3    H139386   4.753   4.309   0.937  0.4451  1.4145  1.1678
 5965TIP3    H239387   4.771   4.353   1.081  1.0984 -2.1594  2.2704
 5966TIP3   OH239388   5.794   1.324   5.735  0.4219  0.4739 -0.5437
 5966TIP3    H139389   5.876   1.275   5.734  0.6417  0.7649  0.7450
 5966TIP3    H239390   5.788   1.359   5.825  0.3074  2.8583 -1.3992
 5967TIP3   OH239391   3.362   4.674  16.481 -0.3862 -0.0425  0.0946
 5967TIP3    H139392   3.353   4.618  16.404 -0.6930 -0.7540  0.6452
 5967TIP3    H239393   3.450   4.655  16.514 -0.4066 -0.0368  0.1528
 5968TIP3   OH239394   4.341   0.514  15.765 -0.0073 -0.6591 -0.1245
 5968TIP3    H139395   4.291   0.519  15.683  1.8686  0.7891 -1.2774
 5968TIP3    H239396   4.387   0.430  15.759  0.7581 -0.2091 -1.0267
 5969TIP3   OH239397   3.110   3.409   2.965 -0.0474 -0.0699  1.1738
 5969TIP3    H139398   3.117   3.396   3.060 -0.5439 -1.9261  1.0145
 5969TIP3    H239399   3.018   3.390   2.946  0.2918 -0.8514  0.2085
 5970TIP3   OH239400   6.318   1.932  12.809  0.1386 -0.0145  0.5424
 5970TIP3    H139401   6.387   1.969  12.864  0.4726  0.3669 -0.1135
 5970TIP3    H239402   6.261   2.007  12.788 -1.6519 -0.6660  2.7045
 5971TIP3   OH239403   1.190   1.139   5.152  0.0654  0.1340  0.4363
 5971TIP3    H139404   1.261   1.075   5.147  0.0724 -0.0772  2.5087
 5971TIP3    H239405   1.221   1.213   5.100  0.7409 -0.8874 -0.6719
 5972TIP3   OH239406   2.896   4.971  16.240  0.6607 -0.1684 -0.5151
 5972TIP3    H139407   2.929   5.018  16.163 -1.5681  0.1841 -1.3383
 5972TIP3    H239408   2.957   4.994  16.310  2.4999 -0.1238 -2.0251
 5973TIP3   OH239409   0.717   3.340  16.663  0.5272 -0.5256 -0.3496
 5973TIP3    H139410   0.657   3.384  16.724  1.4317  0.7605 -0.3561
 5973TIP3    H239411   0.768   3.280  16.718 -1.4392 -2.4622 -0.4973
 5974TIP3   OH239412   6.455   3.341   4.712  0.4499 -0.1957  0.0995
 5974TIP3    H139413   6.519   3.395   4.666 -0.7052  0.3242 -0.9721
 5974TIP3    H239414   6.384   3.330   4.649 -0.9119 -0.0086  1.5407
 5975TIP3   OH239415   5.072   5.462   1.794 -0.2068  0.1242 -0.2844
 5975TIP3    H139416   4.985   5.494   1.817  0.7485  1.5871  1.5054
 5975TIP3    H239417   5.076   5.471   1.699 -2.2091 -0.5935 -0.4896
 5976TIP3   OH239418   4.014   5.066   6.342 -0.7621  0.7349 -0.4565
 5976TIP3    H139419   4.046   4.989   6.389 -2.3477  1.0084  1.2147
 5976TIP3    H239420   4.093   5.113   6.316  0.2800 -1.7039 -2.0729
 5977TIP3   OH239421   3.125   0.221  13.717  0.3539  0.1035 -0.6569
 5977TIP3    H139422   3.051   0.263  13.672 -0.4411  0.2938  0.7888
 5977TIP3    H239423   3.190   0.207  13.647 -0.8938  0.2451 -1.8956
 5978TIP3   OH239424   3.672   4.276   5.011  0.2911  0.2145  0.4601
 5978TIP3    H139425   3.691   4.198   4.958 -1.2903  1.1913 -1.6924
 5978TIP3    H239426   3.598   4.250   5.066  0.5413 -0.1480  0.6315
 5979TIP3   OH239427   0.649   2.629  16.868  0.4502 -0.0829  0.7778
 5979TIP3    H139428   0.725   2.575  16.848  1.1034  1.0085  0.2533
 5979TIP3    H239429   0.675   2.680  16.945  0.3689  0.5303  0.4043
 5980TIP3   OH239430   4.068   4.974  13.972 -0.3476 -0.1513 -0.4018
 5980TIP3    H139431   4.159   4.946  13.977 -1.3286 -3.8367 -0.1723
 5980TIP3    H239432   4.062   5.024  13.890  1.6424 -0.8322 -1.0091
 5981TIP3   OH239433   6.096   0.624  14.618 -0.2248  0.4670  0.3244
 5981TIP3    H139434   6.060   0.708  14.644 -0.7099  0.1317  0.7520
 5981TIP3    H239435   6.179   0.646  14.576 -1.7875  1.4494 -2.5442
 5982TIP3   OH239436   0.248   0.437   5.923 -0.4947 -0.0579  0.3040
 5982TIP3    H139437   0.318   0.399   5.977  0.6559  0.3667 -0.8199
 5982TIP3    H239438   0.267   0.405   5.835 -2.0454 -0.3451  0.0580
 5983TIP3   OH239439   6.305   1.446   2.097 -0.8182 -0.0092  0.0083
 5983TIP3    H139440   6.333   1.537   2.099  1.6293 -0.7112  0.4223
 5983TIP3    H239441   6.385   1.396   2.082 -1.9971 -2.1488  0.3944
 5984TIP3   OH239442   3.326   5.443  14.172  0.0462  0.0461  0.4277
 5984TIP3    H139443   3.353   5.533  14.153  0.9317 -0.3068 -0.0556
 5984TIP3    H239444   3.313   5.403  14.086 -0.6802 -0.1988  0.6438
 5985TIP3   OH239445   4.521   2.764   2.636  0.0941 -0.1138 -0.1935
 5985TIP3    H139446   4.449   2.721   2.590  1.8797 -1.8745 -1.5491
 5985TIP3    H239447   4.514   2.856   2.610  0.0961 -0.7760 -2.8480
 5986TIP3   OH239448   2.965   4.648  14.023  0.7584  0.7303 -0.1194
 5986TIP3    H139449   2.988   4.727  14.073  2.0329  1.3000 -1.5251
 5986TIP3    H239450   2.935   4.681  13.938 -0.9572 -0.2365  0.0726
 5987TIP3   OH239451   5.969   3.734   4.392 -0.4245  0.0823 -0.2276
 5987TIP3    H139452   6.050   3.776   4.362 -0.8394  2.1211  1.2921
 5987TIP3    H239453   5.900   3.775   4.341 -0.7041  0.1259  0.1782
 5988TIP3   OH239454   6.079   1.608  14.866  0.4943  0.1470  0.9064
 5988TIP3    H139455   6.123   1.542  14.812 -0.9216 -0.1513  0.0782
 5988TIP3    H239456   6.151   1.659  14.904  1.9155 -3.6470  4.0183
 5989TIP3   OH239457   4.195   5.923   1.588 -0.0412 -0.3981 -0.7255
 5989TIP3    H139458   4.251   5.904   1.663  1.1755  1.5459 -1.0630
 5989TIP3    H239459   4.129   5.984   1.621 -0.6126 -0.9543 -0.8296
 5990TIP3   OH239460   5.381   4.391  16.423  0.5230 -0.0122  0.5586
 5990TIP3    H139461   5.405   4.300  16.408 -1.0340 -0.3992  0.2192
 5990TIP3    H239462   5.378   4.430  16.335 -1.2389 -0.3148  0.4468
 5991TIP3   OH239463   2.036   5.328  13.581 -0.0979  0.1070  0.7713
 5991TIP3    H139464   2.033   5.236  13.557 -0.7001  0.1694  0.5939
 5991TIP3    H239465   2.104   5.366  13.526 -1.8455  0.3741 -1.3380
 5992TIP3   OH239466   0.403   2.635   4.284 -0.5803 -0.3109  0.1433
 5992TIP3    H139467   0.438   2.553   4.249  0.0994 -1.1250  2.4998
 5992TIP3    H239468   0.419   2.699   4.215  0.6995 -1.7484 -0.9918
 5993TIP3   OH239469   0.416   5.245   5.984 -0.4409 -0.4427  0.2760
 5993TIP3    H139470   0.400   5.266   6.076  1.2377 -0.4831  0.6093
 5993TIP3    H239471   0.481   5.310   5.956  0.8485 -1.8699 -0.1904
 5994TIP3   OH239472   4.697   2.477  13.332  0.0395 -0.2045  0.4904
 5994TIP3    H139473   4.755   2.549  13.360  0.2676  0.0094 -0.5011
 5994TIP3    H239474   4.688   2.489  13.238 -1.2109 -0.5565  0.5576
 5995TIP3   OH239475   6.620   3.447  11.696 -0.0540  0.9516  0.2135
 5995TIP3    H139476   6.625   3.513  11.627  1.0231  1.2107  0.5263
 5995TIP3    H239477   6.652   3.492  11.774  1.4016 -0.1335  0.2762
 5996TIP3   OH239478   3.815   4.847   2.121 -0.4954 -0.4828  0.1771
 5996TIP3    H139479   3.846   4.898   2.046 -0.3649  0.7658  1.0438
 5996TIP3    H239480   3.873   4.771   2.124 -0.1421 -0.2622 -0.6401
 5997TIP3   OH239481   2.865   5.070   1.524 -0.1979 -0.8063  0.1999
 5997TIP3    H139482   2.942   5.090   1.471 -0.9705 -1.9671 -1.4358
 5997TIP3    H239483   2.892   4.996   1.578  0.4485  0.0954  1.1563
 5998TIP3   OH239484   1.759   6.017   0.439 -0.0867 -0.2335 -0.2076
 5998TIP3    H139485   1.740   6.111   0.445  0.1898 -0.2565  1.4397
 5998TIP3    H239486   1.673   5.975   0.445 -0.0323 -0.1545  2.2980
 5999TIP3   OH239487   2.088   6.634   3.772  0.0444 -0.2752  0.1788
 5999TIP3    H139488   2.160   6.663   3.716 -0.0682  0.1216  0.2354
 5999TIP3    H239489   2.131   6.584   3.842  0.6256  2.2641  1.8100
 6000TIP3   OH239490   4.814   3.807   4.818  0.1168 -0.1515 -0.5208
 6000TIP3    H139491   4.728   3.844   4.838 -0.3021  0.2449 -2.7569
 6000TIP3    H239492   4.865   3.820   4.898 -2.1098 -1.1523  1.1881
 6001TIP3   OH239493   3.894   6.417  15.056  0.2307  0.0691 -0.9095
 6001TIP3    H139494   3.863   6.342  15.106  0.0584 -0.1695 -1.3651
 6001TIP3    H239495   3.886   6.389  14.965  1.4835  0.1270 -1.0450
 6002TIP3   OH239496   4.659   1.995  11.484 -0.4726 -0.2038  0.4459
 6002TIP3    H139497   4.716   1.945  11.543  0.0318 -1.3320 -0.9268
 6002TIP3    H239498   4.712   2.070  11.459  0.8821 -1.6899 -1.5080
 6003TIP3   OH239499   0.249   6.071  14.168 -0.0909 -0.2806 -0.2997
 6003TIP3    H139500   0.189   6.016  14.118 -0.5264  1.4256 -1.7747
 6003TIP3    H239501   0.332   6.025  14.167 -0.2760 -0.6222 -2.0552
 6004TIP3   OH239502   5.756   1.908  16.310 -1.0818 -0.9522  0.2318
 6004TIP3    H139503   5.851   1.916  16.306 -0.9437 -0.8943  2.3975
 6004TIP3    H239504   5.732   1.866  16.228  0.6478  0.2553 -0.9593
 6005TIP3   OH239505   3.663   3.789   3.130 -0.6840  0.3905  0.3533
 6005TIP3    H139506   3.568   3.798   3.134 -0.8373 -1.1602  2.7860
 6005TIP3    H239507   3.697   3.854   3.191 -0.1662  0.9117 -0.4708
 6006TIP3   OH239508   1.806   5.699   0.121 -0.4154  0.8743  0.3179
 6006TIP3    H139509   1.887   5.650   0.136 -1.4734 -0.6607  1.3249
 6006TIP3    H239510   1.822   5.784   0.162  0.4530  0.3441  1.1209
 6007TIP3   OH239511   6.163   5.758   4.777  0.1009  0.8334 -0.3113
 6007TIP3    H139512   6.175   5.763   4.872 -1.7732  0.1993  0.0174
 6007TIP3    H239513   6.231   5.698   4.747 -0.6033 -0.6772  0.9769
 6008TIP3   OH239514   0.335   2.523   0.276  0.5284 -0.7196 -0.5381
 6008TIP3    H139515   0.274   2.501   0.206  0.0188 -1.6769  0.1725
 6008TIP3    H239516   0.371   2.608   0.251 -2.7026  0.9891  0.0660
 6009TIP3   OH239517   4.976   3.493   4.138 -0.1477 -0.2856  0.5911
 6009TIP3    H139518   4.908   3.436   4.175 -0.1295 -1.1828 -0.6781
 6009TIP3    H239519   5.009   3.444   4.062 -0.3098  1.5394 -0.7167
 6010TIP3   OH239520   0.745   2.071   1.864 -0.3253 -0.4097 -0.2184
 6010TIP3    H139521   0.775   2.147   1.914  0.8137 -2.1386  1.9182
 6010TIP3    H239522   0.650   2.081   1.859 -0.1235  1.5766 -0.8035
 6011TIP3   OH239523   6.257   6.495  12.742  0.1925 -0.1705  0.3623
 6011TIP3    H139524   6.330   6.516  12.684  0.8784  1.0311  1.5952
 6011TIP3    H239525   6.265   6.401  12.758 -0.6819 -0.7882 -2.3092
 6012TIP3   OH239526   6.838   0.732   0.290 -0.2749  0.4493  0.0902
 6012TIP3    H139527   6.804   0.803   0.235  0.1017  0.6857  0.1557
 6012TIP3    H239528   6.796   0.746   0.375 -0.6489  0.2446 -0.0587
 6013TIP3   OH239529   3.207   4.664  12.074 -0.2657  0.6174  0.0716
 6013TIP3    H139530   3.203   4.575  12.108  0.7897  0.0482 -1.2245
 6013TIP3    H239531   3.294   4.672  12.036 -0.3477  2.2121  0.1429
 6014TIP3   OH239532   2.089   1.927  13.752 -0.3032 -0.0025  0.1096
 6014TIP3    H139533   2.004   1.961  13.723 -0.5829 -0.6524  0.1415
 6014TIP3    H239534   2.076   1.832  13.754  0.6552 -0.1593 -0.6079
 6015TIP3   OH239535   2.292   0.047   3.641  0.2370 -0.1559 -0.4424
 6015TIP3    H139536   2.343   0.116   3.600  4.9511 -1.6416  2.1914
 6015TIP3    H239537   2.245   0.092   3.712  1.9884  0.6775  0.2535
 6016TIP3   OH239538   2.772   5.031  12.668 -0.0885  0.8254  0.3970
 6016TIP3    H139539   2.678   5.013  12.675 -0.2347  1.2062 -0.4691
 6016TIP3    H239540   2.783   5.115  12.712 -0.2357  1.0242  0.0532
 6017TIP3   OH239541   3.907   1.989   3.927  0.2967 -0.3406 -0.1539
 6017TIP3    H139542   3.988   2.008   3.880  0.8798  0.0564  0.9911
 6017TIP3    H239543   3.893   1.895   3.914  0.0863 -0.1284 -1.6502
 6018TIP3   OH239544   6.628   0.861   2.009  0.5386 -0.3775  0.0276
 6018TIP3    H139545   6.664   0.949   1.999  2.1427 -1.1644 -1.6522
 6018TIP3    H239546   6.605   0.834   1.921 -1.2450 -1.1523  0.6870
 6019TIP3   OH239547   1.212   5.877  16.505  0.3159  0.1340  0.1497
 6019TIP3    H139548   1.187   5.800  16.454  1.0144 -0.0708  0.1020
 6019TIP3    H239549   1.140   5.939  16.493 -0.3889 -0.6161  0.4212
 6020TIP3   OH239550   2.414   0.568  14.493  0.4742  0.2634  0.3521
 6020TIP3    H139551   2.372   0.505  14.434 -1.2193  0.6902  1.0419
 6020TIP3    H239552   2.496   0.591  14.449 -0.5621  0.3121 -1.6882
 6021TIP3   OH239553   0.059   6.610  10.757  0.7799 -0.0780 -0.2026
 6021TIP3    H139554   0.017   6.580  10.676  0.0965 -1.5599  0.6509
 6021TIP3    H239555   0.039   6.704  10.761  0.4635 -0.0662 -1.5298
 6022TIP3   OH239556   4.806   5.392  11.209  0.4616  0.1585  0.7359
 6022TIP3    H139557   4.751   5.386  11.131 -0.7810  0.8845  1.5249
 6022TIP3    H239558   4.873   5.456  11.187 -0.4957  1.1438  0.5854
 6023TIP3   OH239559   5.714   2.844  17.155  0.2159 -0.1926  0.3469
 6023TIP3    H139560   5.644   2.828  17.092  0.2391  3.8011 -0.9729
 6023TIP3    H239561   5.672   2.834  17.241 -0.8990 -1.5690 -0.3014
 6024TIP3   OH239562   0.232   6.366   0.039  0.3487  0.4099 -0.5776
 6024TIP3    H139563   0.293   6.303   0.001 -1.7055 -1.4635 -1.0083
 6024TIP3    H239564   0.179   6.396  -0.035  0.2381  1.3853 -0.1139
 6025TIP3   OH239565   1.994   2.095  12.113  0.3248  0.2136  0.9748
 6025TIP3    H139566   2.058   2.083  12.184  0.4715  1.7321  1.1478
 6025TIP3    H239567   2.021   2.177  12.071 -1.2003  0.6121  0.7187
 6026TIP3   OH239568   2.057   0.929   0.795  0.7179 -0.1374  0.7862
 6026TIP3    H139569   2.132   0.916   0.736 -0.5080  1.1881 -1.1724
 6026TIP3    H239570   2.096   0.925   0.882  2.8757 -0.6770 -0.1073
 6027TIP3   OH239571   4.904   2.014  15.863  0.3997  0.1778 -0.1052
 6027TIP3    H139572   4.955   1.939  15.895 -0.5612  0.4003  2.1271
 6027TIP3    H239573   4.813   1.986  15.873 -0.0019  1.9809  1.7605
 6028TIP3   OH239574   3.857   6.695  13.372 -0.3858  0.8382  0.3470
 6028TIP3    H139575   3.916   6.620  13.362 -0.2844  0.6028  2.2883
 6028TIP3    H239576   3.894   6.763  13.316  0.5359  0.0218 -0.0613
 6029TIP3   OH239577   1.533   2.626   5.326 -0.3887 -0.1990  0.4066
 6029TIP3    H139578   1.538   2.560   5.257  0.3075  0.5830 -0.3186
 6029TIP3    H239579   1.622   2.630   5.361 -0.6400 -0.2843  1.0723
 6030TIP3   OH239580   3.699   1.869   3.380 -0.3301  0.1658  0.2196
 6030TIP3    H139581   3.662   1.835   3.461  2.8076  1.7694  2.5867
 6030TIP3    H239582   3.693   1.964   3.389  2.0592  0.4455 -0.2863
 6031TIP3   OH239583   5.174   0.745  13.429 -0.3050 -0.6112 -0.6069
 6031TIP3    H139584   5.264   0.778  13.430 -0.1473 -1.0202  1.0638
 6031TIP3    H239585   5.161   0.715  13.339  0.7410  0.7265 -1.2390
 6032TIP3   OH239586   1.007   4.870  11.536  0.4513 -0.8351  0.2226
 6032TIP3    H139587   1.015   4.933  11.464  0.7338 -1.0094  0.0964
 6032TIP3    H239588   1.048   4.914  11.611  0.5134 -0.8076  0.1736
 6033TIP3   OH239589   4.566   0.390   1.758 -0.4687 -0.1208 -1.1470
 6033TIP3    H139590   4.476   0.359   1.757 -1.4597  2.3578  0.1515
 6033TIP3    H239591   4.560   0.483   1.736  1.5939  0.3885  0.0689
 6034TIP3   OH239592   2.773   3.573  12.325  0.0223  0.7949 -0.3588
 6034TIP3    H139593   2.850   3.628  12.310  1.0564 -0.0383  1.6081
 6034TIP3    H239594   2.699   3.629  12.301  1.0118  3.2307  1.8189
 6035TIP3   OH239595   6.781   0.296   4.139 -0.1914  0.3495 -0.0239
 6035TIP3    H139596   6.778   0.316   4.045  0.1954 -0.2650 -0.1717
 6035TIP3    H239597   6.816   0.207   4.144 -0.0471  0.4396  0.7146
 6036TIP3   OH239598   5.734   1.590  11.989  0.0990  0.4816 -0.2303
 6036TIP3    H139599   5.718   1.601  11.895 -3.1369  0.0391  0.1387
 6036TIP3    H239600   5.700   1.670  12.029  0.7896  0.3647  0.6217
 6037TIP3   OH239601   4.012   2.949   2.847 -0.2824 -0.9101 -0.1259
 6037TIP3    H139602   4.001   2.890   2.773  2.8251 -0.4827 -1.0518
 6037TIP3    H239603   4.020   3.036   2.808 -0.4997 -0.4189  0.8812
 6038TIP3   OH239604   6.306   6.331   3.772 -1.0134  0.7209  0.9633
 6038TIP3    H139605   6.316   6.421   3.801 -0.3408  0.4167  1.7102
 6038TIP3    H239606   6.295   6.281   3.853 -1.0165  0.0822  0.5773
 6039TIP3   OH239607   1.882   6.311   0.260 -0.0858  0.0687 -0.0899
 6039TIP3    H139608   1.966   6.284   0.221 -0.0627 -1.4329  0.9007
 6039TIP3    H239609   1.819   6.303   0.189  0.3620 -0.3199 -0.4538
 6040TIP3   OH239610   1.824   1.015   5.197 -0.5863 -0.2574  0.3041
 6040TIP3    H139611   1.889   1.048   5.134 -0.8354 -0.9554 -0.3444
 6040TIP3    H239612   1.862   1.034   5.283  1.5004 -2.4293 -0.0052
 6041TIP3   OH239613   5.630   5.177  15.462 -0.4061  0.0244 -0.0730
 6041TIP3    H139614   5.679   5.116  15.408  1.9417  0.0607  1.8108
 6041TIP3    H239615   5.656   5.155  15.552 -3.9264  0.0865  1.1110
 6042TIP3   OH239616   5.365   4.104   5.720 -0.2390  0.0826  0.8068
 6042TIP3    H139617   5.396   4.122   5.631  0.5157  2.2588  1.4431
 6042TIP3    H239618   5.278   4.144   5.723 -0.2171  0.1075  1.0816
 6043TIP3   OH239619   5.357   5.428   0.538  0.4571 -0.1311 -0.0352
 6043TIP3    H139620   5.432   5.484   0.518 -0.7596  0.9173 -2.0376
 6043TIP3    H239621   5.367   5.407   0.631  1.5355  2.6146  0.5928
 6044TIP3   OH239622   4.139   4.360  16.709  0.2765 -0.6121  0.7439
 6044TIP3    H139623   4.087   4.343  16.631  1.8856  0.1488 -0.5679
 6044TIP3    H239624   4.222   4.395  16.676  0.3494  1.5447  2.8565
 6045TIP3   OH239625   1.828   2.284  15.989  0.5537 -0.5096  0.1953
 6045TIP3    H139626   1.908   2.288  16.042 -0.2156  0.1404  1.3649
 6045TIP3    H239627   1.830   2.363  15.936  0.4291 -0.2094  0.6315
 6046TIP3   OH239628   1.780   2.172  14.910 -0.3252  0.2205  0.5333
 6046TIP3    H139629   1.860   2.223  14.905  0.1033 -0.4281  0.6223
 6046TIP3    H239630   1.807   2.088  14.948 -1.3487  0.6136  2.2070
 6047TIP3   OH239631   2.739   0.343   0.812 -0.6518  0.1831  0.2320
 6047TIP3    H139632   2.752   0.382   0.725  2.1484  0.8277  0.8294
 6047TIP3    H239633   2.676   0.401   0.855 -2.2189 -0.2392 -1.3611
 6048TIP3   OH239634   6.412   0.327  11.262 -0.0094  0.3922  0.2568
 6048TIP3    H139635   6.418   0.248  11.316  1.3598 -0.0401 -0.4860
 6048TIP3    H239636   6.444   0.300  11.176  0.0326  1.6375 -0.1392
 6049TIP3   OH239637   1.860   2.039   1.502  0.2739  0.3386  0.3581
 6049TIP3    H139638   1.776   2.021   1.545  0.9569 -1.7394  0.9290
 6049TIP3    H239639   1.896   2.114   1.550 -0.1250 -0.3422  1.7691
 6050TIP3   OH239640   6.740   4.868   5.793  0.5690  0.1790  0.6808
 6050TIP3    H139641   6.763   4.783   5.831 -0.4299  0.3450  1.7315
 6050TIP3    H239642   6.697   4.846   5.710  0.2793 -0.3413  0.9614
 6051TIP3   OH239643   4.517   6.208   4.425 -0.1762  0.3696  0.5801
 6051TIP3    H139644   4.533   6.206   4.520  0.6002 -1.7467  0.4514
 6051TIP3    H239645   4.499   6.117   4.402 -1.8485  1.0677 -1.1020
 6052TIP3   OH239646   0.139   4.199   1.598  0.3076  0.2125  1.3411
 6052TIP3    H139647   0.055   4.159   1.575  0.8383 -0.3730  0.3605
 6052TIP3    H239648   0.176   4.142   1.665  1.2394 -1.2491 -0.3266
 6053TIP3   OH239649   4.878   4.498  12.875 -0.2139 -0.0413 -0.1254
 6053TIP3    H139650   4.791   4.504  12.835 -0.7354 -0.7420  0.8648
 6053TIP3    H239651   4.917   4.420  12.837 -0.7810 -0.8103  0.8391
 6054TIP3   OH239652   0.210   1.986  14.023 -0.7273  0.2791  0.1559
 6054TIP3    H139653   0.281   1.925  14.005 -0.8223  0.1379  0.2602
 6054TIP3    H239654   0.186   2.022  13.937 -1.5230 -0.7633 -0.0817
 6055TIP3   OH239655   0.885   6.276   2.269  0.2175  0.7852  0.0468
 6055TIP3    H139656   0.820   6.235   2.212 -1.3924  4.3042 -0.9593
 6055TIP3    H239657   0.923   6.346   2.215  2.5729  0.8855  1.6718
 6056TIP3   OH239658   4.714   6.477   1.041  0.6881 -0.4897 -0.0587
 6056TIP3    H139659   4.744   6.567   1.037  0.5079 -0.4703 -2.3076
 6056TIP3    H239660   4.743   6.445   1.127  1.4926  1.4193  0.4224
 6057TIP3   OH239661   2.189   6.598  16.775  0.1671 -0.1979 -0.0363
 6057TIP3    H139662   2.263   6.537  16.776  0.8963  0.6550  0.2731
 6057TIP3    H239663   2.118   6.551  16.818  0.3711 -1.2201 -0.7786
 6058TIP3   OH239664   2.150   4.109  16.358 -0.6404  0.8385  0.0061
 6058TIP3    H139665   2.224   4.159  16.323 -0.9994  1.6556  0.3719
 6058TIP3    H239666   2.088   4.176  16.387 -0.3312  0.2032  2.2899
 6059TIP3   OH239667   1.284   0.882  14.892 -0.0377 -0.5491 -0.2781
 6059TIP3    H139668   1.248   0.970  14.907  1.2567  0.0572 -0.5035
 6059TIP3    H239669   1.220   0.839  14.836 -1.3118 -0.2113  0.8855
 6060TIP3   OH239670   4.518   2.659   5.139  0.0198 -0.6408  0.0810
 6060TIP3    H139671   4.438   2.689   5.182 -0.7446 -0.8000 -1.1951
 6060TIP3    H239672   4.525   2.566   5.162  0.4949 -0.3627  1.1467
 6061TIP3   OH239673   1.381   0.211  14.421 -0.4208  0.3874 -0.3480
 6061TIP3    H139674   1.444   0.230  14.352  0.9218 -0.0936  0.6998
 6061TIP3    H239675   1.390   0.117  14.437  0.9303  0.8182  1.9445
 6062TIP3   OH239676   3.762   1.996   0.800 -0.2185  0.5542  0.2058
 6062TIP3    H139677   3.739   1.943   0.876  1.1109  1.0848  0.9998
 6062TIP3    H239678   3.685   1.991   0.743 -0.7064 -0.9548  0.9584
 6063TIP3   OH239679   6.104   4.434   4.009  0.0983  0.1306 -0.0892
 6063TIP3    H139680   6.149   4.513   4.040  0.6912 -0.7299  1.3568
 6063TIP3    H239681   6.130   4.366   4.072 -3.1299 -0.4781  0.7763
 6064TIP3   OH239682   5.787   2.744  15.581 -0.6819 -0.1403 -0.8994
 6064TIP3    H139683   5.816   2.824  15.626 -0.6178 -0.7331  0.1405
 6064TIP3    H239684   5.795   2.675  15.647 -4.0720 -0.4310 -0.6464
 6065TIP3   OH239685   4.502   3.703  16.536  0.2533  0.1256  0.1474
 6065TIP3    H139686   4.561   3.778  16.539 -0.3416  0.6271 -0.4304
 6065TIP3    H239687   4.422   3.737  16.495 -0.6980 -0.3594  1.5133
 6066TIP3   OH239688   4.597   3.898   0.810  0.1443  0.2123 -0.5261
 6066TIP3    H139689   4.602   3.818   0.759 -1.1997  0.3976 -0.9845
 6066TIP3    H239690   4.684   3.938   0.801  0.4762 -0.6308 -1.1996
 6067TIP3   OH239691   2.580   3.257  16.797  0.2020  0.1378  0.1506
 6067TIP3    H139692   2.547   3.168  16.789  1.1416 -0.0910 -1.9427
 6067TIP3    H239693   2.569   3.279  16.889 -0.6116 -1.9043  0.5910
 6068TIP3   OH239694   3.365   0.211   4.754  0.3322 -0.3324  0.2239
 6068TIP3    H139695   3.369   0.161   4.836  1.1864 -0.0118  0.3828
 6068TIP3    H239696   3.276   0.246   4.752 -0.4516 -2.2214 -0.1102
 6069TIP3   OH239697   2.944   5.414   2.453 -0.2713  0.4963  0.3966
 6069TIP3    H139698   2.919   5.331   2.493  0.0585  0.2257  0.0516
 6069TIP3    H239699   2.896   5.415   2.370 -0.0010  0.4870  0.2403
 6070TIP3   OH239700   5.523   4.375   3.075 -0.5065  0.6902 -0.4669
 6070TIP3    H139701   5.444   4.406   3.031 -0.2560  1.1212 -0.6237
 6070TIP3    H239702   5.584   4.356   3.003 -0.3201  0.7774 -0.3331
 6071TIP3   OH239703   6.098   6.688  12.836  0.5756 -0.3884  0.0677
 6071TIP3    H139704   6.052   6.745  12.774 -1.0780 -0.5614  1.0670
 6071TIP3    H239705   6.153   6.632  12.781 -0.5511 -0.2774 -1.2216
 6072TIP3   OH239706   4.042   0.189  14.892 -0.0788 -0.0248 -0.2832
 6072TIP3    H139707   4.060   0.279  14.919 -0.8133  0.3013 -0.8430
 6072TIP3    H239708   4.026   0.195  14.798 -0.4787 -0.6817 -0.2666
 6073TIP3   OH239709   0.210   1.199  12.306  0.4165 -0.4118 -0.7748
 6073TIP3    H139710   0.244   1.285  12.282 -0.0933 -0.1878 -0.6988
 6073TIP3    H239711   0.258   1.138  12.250  1.2625 -0.1385 -0.3561
 6074TIP3   OH239712   1.238   6.091   1.823 -0.5593 -0.3193  0.1568
 6074TIP3    H139713   1.166   6.030   1.809 -0.0916 -0.9504  0.4264
 6074TIP3    H239714   1.262   6.079   1.915  0.2197 -0.4896 -0.0604
 6075TIP3   OH239715   6.336   3.585  14.593 -0.3557 -0.5506  0.0913
 6075TIP3    H139716   6.320   3.629  14.676  0.1637 -0.7296  0.2843
 6075TIP3    H239717   6.350   3.494  14.616  1.5884 -0.3149  0.0098
 6076TIP3   OH239718   6.177   4.103  12.208 -0.5339 -0.1123  0.3918
 6076TIP3    H139719   6.211   4.016  12.184 -1.0903 -0.4516  0.8247
 6076TIP3    H239720   6.190   4.109  12.302  0.6176  0.7763  0.2072
 6077TIP3   OH239721   2.141   0.179  14.555  0.5137 -0.0282  0.4191
 6077TIP3    H139722   2.232   0.152  14.539  0.5066 -0.5044  1.1558
 6077TIP3    H239723   2.102   0.183  14.468  0.8977 -1.0309  0.1875
 6078TIP3   OH239724   3.761   1.179   3.906 -0.2238 -0.0333  0.0889
 6078TIP3    H139725   3.747   1.088   3.931  0.9663 -0.0312  0.8091
 6078TIP3    H239726   3.678   1.206   3.866  0.0787 -2.0682 -2.1100
 6079TIP3   OH239727   0.884   2.988   4.563  0.0566  0.0542 -0.0817
 6079TIP3    H139728   0.825   2.922   4.527 -1.3926  1.5074 -0.5576
 6079TIP3    H239729   0.843   3.013   4.647 -0.0125  1.0515 -0.3967
 6080TIP3   OH239730   0.232   1.188   5.000  0.0568  0.2082  0.1705
 6080TIP3    H139731   0.239   1.219   5.090 -0.6849  0.1918  0.2357
 6080TIP3    H239732   0.160   1.239   4.963 -0.7024 -0.9300  0.0628
 6081TIP3   OH239733   1.856   3.423   5.817 -0.1061 -0.2153 -0.3127
 6081TIP3    H139734   1.817   3.355   5.871  0.3122 -1.6819 -1.7918
 6081TIP3    H239735   1.948   3.400   5.811 -0.0223  0.2774 -1.1109
 6082TIP3   OH239736   1.254   2.783  13.518 -0.0547  0.4774  0.1361
 6082TIP3    H139737   1.168   2.769  13.478 -0.2291  0.7073  0.4317
 6082TIP3    H239738   1.266   2.878  13.517  1.3872  0.3677 -2.4191
 6083TIP3   OH239739   1.146   5.625  14.745  0.1976 -0.2075  0.6415
 6083TIP3    H139740   1.079   5.626  14.676  0.0881  0.3812  0.7498
 6083TIP3    H239741   1.099   5.652  14.824  0.4234 -0.4296  0.8531
 6084TIP3   OH239742   2.032   1.299   1.342 -0.9269  0.3978  0.0998
 6084TIP3    H139743   2.013   1.362   1.412  0.3537  0.4896  0.3917
 6084TIP3    H239744   2.115   1.260   1.368 -0.9574 -0.3199 -0.8565
 6085TIP3   OH239745   0.331   5.450  15.368 -0.0728  0.2268 -0.2689
 6085TIP3    H139746   0.280   5.402  15.432 -0.2217  0.8189  0.0634
 6085TIP3    H239747   0.316   5.542  15.389 -0.3634  0.4409 -1.3342
 6086TIP3   OH239748   0.393   6.769   4.488 -0.3252 -0.3595 -0.0038
 6086TIP3    H139749   0.425   6.859   4.481  0.4467 -0.5912  0.3691
 6086TIP3    H239750   0.303   6.773   4.456 -0.2766  0.5265 -0.0679
 6087TIP3   OH239751   3.955   1.480   2.786 -0.0740  0.3839  0.3965
 6087TIP3    H139752   4.047   1.489   2.763  0.0857 -1.0074  0.4179
 6087TIP3    H239753   3.921   1.569   2.783  1.3507  0.9622  0.7649
 6088TIP3   OH239754   0.946   2.475   4.106 -0.1484 -0.0615 -0.2233
 6088TIP3    H139755   0.992   2.403   4.063 -0.3598 -0.4551  0.2006
 6088TIP3    H239756   0.919   2.533   4.035  1.3216  0.3665 -0.4586
 6089TIP3   OH239757   2.851   1.273  14.488  0.6511  0.3259  0.2451
 6089TIP3    H139758   2.764   1.252  14.454  0.5193  0.4947  0.4742
 6089TIP3    H239759   2.845   1.256  14.582  1.4430 -1.5519  0.0016
 6090TIP3   OH239760   3.200   3.555   5.090  0.3319 -0.5200  0.0107
 6090TIP3    H139761   3.229   3.614   5.020  0.0230  1.4774  1.4795
 6090TIP3    H239762   3.129   3.603   5.134 -0.4322 -2.3096  0.8545
 6091TIP3   OH239763   2.845   2.935  15.986 -0.0473  0.4093  0.1143
 6091TIP3    H139764   2.938   2.956  15.973 -0.1869  1.0658  0.1440
 6091TIP3    H239765   2.836   2.846  15.951  1.0923 -0.6358  2.3053
 6092TIP3   OH239766   0.975   4.970   0.952  0.8182 -0.2800  0.3713
 6092TIP3    H139767   1.040   5.015   0.899  0.4869  0.2365  0.3941
 6092TIP3    H239768   0.939   5.038   1.009 -0.6511 -0.2558 -0.5335
 6093TIP3   OH239769   4.006   6.371  13.565  0.0805  0.2238 -0.1078
 6093TIP3    H139770   3.929   6.338  13.520 -0.6862  1.2341  0.4224
 6093TIP3    H239771   4.040   6.439  13.508  0.2928  0.1216 -0.1031
 6094TIP3   OH239772   5.801   2.199  13.165  0.2312  0.4875  0.9677
 6094TIP3    H139773   5.832   2.117  13.128  2.3980  0.5426  2.4662
 6094TIP3    H239774   5.865   2.264  13.136 -1.3068  1.6446  0.0143
 6095TIP3   OH239775   5.683   1.209   0.206  0.1866 -0.5282 -0.1602
 6095TIP3    H139776   5.744   1.261   0.154 -0.1528 -1.2546 -1.3282
 6095TIP3    H239777   5.719   1.211   0.295  0.8890  0.5735 -0.4522
 6096TIP3   OH239778   2.688   0.873  17.108 -0.7093  0.5287 -0.1481
 6096TIP3    H139779   2.709   0.955  17.064 -0.9518  0.1669 -0.9539
 6096TIP3    H239780   2.749   0.809  17.071 -0.9813  0.1980 -0.0356
 6097TIP3   OH239781   5.524   2.935   5.610  0.4658 -0.6764 -0.1505
 6097TIP3    H139782   5.577   2.891   5.677  1.4720  1.5954  0.6299
 6097TIP3    H239783   5.560   2.904   5.527  0.8648 -1.6233  0.3548
 6098TIP3   OH239784   3.747   2.601   5.616  0.1960  0.0457 -0.2538
 6098TIP3    H139785   3.740   2.520   5.565 -0.6434  0.9659 -1.6674
 6098TIP3    H239786   3.698   2.665   5.565  0.6202  1.3907  0.9798
 6099TIP3   OH239787   4.319   4.406  13.380 -0.3532 -0.2533 -0.0752
 6099TIP3    H139788   4.237   4.359  13.365 -0.4118 -0.2827  0.3377
 6099TIP3    H239789   4.332   4.458  13.301 -1.9549  1.5404  0.7708
 6100TIP3   OH239790   0.399   4.020  10.890  0.2208  0.4316  0.1767
 6100TIP3    H139791   0.403   4.003  10.984  0.1843  0.8029  0.2469
 6100TIP3    H239792   0.319   4.070  10.878 -0.1148 -0.1683 -0.1440
 6101TIP3   OH239793   4.890   1.784   5.439 -0.5408  0.3344 -0.3976
 6101TIP3    H139794   4.797   1.791   5.418 -0.9712 -0.8974  0.9260
 6101TIP3    H239795   4.900   1.839   5.517 -0.6465 -1.1970  0.7334
 6102TIP3   OH239796   2.067   1.673  11.023 -0.0990  0.3716 -0.1312
 6102TIP3    H139797   2.124   1.705  10.953  0.7795 -0.1106  0.3360
 6102TIP3    H239798   2.002   1.620  10.979 -0.6988  1.5832 -0.7645
 6103TIP3   OH239799   6.409   0.356  14.059  0.3690 -0.0205 -0.3176
 6103TIP3    H139800   6.445   0.281  14.106  0.7786  0.2509 -0.1829
 6103TIP3    H239801   6.320   0.330  14.036  0.5681 -0.6169 -0.4392
 6104TIP3   OH239802   6.131   6.396  13.931  0.1953  0.1004  0.8347
 6104TIP3    H139803   6.187   6.333  13.975 -0.6214 -2.2059 -1.1900
 6104TIP3    H239804   6.046   6.353  13.926 -0.0396  0.6928 -1.8738
 6105TIP3   OH239805   5.856   1.865  17.048 -0.2740 -0.2831 -0.2668
 6105TIP3    H139806   5.821   1.846  17.135  1.0877 -0.7604  0.2153
 6105TIP3    H239807   5.789   1.917  17.005 -0.1213  1.8282  1.8386
 6106TIP3   OH239808   5.908   0.962   4.281  0.2072 -0.6071 -0.2749
 6106TIP3    H139809   5.918   0.887   4.221  2.4521 -1.1050  0.6073
 6106TIP3    H239810   5.852   1.023   4.234 -0.1500 -2.0470 -1.8260
 6107TIP3   OH239811   3.807   0.441   5.588  0.3379 -0.2622  0.0953
 6107TIP3    H139812   3.835   0.533   5.591  1.0836 -0.5015  1.7094
 6107TIP3    H239813   3.712   0.446   5.576  0.1489  0.7920  1.7225
 6108TIP3   OH239814   3.110   6.428  13.039 -0.3716 -0.2623 -0.0464
 6108TIP3    H139815   3.017   6.434  13.018 -0.7201 -2.0775  0.7609
 6108TIP3    H239816   3.112   6.382  13.123  1.2267  0.5535  0.3887
 6109TIP3   OH239817   5.444   6.052  11.804  0.0446 -0.0279  0.5178
 6109TIP3    H139818   5.410   5.970  11.838  0.7971  0.1135  1.6689
 6109TIP3    H239819   5.527   6.065  11.851  0.4000  0.9092 -0.3316
 6110TIP3   OH239820   3.061   5.602   5.505  0.5716  0.1983  0.3505
 6110TIP3    H139821   3.115   5.660   5.558  1.1344  1.3146 -1.3670
 6110TIP3    H239822   3.053   5.647   5.420  0.3290 -1.8251 -0.7638
 6111TIP3   OH239823   5.514   3.194  16.274  0.1472 -0.3312 -0.1982
 6111TIP3    H139824   5.439   3.147  16.310 -1.3014  1.1808 -1.1039
 6111TIP3    H239825   5.540   3.142  16.198 -0.0912 -0.7778  0.0218
 6112TIP3   OH239826   0.025   0.607   3.001  0.4287  0.1245 -0.2128
 6112TIP3    H139827  -0.016   0.560   2.929 -1.7114  1.4115  0.0804
 6112TIP3    H239828   0.119   0.603   2.982  0.0154 -0.6545 -2.3670
 6113TIP3   OH239829   2.582   2.750  12.903  0.1449  0.1346 -0.5051
 6113TIP3    H139830   2.493   2.785  12.907  1.5308  4.0088  1.6494
 6113TIP3    H239831   2.605   2.755  12.810 -1.5306  0.0076 -0.9583
 6114TIP3   OH239832   2.499   3.279   5.246  0.4764 -0.3632 -0.4815
 6114TIP3    H139833   2.477   3.366   5.280  0.8262 -0.3784 -0.2123
 6114TIP3    H239834   2.417   3.230   5.252  0.5589 -0.4111  0.4787
 6115TIP3   OH239835   0.856   6.010  15.204  0.0394 -0.1429 -0.3948
 6115TIP3    H139836   0.936   6.035  15.250 -0.2280  1.1446 -0.5996
 6115TIP3    H239837   0.786   6.049  15.256 -0.3970 -0.4811 -0.7263
 6116TIP3   OH239838   0.124   4.801   5.948 -0.3115 -0.0943 -0.1190
 6116TIP3    H139839   0.151   4.829   5.860  0.2415 -1.0361 -0.2577
 6116TIP3    H239840   0.141   4.878   6.003 -0.5394  0.4632 -0.8069
 6117TIP3   OH239841   2.354   5.384   2.520 -0.0703  0.1446 -0.2801
 6117TIP3    H139842   2.291   5.442   2.478  0.0888  0.8983  0.4954
 6117TIP3    H239843   2.415   5.360   2.451 -0.4180  0.5105 -0.7188
 6118TIP3   OH239844   1.583   3.753   3.362  0.5791  0.7453  0.1205
 6118TIP3    H139845   1.531   3.712   3.430 -0.1333  0.4081 -0.6135
 6118TIP3    H239846   1.593   3.844   3.390  1.2578  0.3589  1.2219
 6119TIP3   OH239847   0.551   6.213  13.187 -0.3015 -0.0379  0.3236
 6119TIP3    H139848   0.553   6.121  13.161 -0.5354 -0.0361  0.2948
 6119TIP3    H239849   0.463   6.242  13.165 -0.1515  0.2597  0.1097
 6120TIP3   OH239850   1.229   5.963  11.716  0.1707  0.2309  0.2462
 6120TIP3    H139851   1.308   6.006  11.683  1.6606 -1.7213  1.0418
 6120TIP3    H239852   1.158   6.025  11.697  1.2552  0.4724 -3.9985
 6121TIP3   OH239853   6.305   5.080   0.546  0.5404  0.1231 -0.5025
 6121TIP3    H139854   6.272   5.161   0.585 -0.0289  1.3939 -3.3716
 6121TIP3    H239855   6.394   5.102   0.517 -0.1837  0.3282 -2.7517
 6122TIP3   OH239856   2.031   3.563   2.886 -0.6031 -0.2705  0.1442
 6122TIP3    H139857   1.964   3.518   2.937 -0.8947  0.1864  0.1654
 6122TIP3    H239858   1.992   3.574   2.799 -0.5167 -0.1033  0.1259
 6123TIP3   OH239859   2.487   1.000  12.687  0.4185 -0.1461  0.3618
 6123TIP3    H139860   2.498   1.062  12.760 -0.1588 -1.1847  1.3628
 6123TIP3    H239861   2.415   0.944  12.715 -1.0358  0.5338 -1.8183
 6124TIP3   OH239862   0.987   0.103  10.720  0.2306 -0.3994  0.3616
 6124TIP3    H139863   0.926   0.059  10.778 -0.8976  0.1392 -0.3853
 6124TIP3    H239864   0.961   0.077  10.632 -0.0877  1.2279 -0.0657
 6125TIP3   OH239865   3.210   6.711  13.615 -0.2985  0.3289 -0.6171
 6125TIP3    H139866   3.214   6.616  13.627  0.4832  0.2089 -1.7014
 6125TIP3    H239867   3.133   6.725  13.560  0.1772  0.2232 -1.3141
 6126TIP3   OH239868   2.671   5.884  12.695  0.0067  0.0071  0.8121
 6126TIP3    H139869   2.739   5.944  12.726 -0.6932  1.0592  0.3623
 6126TIP3    H239870   2.682   5.881  12.600 -0.9508  0.7044  0.6567
 6127TIP3   OH239871   4.389   2.141   6.025 -0.1631  0.6977  0.4191
 6127TIP3    H139872   4.350   2.173   5.944  0.0983 -1.1397 -0.4911
 6127TIP3    H239873   4.351   2.196   6.094 -0.4441  2.2439 -0.9234
 6128TIP3   OH239874   5.558   2.391  15.949 -0.1997 -0.0530  0.1696
 6128TIP3    H139875   5.542   2.297  15.943 -1.4512  0.1669 -0.1386
 6128TIP3    H239876   5.623   2.399  16.019  1.6112 -1.3006 -1.2842
 6129TIP3   OH239877   3.514   0.176  12.164  0.2363 -0.4427  0.4411
 6129TIP3    H139878   3.515   0.108  12.096  0.0003 -0.4366  0.4310
 6129TIP3    H239879   3.504   0.128  12.246 -1.6447 -0.3260  0.3062
 6130TIP3   OH239880   5.257   1.642   2.319  0.1778  0.4661 -0.2918
 6130TIP3    H139881   5.320   1.705   2.355  0.2753  0.0988  0.1881
 6130TIP3    H239882   5.245   1.671   2.228 -0.6967  1.8897  0.2419
 6131TIP3   OH239883   0.446   0.500   9.960  0.4136  0.2877  0.1499
 6131TIP3    H139884   0.356   0.526   9.978  0.0172 -0.9732  0.1008
 6131TIP3    H239885   0.492   0.581   9.940 -0.9810  0.8271 -0.9802
 6132TIP3   OH239886   5.689   3.772   2.653 -0.2559  0.4195  0.0053
 6132TIP3    H139887   5.671   3.753   2.745 -1.3715  1.0185 -0.0722
 6132TIP3    H239888   5.668   3.865   2.644  0.1076  0.4302 -0.7938
 6133TIP3   OH239889   2.258   1.807  14.155  0.7331  0.4309 -0.0710
 6133TIP3    H139890   2.286   1.779  14.068 -1.1619 -0.2783 -0.4834
 6133TIP3    H239891   2.338   1.841  14.195  2.0026 -0.7564 -1.4662
 6134TIP3   OH239892   5.231   5.349   0.310  0.2336 -0.2183 -0.2405
 6134TIP3    H139893   5.272   5.376   0.392  0.9552 -1.8651 -0.0323
 6134TIP3    H239894   5.303   5.346   0.247 -0.0605 -0.4320 -0.5724
 6135TIP3   OH239895   6.561   4.241  15.170 -0.2808 -0.6310  0.2452
 6135TIP3    H139896   6.562   4.281  15.257 -2.4646 -1.7231  0.8428
 6135TIP3    H239897   6.639   4.185  15.169  0.4363  0.3021  1.0079
 6136TIP3   OH239898   5.023   1.530  16.766 -0.6202  0.1577  0.1027
 6136TIP3    H139899   5.037   1.611  16.815  0.9742  1.4087 -2.2127
 6136TIP3    H239900   5.022   1.462  16.833  1.4514  1.7464  1.9301
 6137TIP3   OH239901   6.732   1.108  16.875 -0.3701  0.1343 -0.9754
 6137TIP3    H139902   6.765   1.018  16.874 -0.0890  0.2277 -2.2903
 6137TIP3    H239903   6.726   1.132  16.783 -0.5144  1.4452 -0.6463
 6138TIP3   OH239904   2.062   0.987  16.365  0.0346 -0.0135  0.1073
 6138TIP3    H139905   2.013   0.930  16.425 -1.6515 -0.1443 -1.3174
 6138TIP3    H239906   2.008   1.066  16.359 -0.1360 -0.2425 -1.6705
 6139TIP3   OH239907   5.643   2.642   0.831 -0.1580  0.2063  0.2965
 6139TIP3    H139908   5.563   2.606   0.793 -0.7409  1.0645  0.6746
 6139TIP3    H239909   5.684   2.689   0.758  1.4753 -2.5030 -0.6684
 6140TIP3   OH239910   0.524   2.942   5.197  0.0026  0.7210  0.1143
 6140TIP3    H139911   0.488   2.854   5.203  1.6361  0.1007  1.8079
 6140TIP3    H239912   0.485   2.988   5.272  2.0175  0.2561  1.5275
 6141TIP3   OH239913   3.573   2.775   1.096  0.0248 -0.5911  0.1160
 6141TIP3    H139914   3.562   2.685   1.066 -1.1325 -0.7176  0.8991
 6141TIP3    H239915   3.552   2.773   1.189  0.9953  0.3017  0.3720
 6142TIP3   OH239916   0.784   3.472  13.811 -0.6338  0.5160  0.0654
 6142TIP3    H139917   0.767   3.557  13.854 -0.6393  0.6979 -0.2936
 6142TIP3    H239918   0.786   3.493  13.718 -1.0425  0.0527 -0.0508
 6143TIP3   OH239919   3.908   2.418   2.244 -0.6651 -0.0615  0.1322
 6143TIP3    H139920   4.004   2.415   2.236 -0.5634 -1.7794  1.4734
 6143TIP3    H239921   3.879   2.332   2.213 -1.7623  0.3598 -0.0456
 6144TIP3   OH239922   5.578   6.725   6.638  0.4300  0.0719  0.0132
 6144TIP3    H139923   5.664   6.767   6.647  0.3500 -0.0604  1.6471
 6144TIP3    H239924   5.521   6.794   6.605  1.0880  0.2353 -0.8357
 6145TIP3   OH239925   6.416   0.233   0.386 -0.2250  0.4920  0.5517
 6145TIP3    H139926   6.374   0.191   0.461  0.8586  0.6267  1.2523
 6145TIP3    H239927   6.435   0.161   0.326 -3.2152  0.6207 -0.7427
 6146TIP3   OH239928   2.606   4.085  11.494 -0.8575 -0.2730 -0.0942
 6146TIP3    H139929   2.593   4.133  11.412 -0.2296 -0.2254 -0.1690
 6146TIP3    H239930   2.543   4.013  11.490 -0.2554 -0.7606 -1.0045
 6147TIP3   OH239931   6.110   0.887   2.119 -0.3306 -0.6639  0.5476
 6147TIP3    H139932   6.184   0.843   2.076 -0.8226 -0.6786 -0.3026
 6147TIP3    H239933   6.144   0.911   2.205  0.9709  0.1434 -0.1554
 6148TIP3   OH239934   1.652   0.127  17.160 -0.0731 -0.4397  0.1541
 6148TIP3    H139935   1.636   0.048  17.211  1.3902 -1.0584 -0.2901
 6148TIP3    H239936   1.565   0.167  17.150 -0.7332 -1.5990  1.0023
 6149TIP3   OH239937   4.398   5.637   3.550 -0.2388 -0.2293  0.3677
 6149TIP3    H139938   4.417   5.711   3.607 -0.4127  0.4409 -0.4346
 6149TIP3    H239939   4.338   5.582   3.600  0.8135 -0.4451  1.4374
 6150TIP3   OH239940   4.516   1.339  16.562 -0.3866  0.1575  0.2751
 6150TIP3    H139941   4.596   1.383  16.532  0.0750 -0.3616  0.7248
 6150TIP3    H239942   4.527   1.248  16.535 -0.5501 -0.0430  0.8732
 6151TIP3   OH239943   3.638   6.135   0.297 -0.7558 -0.0140 -0.7551
 6151TIP3    H139944   3.580   6.083   0.352  0.4527 -1.0031 -0.3658
 6151TIP3    H239945   3.659   6.078   0.223  0.4921 -0.0640 -0.3884
 6152TIP3   OH239946   5.448   2.818   2.513  0.3143 -0.7191  0.1602
 6152TIP3    H139947   5.524   2.815   2.571 -0.1018 -0.4948  0.7229
 6152TIP3    H239948   5.379   2.773   2.561 -0.1981 -0.0333  0.0783
 6153TIP3   OH239949   4.143   6.056   6.457  0.3131 -0.3641 -0.7729
 6153TIP3    H139950   4.066   6.107   6.430 -0.5551  0.9789  3.5496
 6153TIP3    H239951   4.214   6.121   6.461  0.7628 -0.8273 -1.1434
 6154TIP3   OH239952   3.136   4.082   2.223  0.6327 -0.4269 -0.1977
 6154TIP3    H139953   3.144   4.176   2.210 -0.8584 -0.0212  1.4027
 6154TIP3    H239954   3.225   4.048   2.213  1.6157  1.4727  1.3719
 6155TIP3   OH239955   0.126   0.171   0.917  0.2218  0.1035 -0.4785
 6155TIP3    H139956   0.064   0.143   0.850  0.1827 -0.5859 -0.1675
 6155TIP3    H239957   0.127   0.267   0.911 -0.3736  0.0868 -0.9265
 6156TIP3   OH239958   4.928   2.162   3.260  0.3928 -0.4744  0.2266
 6156TIP3    H139959   5.006   2.179   3.206 -1.3943  2.2818 -1.7289
 6156TIP3    H239960   4.936   2.222   3.333 -0.3238  0.5228 -0.4961
 6157TIP3   OH239961   5.614   5.743   0.870  0.0472  0.8463  0.5026
 6157TIP3    H139962   5.549   5.697   0.816  0.9760  1.3789 -1.1290
 6157TIP3    H239963   5.594   5.716   0.960 -0.6361 -1.2513 -0.2238
 6158TIP3   OH239964   0.846   4.916  13.012 -0.2370 -0.5557  0.3825
 6158TIP3    H139965   0.828   4.836  13.062  1.4872 -0.6918  0.8695
 6158TIP3    H239966   0.937   4.937  13.034 -0.2696  0.8467 -0.7147
 6159TIP3   OH239967   4.732   4.288   1.386 -0.0788 -0.4730  0.2560
 6159TIP3    H139968   4.777   4.333   1.457  0.0597 -2.1273  1.2644
 6159TIP3    H239969   4.801   4.243   1.338 -0.2959 -0.2728 -0.2443
 6160TIP3   OH239970   6.380   0.256   1.628  0.2920  0.0331  0.3197
 6160TIP3    H139971   6.374   0.256   1.532 -0.3857  0.8529  0.3504
 6160TIP3    H239972   6.451   0.196   1.647 -0.1942 -0.8989 -0.6671
 6161TIP3   OH239973   6.087   4.465  16.919 -0.3378 -0.2480 -0.2763
 6161TIP3    H139974   6.024   4.536  16.933 -1.4872 -1.2174 -0.4150
 6161TIP3    H239975   6.145   4.469  16.995 -1.1827  0.0371  0.3686
 6162TIP3   OH239976   6.023   4.274   1.515 -0.2761  0.1217  0.0287
 6162TIP3    H139977   6.080   4.343   1.481 -0.1221 -0.5741 -1.1645
 6162TIP3    H239978   5.936   4.314   1.520 -0.5642 -0.0815 -2.3658
 6163TIP3   OH239979   1.706   2.571  16.913 -0.4030  0.6352 -0.0025
 6163TIP3    H139980   1.663   2.487  16.926 -0.9170  0.9884  0.6504
 6163TIP3    H239981   1.664   2.630  16.975  3.0721  0.3185  3.0253
 6164TIP3   OH239982   6.098   2.250   5.931 -0.3150  0.0435 -0.2416
 6164TIP3    H139983   6.109   2.175   5.989 -0.4509 -0.5133 -0.9207
 6164TIP3    H239984   6.106   2.326   5.988  0.3585 -0.4751  0.3694
 6165TIP3   OH239985   3.048   3.885   2.485  0.4001  0.3672  0.5786
 6165TIP3    H139986   3.077   3.812   2.430 -0.0039 -1.1719  2.3346
 6165TIP3    H239987   3.128   3.933   2.504  0.6283  0.6141 -0.8531
 6166TIP3   OH239988   0.757   2.066  12.149 -0.0186 -0.2161 -0.0674
 6166TIP3    H139989   0.722   2.129  12.212  1.6423 -0.0681  0.7426
 6166TIP3    H239990   0.849   2.090  12.139 -0.0954 -0.5708 -2.1658
 6167TIP3   OH239991   4.258   1.510   0.646  0.3269 -0.3991  0.3175
 6167TIP3    H139992   4.335   1.562   0.667 -0.5870  1.4228 -0.6712
 6167TIP3    H239993   4.187   1.573   0.636 -0.7869 -1.7958 -1.2215
 6168TIP3   OH239994   2.320   2.992  13.807 -0.4397  0.4772  0.2623
 6168TIP3    H139995   2.351   2.937  13.736  1.6302  0.6764  0.9455
 6168TIP3    H239996   2.345   3.081  13.782 -2.9286  1.0569 -0.3984
 6169TIP3   OH239997   4.406   2.449  13.891 -0.0207  0.3411 -0.0036
 6169TIP3    H139998   4.377   2.534  13.859  0.8217  0.9131  0.6735
 6169TIP3    H239999   4.502   2.457  13.895 -0.0304  0.1126  1.9982
 6170TIP3   OH240000   5.479   6.503  17.143 -0.0268  0.1866  0.7827
 6170TIP3    H140001   5.559   6.473  17.100 -1.1980 -1.4669 -0.3184
 6170TIP3    H240002   5.499   6.498  17.237  0.7678 -1.4106  0.5579
 6171TIP3   OH240003   0.300   1.154   4.522  0.5597 -0.3945  0.4020
 6171TIP3    H140004   0.228   1.184   4.578 -1.3992  0.5655 -2.4190
 6171TIP3    H240005   0.268   1.072   4.485  0.2417  0.7086 -1.9130
 6172TIP3   OH240006   2.658   1.538  13.512 -0.4712  0.4436  0.2389
 6172TIP3    H140007   2.677   1.599  13.440  2.0215  0.0457  0.4666
 6172TIP3    H240008   2.574   1.568  13.547 -1.2739  1.2563 -2.1791
 6173TIP3   OH240009   1.029   5.644   1.841  0.4853 -0.1654  0.1153
 6173TIP3    H140010   1.084   5.658   1.919 -0.6706  0.3299  0.8713
 6173TIP3    H240011   1.085   5.597   1.781  1.9845  0.9289  0.5804
 6174TIP3   OH240012   5.489   1.713  15.536 -0.1156 -0.6966  0.0848
 6174TIP3    H140013   5.436   1.715  15.616  0.2237 -1.0056  0.3210
 6174TIP3    H240014   5.574   1.749  15.563 -0.0833 -0.5511 -0.2027
 6175TIP3   OH240015   1.960   4.956   2.928 -0.5925 -0.8056 -0.3135
 6175TIP3    H140016   2.023   5.014   2.969 -1.6259  1.8596 -2.2265
 6175TIP3    H240017   2.007   4.873   2.918  2.1921  0.6746 -0.5465
 6176TIP3   OH240018   1.522   6.671  16.997  0.0661  0.1689 -0.0428
 6176TIP3    H140019   1.601   6.654  16.945 -0.1813 -0.7161 -0.1330
 6176TIP3    H240020   1.556   6.695  17.083  0.4620  1.0412 -0.4317
 6177TIP3   OH240021   5.570   0.082   4.853  0.6728 -0.4871 -0.4650
 6177TIP3    H140022   5.526   0.045   4.929  2.4703  0.6283  1.1919
 6177TIP3    H240023   5.536   0.171   4.845  0.7065 -0.4998 -0.7931
 6178TIP3   OH240024   4.885   1.766  13.168 -0.1361 -0.3429 -0.1590
 6178TIP3    H140025   4.919   1.691  13.217  1.9710 -0.2521 -1.3778
 6178TIP3    H240026   4.892   1.840  13.229  0.2185 -0.6685  0.2014
 6179TIP3   OH240027   3.633   3.327   0.840 -0.4045 -0.3649  0.2454
 6179TIP3    H140028   3.655   3.243   0.798  0.8124  0.1280 -0.1454
 6179TIP3    H240029   3.717   3.371   0.850 -1.2407  2.1332 -2.4048
 6180TIP3   OH240030   5.416   0.110  10.793 -0.0866  0.3592 -0.5633
 6180TIP3    H140031   5.484   0.083  10.732  0.1492  2.7841 -1.4754
 6180TIP3    H240032   5.443   0.075  10.877  2.9619  2.1702 -0.6598
 6181TIP3   OH240033   0.359   6.414  16.587  1.0935 -0.2344 -0.1724
 6181TIP3    H140034   0.416   6.390  16.660  0.1900  1.1119  1.0403
 6181TIP3    H240035   0.270   6.410  16.623  0.4572 -1.4288 -1.7734
 6182TIP3   OH240036   1.866   2.782   5.255  0.5960  0.0108 -0.2496
 6182TIP3    H140037   1.922   2.845   5.301 -0.7227  0.8742  0.2209
 6182TIP3    H240038   1.790   2.833   5.227  0.5575 -0.8836 -1.8948
 6183TIP3   OH240039   1.746   5.498   5.588  0.2823  0.3132 -0.0640
 6183TIP3    H140040   1.763   5.588   5.614 -0.4982  1.0544 -1.8881
 6183TIP3    H240041   1.810   5.480   5.518 -2.2801  1.0976 -2.8444
 6184TIP3   OH240042   3.926   5.293  13.376 -0.6914 -0.1827 -0.6547
 6184TIP3    H140043   3.839   5.330  13.392 -1.1956 -0.0762 -3.2210
 6184TIP3    H240044   3.914   5.237  13.299  1.9176  1.4784 -2.4110
 6185TIP3   OH240045   6.553   3.487   2.104  0.1868 -0.8791  0.5823
 6185TIP3    H140046   6.471   3.491   2.154 -1.0230  0.6864 -1.3494
 6185TIP3    H240047   6.608   3.554   2.143 -1.1229  1.0301 -0.6371
 6186TIP3   OH240048   4.341   5.856  16.203  0.4839  0.1892 -0.1859
 6186TIP3    H140049   4.269   5.848  16.140  0.6189 -0.1780 -0.2999
 6186TIP3    H240050   4.416   5.882  16.150  0.2106  1.6104  0.0792
 6187TIP3   OH240051   0.372   4.744  16.992  0.1469  0.1102 -0.0009
 6187TIP3    H140052   0.457   4.768  17.028 -0.7839  2.9148  0.6456
 6187TIP3    H240053   0.336   4.682  17.055  0.9849  0.3016  0.6884
 6188TIP3   OH240054   3.275   2.052  16.650 -0.2600 -0.5304  0.5576
 6188TIP3    H140055   3.357   2.015  16.618 -0.0707 -0.6533  1.1732
 6188TIP3    H240056   3.273   2.141  16.614 -0.3174 -0.8435 -0.2343
 6189TIP3   OH240057   3.204   3.014   6.648  0.3401  0.6507  0.3579
 6189TIP3    H140058   3.201   3.083   6.715 -0.3573  1.0660 -0.0867
 6189TIP3    H240059   3.293   3.015   6.615  0.8617  0.0581  1.6686
 6190TIP3   OH240060   3.828   6.058  13.276 -0.0861  0.1816 -0.0013
 6190TIP3    H140061   3.906   6.007  13.256  0.3216  0.8623 -0.1856
 6190TIP3    H240062   3.769   6.041  13.203  1.1193  2.0960 -1.5318
 6191TIP3   OH240063   4.805   0.550  16.686  0.6997 -0.2210  0.0389
 6191TIP3    H140064   4.838   0.635  16.657 -2.3937  0.9774 -0.4075
 6191TIP3    H240065   4.754   0.570  16.765  2.5685 -2.2566  1.9052
 6192TIP3   OH240066   3.247   3.485  14.994 -0.1513  0.0186 -0.8290
 6192TIP3    H140067   3.237   3.395  15.025 -1.5570  0.3591 -0.2142
 6192TIP3    H240068   3.255   3.477  14.899  0.6425 -0.8035 -0.7080
 6193TIP3   OH240069   0.797   3.789  12.241  0.6533 -0.0260  0.1106
 6193TIP3    H140070   0.759   3.718  12.190 -0.2922 -0.3817  1.2923
 6193TIP3    H240071   0.814   3.858  12.176  0.3036 -0.7993 -0.8245
 6194TIP3   OH240072   0.754   2.120   1.150  0.3264 -0.3170  0.5723
 6194TIP3    H140073   0.731   2.148   1.061  1.1899 -0.0946  0.4153
 6194TIP3    H240074   0.692   2.050   1.169  0.3981 -0.6560 -0.3656
 6195TIP3   OH240075   0.812   1.651  14.982 -0.0494  0.0474  0.1342
 6195TIP3    H140076   0.872   1.581  14.955  0.0246 -0.7058  2.0892
 6195TIP3    H240077   0.857   1.732  14.957 -0.2236 -0.5419 -2.3425
 6196TIP3   OH240078   2.991   6.366  15.778  0.9048 -0.3181  0.8457
 6196TIP3    H140079   3.046   6.404  15.710  1.5776 -1.3335  0.8013
 6196TIP3    H240080   3.039   6.383  15.859  1.2697 -1.1380  0.8150
 6197TIP3   OH240081   4.372   6.750  16.521 -0.4248 -0.3210  0.1260
 6197TIP3    H140082   4.337   6.837  16.536  1.3091  0.8116 -1.8126
 6197TIP3    H240083   4.350   6.701  16.600 -2.6901  1.4229  0.6686
 6198TIP3   OH240084   2.405   3.968  16.724 -0.4333  0.1660 -0.2146
 6198TIP3    H140085   2.393   3.913  16.647  0.1454  2.5214 -2.0788
 6198TIP3    H240086   2.428   3.906  16.794  1.8962 -1.8628 -2.5683
 6199TIP3   OH240087   0.008   5.439  12.673  0.1433 -0.0667 -0.3992
 6199TIP3    H140088   0.046   5.423  12.760  1.6024  2.2620 -0.5191
 6199TIP3    H240089   0.073   5.405  12.612  0.5487  0.9752 -0.5732
 6200TIP3   OH240090   6.233   6.470  13.694  0.4373  0.4354 -0.4648
 6200TIP3    H140091   6.229   6.470  13.790 -0.6393 -0.9410 -0.4823
 6200TIP3    H240092   6.236   6.562  13.670 -0.9960  0.8581  0.8420
 6201TIP3   OH240093   5.816   6.419  16.885  0.0147 -0.1540 -0.4138
 6201TIP3    H140094   5.785   6.442  16.973 -3.3559 -2.2215 -0.8607
 6201TIP3    H240095   5.862   6.496  16.854 -0.7020  1.4848  2.3208
 6202TIP3   OH240096   1.974   3.421   1.197 -0.1973  0.0060 -0.1187
 6202TIP3    H140097   1.981   3.366   1.119 -2.3896 -1.9102  0.8860
 6202TIP3    H240098   2.046   3.394   1.253 -0.2996 -0.7011 -0.3205
 6203TIP3   OH240099   6.306   0.461  14.855 -0.4299 -0.2518  0.5810
 6203TIP3    H140100   6.269   0.411  14.928 -1.6838 -0.3452 -0.0907
 6203TIP3    H240101   6.230   0.504  14.815  0.3468  0.4396 -0.1815
 6204TIP3   OH240102   3.947   6.365   4.083 -0.5061  0.1407 -1.1049
 6204TIP3    H140103   3.905   6.446   4.053  0.3846 -0.1430 -3.2531
 6204TIP3    H240104   4.030   6.394   4.122 -0.9378  0.3760 -0.3397
 6205TIP3   OH240105   3.210   0.015  16.775 -0.4885  0.0631  0.4424
 6205TIP3    H140106   3.205  -0.002  16.681  1.9274  1.6797 -0.0853
 6205TIP3    H240107   3.229  -0.070  16.815  1.1192 -0.2507 -0.8852
 6206TIP3   OH240108   4.085   0.246  14.226 -0.5486  0.9162  0.1647
 6206TIP3    H140109   4.041   0.185  14.167  1.0958 -0.1709  0.0056
 6206TIP3    H240110   4.177   0.218  14.226 -0.2196  1.8466  2.0377
 6207TIP3   OH240111   4.650   1.136   3.982 -0.1345  0.2135  0.1071
 6207TIP3    H140112   4.661   1.089   3.900  0.4303 -0.5710  0.6187
 6207TIP3    H240113   4.577   1.196   3.966  0.4303  0.5990 -1.1915
 6208TIP3   OH240114   1.434   2.485  12.274  0.1292 -0.2534  0.1003
 6208TIP3    H140115   1.457   2.446  12.190  2.1045 -1.6396  1.2239
 6208TIP3    H240116   1.416   2.577  12.253  1.7794 -0.2814 -1.6632
 6209TIP3   OH240117   3.513   5.584  16.567 -0.5331 -0.5926 -0.2565
 6209TIP3    H140118   3.430   5.548  16.597 -0.8383 -1.0204 -1.5340
 6209TIP3    H240119   3.494   5.675  16.545 -0.7771 -0.7990 -0.9278
 6210TIP3   OH240120   5.164   5.204  13.719  0.3334 -0.2829 -0.5764
 6210TIP3    H140121   5.076   5.205  13.680  0.1779 -1.8561 -0.3233
 6210TIP3    H240122   5.219   5.164  13.653  0.3845 -1.4881  0.1752
 6211TIP3   OH240123   1.704   6.292   0.630 -0.3015 -0.1873 -0.2855
 6211TIP3    H140124   1.800   6.285   0.628 -0.2440  0.5346 -0.8039
 6211TIP3    H240125   1.686   6.353   0.701 -0.5209 -1.9773  1.2452
 6212TIP3   OH240126   1.396   2.668  14.365  0.2539  0.7375 -0.4926
 6212TIP3    H140127   1.308   2.661  14.404 -0.9673  1.1388 -2.9556
 6212TIP3    H240128   1.447   2.601  14.410 -1.8571 -0.8307 -0.2555
 6213TIP3   OH240129   4.590   1.312  11.594 -0.0575 -0.6324  0.3416
 6213TIP3    H140130   4.571   1.375  11.524 -0.4333  0.2827  1.2352
 6213TIP3    H240131   4.529   1.336  11.664 -0.6414 -2.4089  0.4779
 6214TIP3   OH240132   6.259   2.379   4.456 -0.2777 -0.1817  0.0174
 6214TIP3    H140133   6.343   2.370   4.502 -0.4736 -0.3933  0.3349
 6214TIP3    H240134   6.219   2.293   4.461 -1.5425  0.4603  1.8522
 6215TIP3   OH240135   4.312   2.429   0.450 -0.2210 -0.1846 -0.1671
 6215TIP3    H140136   4.303   2.498   0.383  1.9645  2.0366  1.6336
 6215TIP3    H240137   4.405   2.408   0.450 -0.2798 -0.5726  1.7292
 6216TIP3   OH240138   2.959   2.356   3.471 -0.3980 -0.4073 -0.2618
 6216TIP3    H140139   2.976   2.438   3.424  0.3421 -0.7078 -0.5288
 6216TIP3    H240140   3.039   2.340   3.520 -0.6413 -0.8364 -0.0033
 6217TIP3   OH240141   0.247   3.581  16.001  0.1668  0.0182  0.0402
 6217TIP3    H140142   0.277   3.668  15.974 -0.9528  0.2055 -0.6594
 6217TIP3    H240143   0.268   3.576  16.095  1.5272  0.4718 -0.2200
 6218TIP3   OH240144   4.272   6.455  16.420 -0.4628 -0.2438 -0.2372
 6218TIP3    H140145   4.308   6.381  16.370 -0.0483 -0.3613  0.2349
 6218TIP3    H240146   4.346   6.514  16.432 -0.6411 -0.0623 -0.0416
 6219TIP3   OH240147   1.452   6.079  11.265 -0.0015 -0.5246 -0.0749
 6219TIP3    H140148   1.532   6.075  11.213 -0.8039 -0.2327 -1.3747
 6219TIP3    H240149   1.396   6.142  11.219 -0.2158  0.8374  1.9192
 6220TIP3   OH240150   6.605   0.369   3.576  0.2758 -0.4612  0.0623
 6220TIP3    H140151   6.649   0.286   3.595  1.4300 -0.4809 -2.3389
 6220TIP3    H240152   6.528   0.345   3.523 -0.4402 -0.1178  0.9179
 6221TIP3   OH240153   1.667   5.031   6.717  0.3161 -0.0763 -0.8371
 6221TIP3    H140154   1.742   4.984   6.754  0.3697 -0.3180 -1.2517
 6221TIP3    H240155   1.594   5.009   6.775  0.7206  0.7937  0.0364
 6222TIP3   OH240156   4.380   2.994   2.212  0.3635 -0.0967 -0.0179
 6222TIP3    H140157   4.291   2.984   2.247  0.1490 -1.5814 -0.8961
 6222TIP3    H240158   4.390   3.089   2.199 -1.2306  0.0750 -0.2149
 6223TIP3   OH240159   2.902   3.088  11.128 -0.7290 -0.2306 -0.0929
 6223TIP3    H140160   2.994   3.062  11.138 -0.5286  0.0434 -1.0558
 6223TIP3    H240161   2.869   3.097  11.217 -0.3590 -2.1661  0.2683
 6224TIP3   OH240162   2.718   1.435  15.691 -0.0100  0.2163  0.3207
 6224TIP3    H140163   2.679   1.423  15.605  1.2327  4.5681 -1.1063
 6224TIP3    H240164   2.654   1.486  15.740 -0.0444 -0.8913  1.4946
 6225TIP3   OH240165   4.500   0.066  16.278 -0.1150 -0.4428 -0.1055
 6225TIP3    H140166   4.505   0.040  16.186 -0.1102 -0.7809 -0.0108
 6225TIP3    H240167   4.408   0.054  16.302 -0.4343  1.0171 -0.4586
 6226TIP3   OH240168   5.545   0.657   5.808 -0.4252 -0.6404  0.5651
 6226TIP3    H140169   5.487   0.671   5.733  0.0755  1.6725  0.5231
 6226TIP3    H240170   5.491   0.678   5.884 -0.0209  0.3477  0.5993
 6227TIP3   OH240171   2.723   1.208   2.632  0.2277 -0.5207  0.1880
 6227TIP3    H140172   2.795   1.270   2.631 -1.0903  1.0664 -1.1751
 6227TIP3    H240173   2.711   1.182   2.541 -0.3576 -1.4715  0.5141
 6228TIP3   OH240174   6.217   1.861   1.281 -0.5882  0.0519 -0.1737
 6228TIP3    H140175   6.229   1.912   1.361 -1.4523 -0.3815  0.2373
 6228TIP3    H240176   6.124   1.868   1.261 -0.2493  0.8036 -1.5882
 6229TIP3   OH240177   2.444   2.897   5.257 -0.3488 -0.3345  0.4399
 6229TIP3    H140178   2.428   2.884   5.163 -1.7989  1.8413  0.3192
 6229TIP3    H240179   2.363   2.867   5.299 -0.2847  0.0727  0.8624
 6230TIP3   OH240180   5.957   2.796   4.553  0.3680  0.0115 -0.7295
 6230TIP3    H140181   5.998   2.710   4.547 -0.1283 -0.2825 -0.0578
 6230TIP3    H240182   5.873   2.779   4.594  0.2869  0.8246 -0.5470
 6231TIP3   OH240183   3.891   6.308  14.620  0.5643 -0.1813 -0.5548
 6231TIP3    H140184   3.966   6.267  14.575  0.1137  0.4656 -1.9488
 6231TIP3    H240185   3.892   6.399  14.590  0.3465  0.3297  0.9245
 6232TIP3   OH240186   4.170   5.880  14.098  0.0280  0.5222  0.1443
 6232TIP3    H140187   4.232   5.928  14.152 -0.7927  1.7630  0.0304
 6232TIP3    H240188   4.183   5.915  14.009 -1.8420  1.9773  0.3627
 6233TIP3   OH240189   3.679   1.280  13.336  0.1051  0.2001 -0.3249
 6233TIP3    H140190   3.628   1.199  13.325  0.8315 -0.1183 -1.5788
 6233TIP3    H240191   3.768   1.250  13.353  0.6919  0.6663 -2.2792
 6234TIP3   OH240192   3.864   1.670   1.541 -0.1400  0.0067 -0.2173
 6234TIP3    H140193   3.949   1.639   1.511  0.0491  0.7939 -0.5245
 6234TIP3    H240194   3.810   1.673   1.462 -1.1249 -2.4662  0.2614
 6235TIP3   OH240195   2.083   1.860  15.394 -0.3236  0.3661 -0.0218
 6235TIP3    H140196   1.990   1.846  15.412  0.2087 -0.3555  2.5876
 6235TIP3    H240197   2.120   1.772  15.389  0.3880  0.6573 -0.0489
 6236TIP3   OH240198   1.676   0.263  13.253 -0.2864 -0.3079  0.0599
 6236TIP3    H140199   1.703   0.230  13.338 -0.7951 -0.2971  0.2279
 6236TIP3    H240200   1.606   0.205  13.225  1.4770 -1.8334 -1.4819
 6237TIP3   OH240201   6.800   2.511  13.531  0.0599 -0.7873 -0.0667
 6237TIP3    H140202   6.710   2.481  13.547  0.1987 -1.8742 -1.1913
 6237TIP3    H240203   6.829   2.460  13.456  2.0162 -1.2635  0.9469
 6238TIP3   OH240204   3.833   0.200  10.899 -0.2776  0.1958 -0.0531
 6238TIP3    H140205   3.914   0.150  10.892 -0.6805 -0.5304  0.3555
 6238TIP3    H240206   3.839   0.266  10.830  0.1134 -0.6423 -0.8376
 6239TIP3   OH240207   0.434   1.319   0.159  0.2077  0.0398  0.1652
 6239TIP3    H140208   0.492   1.259   0.112 -1.3375 -1.5047  0.1335
 6239TIP3    H240209   0.458   1.308   0.251  0.0682 -0.5190  0.1423
 6240TIP3   OH240210   3.771   3.388  11.623 -0.1974  0.3057 -0.0588
 6240TIP3    H140211   3.676   3.391  11.625 -0.2071  1.7518 -0.9351
 6240TIP3    H240212   3.793   3.349  11.539 -0.0053 -0.4722  0.3452
 6241TIP3   OH240213   5.114   6.325   5.140  0.3497 -0.2700 -0.2307
 6241TIP3    H140214   5.117   6.418   5.120  0.1912 -0.2535 -0.1784
 6241TIP3    H240215   5.046   6.317   5.207  1.1549 -0.2666  0.6178
 6242TIP3   OH240216   4.213   1.552   6.475 -0.1147  0.1389  0.2698
 6242TIP3    H140217   4.123   1.580   6.460 -0.2776 -0.0177  0.8917
 6242TIP3    H240218   4.205   1.464   6.512  0.2762  0.2420  0.6160
 6243TIP3   OH240219   5.379   2.866   3.938  0.1910  0.3392  0.4858
 6243TIP3    H140220   5.326   2.919   3.997 -0.6851  0.3586 -0.2869
 6243TIP3    H240221   5.464   2.858   3.981  1.1948  4.3573 -0.3744
 6244TIP3   OH240222   5.214   6.286   1.579 -0.2877 -0.0202  0.1698
 6244TIP3    H140223   5.183   6.369   1.542 -0.4373 -0.4686 -0.7313
 6244TIP3    H240224   5.307   6.283   1.555  0.0500  0.5049  1.3616
 6245TIP3   OH240225   5.227   2.320  14.905 -0.3355 -0.4439  1.0664
 6245TIP3    H140226   5.183   2.399  14.875  0.8393  0.4334  1.5874
 6245TIP3    H240227   5.156   2.265  14.939 -1.2367  0.1174  0.1610
 6246TIP3   OH240228   4.763   0.028  16.509  0.1169 -0.0390 -0.6705
 6246TIP3    H140229   4.823   0.051  16.438  1.3916  0.5830  0.5694
 6246TIP3    H240230   4.681   0.007  16.464  1.1209 -0.5260 -2.3915
 6247TIP3   OH240231   6.723   0.302   1.514 -0.6528 -0.2221  0.3050
 6247TIP3    H140232   6.719   0.207   1.526 -0.7854 -0.0402  2.0473
 6247TIP3    H240233   6.793   0.330   1.573 -0.8976  0.8014  0.1177
 6248TIP3   OH240234   3.439   1.751  16.553 -0.1057 -0.3971  0.0436
 6248TIP3    H140235   3.464   1.727  16.464 -1.1485  1.2030 -0.7128
 6248TIP3    H240236   3.522   1.775  16.595  0.2900 -0.3564 -0.7405
 6249TIP3   OH240237   6.731   4.014  15.225 -0.4220  0.3899 -0.0355
 6249TIP3    H140238   6.797   3.960  15.182 -0.0617 -0.0605  1.0637
 6249TIP3    H240239   6.677   3.952  15.273 -0.0710  0.9937  1.1599
 6250TIP3   OH240240   3.391   3.066  12.151 -0.4895  0.2141  0.5402
 6250TIP3    H140241   3.451   2.992  12.153 -0.7441  0.0088  0.5987
 6250TIP3    H240242   3.315   3.037  12.201 -1.8246 -0.5457 -1.7990
 6251TIP3   OH240243   6.582   3.777   0.674  0.0754 -0.2445 -0.1597
 6251TIP3    H140244   6.536   3.855   0.705  1.4749  0.3427  0.4953
 6251TIP3    H240245   6.516   3.730   0.622 -0.9793  1.0272 -0.0278
 6252TIP3   OH240246   4.978   5.431  12.414  0.3213  0.2175  0.4386
 6252TIP3    H140247   4.886   5.440  12.439  0.5884  0.1648  1.5069
 6252TIP3    H240248   4.990   5.338  12.397 -0.0629  0.3672 -0.7702
 6253TIP3   OH240249   3.982   4.036   0.267  0.0846 -0.4206 -0.1579
 6253TIP3    H140250   3.950   3.951   0.295  0.7674 -0.0793  1.8462
 6253TIP3    H240251   3.907   4.095   0.277  0.2367 -0.3626  0.7522
 6254TIP3   OH240252   1.101   4.824   5.542  0.4018 -0.0869 -0.7615
 6254TIP3    H140253   1.069   4.769   5.471  0.1921  0.3244 -0.9939
 6254TIP3    H240254   1.166   4.770   5.587  0.3821 -0.4306 -1.1348
 6255TIP3   OH240255   6.284   3.586  16.837  0.5732  0.1814 -0.6681
 6255TIP3    H140256   6.319   3.529  16.905  0.1050  0.6925  0.0297
 6255TIP3    H240257   6.292   3.674  16.874 -3.6398  0.2334  0.7076
 6256TIP3   OH240258   6.456   6.578  12.550 -0.4305  0.2776  0.5814
 6256TIP3    H140259   6.534   6.631  12.533 -0.0168 -1.1420 -2.8510
 6256TIP3    H240260   6.490   6.493  12.579 -0.7707  0.1739  0.6845
 6257TIP3   OH240261   3.510   6.137   4.636  0.4698  0.3360 -0.6574
 6257TIP3    H140262   3.465   6.191   4.700  0.2771  1.1008 -1.4167
 6257TIP3    H240263   3.581   6.194   4.603 -0.3567  0.5239 -2.2013
 6258TIP3   OH240264   4.546   6.711  12.258  0.4447  0.1267  0.6144
 6258TIP3    H140265   4.450   6.714  12.257  0.4294  0.9360 -1.8584
 6258TIP3    H240266   4.567   6.619  12.270 -0.8089 -0.8824 -3.4346
 6259TIP3   OH240267   3.569   5.974  15.959 -0.6162 -0.1360 -0.0429
 6259TIP3    H140268   3.524   5.988  15.876 -1.5312  0.6488  0.5500
 6259TIP3    H240269   3.550   5.883  15.983 -0.0838 -0.4614 -0.8265
 6260TIP3   OH240270   4.229   6.162  15.777 -0.0364 -0.0247 -0.0112
 6260TIP3    H140271   4.178   6.222  15.831  1.2778  0.7114  0.4608
 6260TIP3    H240272   4.204   6.074  15.808 -1.1857  0.3030  0.0191
 6261TIP3   OH240273   4.651   5.811   5.473  0.4694 -0.1003 -0.3749
 6261TIP3    H140274   4.728   5.756   5.460  1.2009  0.4811  1.1928
 6261TIP3    H240275   4.687   5.894   5.506 -0.8978 -0.4509  2.2286
 6262TIP3   OH240276   3.978   3.038   5.761  0.7626 -0.3403 -0.3098
 6262TIP3    H140277   3.996   3.132   5.754  2.2599 -0.5230  0.5080
 6262TIP3    H240278   3.900   3.024   5.708  2.0921  0.8958 -2.7748
 6263TIP3   OH240279   2.151   5.240  11.672  0.1733  0.3152 -0.2520
 6263TIP3    H140280   2.090   5.289  11.726 -0.2093  0.6447 -0.9742
 6263TIP3    H240281   2.128   5.148  11.686 -1.5252  0.4894 -1.7200
 6264TIP3   OH240282   4.070   5.417   4.889  0.3770  0.4644  0.0119
 6264TIP3    H140283   4.016   5.485   4.848  0.8010 -0.0957 -1.5460
 6264TIP3    H240284   4.107   5.459   4.966 -0.7856  1.4396  0.0747
 6265TIP3   OH240285   0.109   6.723  17.104  0.4053 -0.0382 -0.9367
 6265TIP3    H140286   0.091   6.642  17.056  0.0055  0.7894 -2.2474
 6265TIP3    H240287   0.084   6.704  17.194 -2.9475 -0.3524 -1.8108
 6266TIP3   OH240288   5.376   2.617   2.062 -0.2505 -0.0103  0.2614
 6266TIP3    H140289   5.394   2.560   2.137 -0.1418  0.4009  0.5530
 6266TIP3    H240290   5.360   2.557   1.989 -0.9542 -0.4354  0.7451
 6267TIP3   OH240291   4.441   0.769  15.884  0.2502  0.2744  0.2266
 6267TIP3    H140292   4.452   0.705  15.814 -0.1054 -0.3499  0.7221
 6267TIP3    H240293   4.346   0.776  15.895  0.2849 -1.1842  1.9912
 6268TIP3   OH240294   2.914   1.193  11.273 -0.3702  0.5381 -0.0510
 6268TIP3    H140295   2.949   1.258  11.334  1.2470  0.5519 -0.9590
 6268TIP3    H240296   2.969   1.116  11.286 -0.9574  0.0403 -0.4671
 6269TIP3   OH240297   2.221   4.269   5.210  0.0619 -0.0490  0.1337
 6269TIP3    H140298   2.141   4.217   5.216 -0.5620  0.7666 -0.7502
 6269TIP3    H240299   2.290   4.213   5.247 -0.2541 -2.1208 -2.1758
 6270TIP3   OH240300   5.901   6.240  13.167  0.2947 -0.5624  0.1455
 6270TIP3    H140301   5.894   6.272  13.078  0.9233  1.8220  0.8960
 6270TIP3    H240302   5.969   6.173  13.163  0.6522 -0.1537 -1.0686
 6271TIP3   OH240303   0.620   0.552   3.599  0.2066  0.0715 -0.4428
 6271TIP3    H140304   0.657   0.498   3.528  1.3643  0.4917 -0.1709
 6271TIP3    H240305   0.694   0.572   3.655 -0.3485  1.3519 -0.1405
 6272TIP3   OH240306   3.504   2.501  11.179  0.3677  0.1159  0.3086
 6272TIP3    H140307   3.414   2.512  11.147  0.7347  0.4565 -0.6427
 6272TIP3    H240308   3.493   2.472  11.270 -0.7084 -0.2026  0.1006
 6273TIP3   OH240309   3.506   0.409   2.980 -0.4065  0.0452  0.1142
 6273TIP3    H140310   3.511   0.317   3.003 -1.6281 -0.1565 -0.3467
 6273TIP3    H240311   3.535   0.413   2.888  1.7340  0.4536  0.7493
 6274TIP3   OH240312   4.692   3.801  17.100 -0.0092 -0.4035  0.3117
 6274TIP3    H140313   4.693   3.705  17.097 -2.3753 -0.5249  1.1412
 6274TIP3    H240314   4.732   3.823  17.184 -1.1034 -0.7897  0.9544
 6275TIP3   OH240315   1.172   4.095   5.124  0.3256  0.1235 -0.6054
 6275TIP3    H140316   1.129   4.012   5.145 -0.9632  0.9891  0.3766
 6275TIP3    H240317   1.265   4.079   5.142 -0.1462 -0.5451  1.6212
 6276TIP3   OH240318   5.948   4.626   1.318  0.1923  0.2365 -0.3972
 6276TIP3    H140319   5.941   4.585   1.404 -0.9715  1.4648  0.1282
 6276TIP3    H240320   5.984   4.713   1.336  0.0277  0.4697 -1.1686
 6277TIP3   OH240321   2.294   4.295   4.823 -0.4465  0.1762  0.5690
 6277TIP3    H140322   2.206   4.260   4.811 -1.1539  2.0117  0.1116
 6277TIP3    H240323   2.349   4.241   4.766 -1.6208  0.3187 -0.7612
 6278TIP3   OH240324   6.261   1.540   6.045 -0.1332  0.5496  0.4482
 6278TIP3    H140325   6.176   1.581   6.026 -0.2407  1.0902  1.9757
 6278TIP3    H240326   6.314   1.612   6.079  1.4791  0.5730 -1.9204
 6279TIP3   OH240327   6.338   0.940  14.607 -0.3869  0.1607  0.1265
 6279TIP3    H140328   6.336   0.875  14.677  2.7072 -0.9739 -0.6690
 6279TIP3    H240329   6.303   0.894  14.531  0.3154 -0.0541 -0.0681
 6280TIP3   OH240330   1.706   0.767   1.587  0.2853  0.0842  0.0244
 6280TIP3    H140331   1.782   0.749   1.644  0.7299  0.8841 -0.2918
 6280TIP3    H240332   1.737   0.836   1.528 -0.2900 -0.4842 -0.9608
 6281TIP3   OH240333   6.094   3.669  15.803  0.0069  0.0948 -0.1002
 6281TIP3    H140334   6.041   3.684  15.724 -0.0464 -0.0835 -0.0987
 6281TIP3    H240335   6.032   3.633  15.866  0.5360 -2.1156 -0.7512
 6282TIP3   OH240336   1.540   3.717  14.168 -0.2138  0.1470 -0.0629
 6282TIP3    H140337   1.586   3.798  14.148 -0.1854  0.4207  1.0745
 6282TIP3    H240338   1.501   3.690  14.084  1.5438  0.1854 -0.9227
 6283TIP3   OH240339   6.835   2.878   3.005 -0.2519  0.5726 -0.4896
 6283TIP3    H140340   6.922   2.898   2.973 -0.3527 -1.1189 -1.9706
 6283TIP3    H240341   6.790   2.963   3.008  0.5006  1.1038 -2.6486
 6284TIP3   OH240342   5.389   1.640  12.692  0.0023  0.4999 -0.3438
 6284TIP3    H140343   5.453   1.640  12.763 -0.1384 -1.2801 -0.1814
 6284TIP3    H240344   5.441   1.623  12.613 -0.0785  0.6553 -0.4316
 6285TIP3   OH240345   4.089   1.466   5.642  0.4686 -0.1831 -0.8327
 6285TIP3    H140346   4.050   1.469   5.729  1.0185 -0.7131 -0.5624
 6285TIP3    H240347   4.014   1.459   5.582  0.0810  0.3599 -0.4218
 6286TIP3   OH240348   2.684   4.050  13.453 -0.0882 -0.0948 -0.5315
 6286TIP3    H140349   2.641   4.108  13.516 -2.1947 -1.7428 -0.3372
 6286TIP3    H240350   2.624   3.976  13.444  1.4955 -1.2452 -2.3646
 6287TIP3   OH240351   5.597   5.368  12.637 -0.4082 -0.3132 -0.7893
 6287TIP3    H140352   5.599   5.328  12.724  2.6668  1.9562  0.3406
 6287TIP3    H240353   5.637   5.302  12.580  0.6487 -0.5561  0.1919
 6288TIP3   OH240354   4.378   2.657  13.391  0.1510  0.5439 -0.5451
 6288TIP3    H140355   4.427   2.647  13.309  1.4337  0.7590  0.1657
 6288TIP3    H240356   4.367   2.751  13.401 -2.0280  0.4595 -1.5834
 6289TIP3   OH240357   6.201   3.707   5.096 -0.6079  0.8060 -0.3939
 6289TIP3    H140358   6.178   3.676   5.183 -0.3489 -1.6526 -1.1152
 6289TIP3    H240359   6.291   3.739   5.104 -0.6598  0.7838  0.2762
 6290TIP3   OH240360   4.740   5.859  12.699  0.4230  0.0812  0.2285
 6290TIP3    H140361   4.684   5.933  12.726  0.3348  0.7241 -1.5672
 6290TIP3    H240362   4.723   5.791  12.764 -0.6467  1.1141  1.0750
 6291TIP3   OH240363   4.475   4.220   1.073  0.0762  0.0442  0.3572
 6291TIP3    H140364   4.477   4.256   1.162  0.3559  1.4052 -0.1680
 6291TIP3    H240365   4.551   4.260   1.030 -1.0092  0.7519 -0.9782
 6292TIP3   OH240366   5.835   6.495  15.706 -0.1427 -0.3538 -0.8817
 6292TIP3    H140367   5.741   6.486  15.719  0.1167 -0.5851  1.1629
 6292TIP3    H240368   5.843   6.551  15.629 -1.9836  1.3611  0.0838
 6293TIP3   OH240369   3.585   1.026   2.634  0.4170  0.2333  0.4739
 6293TIP3    H140370   3.582   0.931   2.647  1.9103  0.2903  1.5136
 6293TIP3    H240371   3.663   1.040   2.581 -0.5888  0.7909 -0.8973
 6294TIP3   OH240372   2.553   0.300  12.765 -0.0873 -0.2901  0.2875
 6294TIP3    H140373   2.622   0.366  12.772 -0.9080  0.4528  1.9806
 6294TIP3    H240374   2.587   0.236  12.703  2.4895 -0.3849  1.6571
 6295TIP3   OH240375   0.078   1.925  16.986  0.0621  0.3595  0.6664
 6295TIP3    H140376   0.124   2.009  16.989 -0.2941  0.6628 -1.0810
 6295TIP3    H240377   0.002   1.937  17.043  0.5947  0.8265  1.2988
 6296TIP3   OH240378   5.298   2.471  15.788  0.4568  0.4578  0.1216
 6296TIP3    H140379   5.239   2.473  15.863  0.0177 -2.1350 -0.0688
 6296TIP3    H240380   5.385   2.484  15.826  0.2014 -0.4434  1.0515
 6297TIP3   OH240381   1.123   6.154  10.389 -0.7694  0.2775 -0.1229
 6297TIP3    H140382   1.162   6.186  10.471  0.4880 -0.9163 -0.2264
 6297TIP3    H240383   1.029   6.170  10.400 -0.4748  1.4466  0.9473
 6298TIP3   OH240384   3.320   2.832   4.525  0.1675  0.5430 -0.1663
 6298TIP3    H140385   3.234   2.841   4.566  0.4455  0.0669  0.5378
 6298TIP3    H240386   3.352   2.746   4.552  0.8436  0.6844 -0.4690
 6299TIP3   OH240387   4.892   5.237   1.919  0.0902  0.3443  0.3613
 6299TIP3    H140388   4.955   5.281   1.862  1.6031 -1.8464  0.2016
 6299TIP3    H240389   4.819   5.214   1.862  1.5764 -1.8125 -0.8552
 6300TIP3   OH240390   5.516   4.818   2.985  0.4038  0.4768  0.1169
 6300TIP3    H140391   5.448   4.884   2.998 -1.8425 -1.2816 -1.9836
 6300TIP3    H240392   5.511   4.763   3.063  1.6702  2.1264  1.4465
 6301TIP3   OH240393   6.544   1.954  16.591 -0.1720  0.9592  0.0103
 6301TIP3    H140394   6.524   2.044  16.616  1.1515  1.8013 -1.7796
 6301TIP3    H240395   6.639   1.951  16.588 -0.0023 -1.3591  2.8335
 6302TIP3   OH240396   0.504   1.862  10.937  0.5838 -0.3451  0.0298
 6302TIP3    H140397   0.508   1.768  10.955  0.5435 -0.2489  0.5770
 6302TIP3    H240398   0.411   1.880  10.922  0.7704 -0.6690 -1.7179
 6303TIP3   OH240399   6.194   4.575   0.844  0.1099 -0.1148 -0.0490
 6303TIP3    H140400   6.252   4.504   0.818  1.6284  0.7723  0.8034
 6303TIP3    H240401   6.250   4.637   0.890 -1.3273  1.2617 -0.0535
 6304TIP3   OH240402   1.668   1.162  11.375  0.2609 -0.1559  0.3440
 6304TIP3    H140403   1.661   1.129  11.286  0.3871  1.3782 -0.2682
 6304TIP3    H240404   1.584   1.142  11.415 -0.9290  1.6831 -1.0711
 6305TIP3   OH240405   2.755   4.290  16.123  0.1599 -0.3166 -0.4631
 6305TIP3    H140406   2.729   4.370  16.169  0.5385 -0.3580 -0.1725
 6305TIP3    H240407   2.809   4.243  16.186 -2.9253 -2.5488  0.7473
 6306TIP3   OH240408   1.891   2.621  13.674 -0.6307 -0.3460 -0.0468
 6306TIP3    H140409   1.877   2.527  13.685  1.3836 -0.6452  0.2639
 6306TIP3    H240410   1.850   2.660  13.752 -0.4354 -1.0748  0.4364
 6307TIP3   OH240411   1.463   4.622   3.398 -0.3071  0.1922 -0.8855
 6307TIP3    H140412   1.533   4.682   3.374 -0.6796  1.4731  1.0133
 6307TIP3    H240413   1.496   4.535   3.374  2.1298  0.6994  0.3212
 6308TIP3   OH240414   4.871   6.065  15.455  0.3819  0.0679 -0.5817
 6308TIP3    H140415   4.966   6.056  15.444  0.3824 -2.5758  0.7837
 6308TIP3    H240416   4.862   6.109  15.539  0.4551 -1.5089  0.2860
 6309TIP3   OH240417   4.380   6.542   1.730  0.3458 -0.0772 -0.6847
 6309TIP3    H140418   4.292   6.561   1.699 -0.3393 -1.2804  0.3950
 6309TIP3    H240419   4.414   6.626   1.761 -1.0087  0.1607  0.2384
 6310TIP3   OH240420   3.178   4.712  17.064 -0.5735 -0.1760 -0.3426
 6310TIP3    H140421   3.139   4.690  16.979  0.7183  1.0689 -1.3019
 6310TIP3    H240422   3.272   4.715  17.048 -0.3776  1.3631  0.7948
 6311TIP3   OH240423   4.939   3.789  12.316  0.2221 -0.6110 -0.0090
 6311TIP3    H140424   4.853   3.747  12.322 -0.6297  1.2389  1.4899
 6311TIP3    H240425   4.921   3.882  12.324  2.0763  0.1438 -3.1228
 6312TIP3   OH240426   0.408   3.646   1.352  0.1600  0.4037 -1.0734
 6312TIP3    H140427   0.387   3.687   1.436  1.7047  2.0764 -1.4488
 6312TIP3    H240428   0.474   3.581   1.374 -0.4516 -0.1534 -0.8302
 6313TIP3   OH240429   1.523   6.157  17.178  0.4016  0.0413 -0.1526
 6313TIP3    H140430   1.573   6.082  17.210  2.3731  2.5654  3.4366
 6313TIP3    H240431   1.436   6.146  17.217  0.4455 -0.6770 -0.2349
 6314TIP3   OH240432   1.486   3.743  11.194  0.0200  0.1358  0.2013
 6314TIP3    H140433   1.523   3.820  11.237  0.7473  1.0844 -1.9637
 6314TIP3    H240434   1.539   3.670  11.225  0.4429  0.7608  0.9863
 6315TIP3   OH240435   3.362   6.287   0.286  0.4884  0.1084 -0.1834
 6315TIP3    H140436   3.388   6.243   0.205 -1.4827 -0.5863 -0.4999
 6315TIP3    H240437   3.271   6.260   0.300  0.8493 -0.0631  2.4536
 6316TIP3   OH240438   6.658   5.826   1.678  0.1171  0.0226  0.1288
 6316TIP3    H140439   6.621   5.745   1.714  0.2039  0.0778  0.3483
 6316TIP3    H240440   6.714   5.860   1.749  0.4842  0.0069 -0.1508
 6317TIP3   OH240441   2.039   5.262   4.839 -0.1178 -0.1160 -0.4604
 6317TIP3    H140442   1.962   5.207   4.825 -0.7986  0.6294  0.2268
 6317TIP3    H240443   2.088   5.257   4.757 -0.7640 -0.8164 -0.8097
 6318TIP3   OH240444   3.703   4.921   4.695  0.6413 -0.0496  0.1503
 6318TIP3    H140445   3.609   4.937   4.706  0.8653  2.1985 -0.7028
 6318TIP3    H240446   3.736   5.001   4.655  2.3723 -2.0116 -2.7014
 6319TIP3   OH240447   6.803   6.017  16.894  0.0157  0.0068  0.9747
 6319TIP3    H140448   6.754   5.939  16.868 -1.6278  0.9165  1.2280
 6319TIP3    H240449   6.871   5.984  16.953  0.0902 -1.3561  0.1618
 6320TIP3   OH240450   4.574   5.117  15.807  0.3565 -0.2324 -0.5621
 6320TIP3    H140451   4.562   5.176  15.881  0.1349 -0.3122 -0.5354
 6320TIP3    H240452   4.561   5.172  15.730 -1.6453 -0.6180 -0.5395
 6321TIP3   OH240453   5.932   6.505   3.004  0.0113 -0.2093  0.1834
 6321TIP3    H140454   5.922   6.419   2.963  0.4723 -0.1279 -0.1063
 6321TIP3    H240455   5.983   6.556   2.941  0.0374  0.1673  0.5057
 6322TIP3   OH240456   2.221   2.008  12.306 -0.1019  0.3651 -0.2451
 6322TIP3    H140457   2.211   2.052  12.391 -0.6552 -0.8118  0.3293
 6322TIP3    H240458   2.217   1.915  12.327  1.9783 -0.0075 -1.3111
 6323TIP3   OH240459   6.708   1.659  15.664  0.5451  0.4805 -0.4396
 6323TIP3    H140460   6.655   1.621  15.594  2.5791  1.5635 -2.6972
 6323TIP3    H240461   6.798   1.638  15.640  1.4137  2.4483  0.8769
 6324TIP3   OH240462   5.521   2.448   2.879 -0.2988  0.4206  0.5308
 6324TIP3    H140463   5.589   2.413   2.821  0.5199  1.0470  1.0938
 6324TIP3    H240464   5.556   2.438   2.967 -0.7720  1.0950  0.8109
 6325TIP3   OH240465   5.578   2.871   3.715  0.0293 -0.1062  0.2932
 6325TIP3    H140466   5.532   2.816   3.651  1.2315  0.0346 -0.7443
 6325TIP3    H240467   5.510   2.924   3.754 -0.5363  1.6655 -2.7442
 6326TIP3   OH240468   4.784   5.416   5.001  0.5372  0.1899 -0.3556
 6326TIP3    H140469   4.877   5.399   4.986  0.4425 -0.5094 -0.1726
 6326TIP3    H240470   4.748   5.332   5.030 -0.2562  0.3291 -0.9118
 6327TIP3   OH240471   3.991   5.141  11.351 -0.2638 -0.3929 -0.1149
 6327TIP3    H140472   4.048   5.091  11.409 -1.8541  0.7620  2.6454
 6327TIP3    H240473   3.904   5.102  11.364 -1.1150  1.5420  0.3153
 6328TIP3   OH240474   2.993   2.658   5.574 -0.3900  0.2488 -0.2727
 6328TIP3    H140475   2.952   2.588   5.523 -0.3356  0.8849 -1.1994
 6328TIP3    H240476   3.026   2.614   5.652  0.6397 -0.9659 -1.3656
 6329TIP3   OH240477   6.478   5.234  13.940  0.5212 -0.0191  0.1175
 6329TIP3    H140478   6.424   5.206  13.866  1.6080  0.3505 -0.8393
 6329TIP3    H240479   6.512   5.153  13.977  0.0149 -0.2009  0.1939
 6330TIP3   OH240480   5.124   2.512   2.345  0.3810  0.2159 -0.2237
 6330TIP3    H140481   5.209   2.554   2.361 -0.0505  1.5561 -1.2991
 6330TIP3    H240482   5.085   2.562   2.274 -2.1755  0.8978  1.5168
 6331TIP3   OH240483   2.502   2.076   5.126  0.0776  0.4445 -0.0942
 6331TIP3    H140484   2.533   2.036   5.207 -0.8309  0.8902  0.4939
 6331TIP3    H240485   2.422   2.027   5.104 -0.1012  0.8200 -0.2982
 6332TIP3   OH240486   3.841   2.044  16.155 -0.3113 -0.3373  0.0799
 6332TIP3    H140487   3.802   1.970  16.108  0.0920  0.2494 -1.2034
 6332TIP3    H240488   3.881   2.004  16.232  0.0962 -1.4976 -0.7122
 6333TIP3   OH240489   1.920   4.777  16.576 -0.3425  0.3159  0.0804
 6333TIP3    H140490   1.824   4.776  16.578 -0.3551  0.3067 -0.3895
 6333TIP3    H240491   1.945   4.836  16.647 -0.6978  0.2971  0.2210
 6334TIP3   OH240492   5.405   1.542   4.047  0.2688 -0.0720 -0.0753
 6334TIP3    H140493   5.367   1.462   4.082 -0.0926 -0.0884 -0.5032
 6334TIP3    H240494   5.385   1.609   4.113  1.4410 -0.5209  0.7743
 6335TIP3   OH240495   2.618   2.684   1.738 -0.1601 -0.5550  0.2959
 6335TIP3    H140496   2.623   2.589   1.725  0.2820 -0.2822 -1.8729
 6335TIP3    H240497   2.708   2.715   1.724 -0.6930  0.3913 -1.3054
 6336TIP3   OH240498   1.162   2.165   5.034  0.0324 -0.0335 -0.8076
 6336TIP3    H140499   1.094   2.208   4.982 -1.0940 -0.7740 -0.0104
 6336TIP3    H240500   1.232   2.146   4.972  0.4585  2.6194 -1.2599
 6337TIP3   OH240501   6.807   5.998  12.388  0.4028 -0.2177 -0.1051
 6337TIP3    H140502   6.842   6.006  12.476 -0.1019 -1.9940  0.2965
 6337TIP3    H240503   6.877   5.958  12.337 -0.0554 -1.2364  0.0425
 6338TIP3   OH240504   1.051   1.676   1.328  0.3497 -0.1096 -0.4217
 6338TIP3    H140505   1.089   1.662   1.240  0.6625 -1.1196 -0.1437
 6338TIP3    H240506   0.983   1.742   1.315  1.8053  1.3359 -1.0541
 6339TIP3   OH240507   0.832   4.850   5.277  0.7679  0.5262  0.0523
 6339TIP3    H140508   0.770   4.787   5.239  1.1782 -0.6277  1.2067
 6339TIP3    H240509   0.890   4.797   5.332  2.6562  1.6024 -0.7862
 6340TIP3   OH240510   2.397   2.472   5.263 -0.0759  0.0947 -0.0861
 6340TIP3    H140511   2.429   2.415   5.193 -0.2378 -1.2864  0.9285
 6340TIP3    H240512   2.474   2.523   5.289 -0.2293  1.3417 -1.8772
 6341TIP3   OH240513   1.283   1.330   0.442  0.1730 -0.1701  0.4750
 6341TIP3    H140514   1.359   1.314   0.386  0.6429 -0.2839  1.1189
 6341TIP3    H240515   1.263   1.423   0.430 -0.5700 -0.4800 -0.8719
 6342TIP3   OH240516   4.885   0.418  11.863  0.3434 -0.5202  0.0049
 6342TIP3    H140517   4.922   0.335  11.893 -1.1474 -1.4205 -0.4942
 6342TIP3    H240518   4.793   0.413  11.889  0.3130  1.1638  0.2974
 6343TIP3   OH240519   0.478   4.295  12.591  0.3474 -0.2613 -0.1732
 6343TIP3    H140520   0.417   4.363  12.620  0.1973 -0.2904 -0.4172
 6343TIP3    H240521   0.509   4.255  12.672 -3.5925 -3.5075  0.0081
 6344TIP3   OH240522   1.001   3.600   5.904  0.3969  0.1273  0.5228
 6344TIP3    H140523   1.072   3.652   5.941  0.9287 -0.9266  1.0577
 6344TIP3    H240524   1.005   3.517   5.952  0.2545 -0.7976 -0.9852
 6345TIP3   OH240525   4.792   0.832   4.639  0.1285  0.3464  1.0910
 6345TIP3    H140526   4.744   0.758   4.676 -1.6670  0.8241 -0.1669
 6345TIP3    H240527   4.772   0.830   4.546  1.4570  1.4226  0.7470
 6346TIP3   OH240528   4.938   4.279   2.465 -0.0487 -0.1144  0.6284
 6346TIP3    H140529   5.000   4.273   2.537 -0.5383  0.0492  1.0637
 6346TIP3    H240530   4.852   4.268   2.506 -0.2781 -0.9844 -0.0474
 6347TIP3   OH240531   1.195   3.181  11.247  0.2424  0.1452 -0.2167
 6347TIP3    H140532   1.240   3.119  11.305 -0.6533 -0.6196 -0.3146
 6347TIP3    H240533   1.220   3.153  11.159 -1.4560 -1.1646 -0.3395
 6348TIP3   OH240534   0.190   3.382  14.174  0.6721 -0.0818  0.1368
 6348TIP3    H140535   0.098   3.393  14.149  1.0340  1.9597 -0.4981
 6348TIP3    H240536   0.220   3.308  14.121 -0.3541 -0.1782 -0.3380
 6349TIP3   OH240537   4.233   5.421  13.218 -0.4777 -0.9411 -0.0377
 6349TIP3    H140538   4.241   5.412  13.313 -0.3843  0.7309  0.1331
 6349TIP3    H240539   4.187   5.342  13.190 -2.2418 -0.5692  1.6325
 6350TIP3   OH240540   3.970   1.523   4.723  0.3990  0.4531 -0.5664
 6350TIP3    H140541   3.933   1.435   4.718  3.2841 -0.9231  0.2223
 6350TIP3    H240542   3.914   1.570   4.785 -0.6169 -1.1407 -0.2275
 6351TIP3   OH240543   5.403   1.493   4.887  0.3567  0.5814 -0.1089
 6351TIP3    H140544   5.479   1.526   4.936  1.2975 -2.1967  0.5082
 6351TIP3    H240545   5.340   1.469   4.955 -0.4821  1.4587 -0.5563
 6352TIP3   OH240546   4.908   3.862  13.930 -0.3588 -0.2445  0.1776
 6352TIP3    H140547   4.991   3.884  13.889 -1.0383  0.2883 -0.9617
 6352TIP3    H240548   4.932   3.807  14.005  0.9879 -0.3020 -0.2692
 6353TIP3   OH240549   2.974   5.378   0.919 -0.1247  0.2778  0.0229
 6353TIP3    H140550   3.023   5.297   0.905  0.8347  0.7826  0.3710
 6353TIP3    H240551   3.038   5.438   0.957 -1.2255  0.7070  1.2488
 6354TIP3   OH240552   1.722   4.747   3.940  0.8984 -1.4792 -0.3599
 6354TIP3    H140553   1.665   4.757   4.016 -1.1326 -0.2403 -1.9254
 6354TIP3    H240554   1.678   4.683   3.884  0.8217 -0.3203 -1.7171
 6355TIP3   OH240555   2.303   2.531  13.028  0.5548  0.4728 -0.7270
 6355TIP3    H140556   2.253   2.456  13.061 -0.4209  1.6069  0.5045
 6355TIP3    H240557   2.241   2.604  13.030  0.9365  1.0019 -3.6217
 6356TIP3   OH240558   3.507   3.302   4.133  0.2770  0.7207  0.4195
 6356TIP3    H140559   3.528   3.393   4.154  2.7248  0.3850 -0.2406
 6356TIP3    H240560   3.566   3.280   4.060 -0.6801 -1.2218  0.1670
 6357TIP3   OH240561   4.824   4.004   3.205 -0.1745 -0.1341 -0.3333
 6357TIP3    H140562   4.880   4.034   3.133 -0.7612 -0.6865 -1.0380
 6357TIP3    H240563   4.783   3.924   3.172 -1.8685  0.5907 -0.0811
 6358TIP3   OH240564   4.995   3.971  11.946 -0.1229  0.0645 -0.5842
 6358TIP3    H140565   5.010   3.907  12.015 -0.6173 -0.9391 -1.3847
 6358TIP3    H240566   5.080   4.015  11.935 -0.2559  0.8711  1.2421
 6359TIP3   OH240567   3.915   5.902   0.727  0.2869 -0.6765  0.2073
 6359TIP3    H140568   3.925   5.823   0.781  1.7838 -0.4514  0.2952
 6359TIP3    H240569   3.979   5.963   0.761  0.1342  0.0699 -0.7887
 6360TIP3   OH240570   6.140   4.879  15.612  0.0890 -0.4134 -0.2267
 6360TIP3    H140571   6.217   4.822  15.609  0.3609 -0.1081  0.5411
 6360TIP3    H240572   6.098   4.868  15.527  0.0296 -1.9051 -0.0327
 6361TIP3   OH240573   3.252   0.699  15.678  0.1353 -0.0961  0.2893
 6361TIP3    H140574   3.245   0.767  15.744 -0.7838  0.4966 -0.4054
 6361TIP3    H240575   3.162   0.672  15.660  0.3553 -0.1628 -0.8001
 6362TIP3   OH240576   3.905   2.869   4.400 -0.0260  0.4937  0.3180
 6362TIP3    H140577   3.865   2.806   4.461 -0.8809  1.6514  0.9937
 6362TIP3    H240578   3.832   2.900   4.346  0.3193  1.1608  0.2290
 6363TIP3   OH240579   6.392   6.411   2.103 -0.3396  0.1776 -0.2882
 6363TIP3    H140580   6.469   6.465   2.085  1.7546 -1.6316  2.4901
 6363TIP3    H240581   6.358   6.446   2.186  1.1516 -2.6798  1.6542
 6364TIP3   OH240582   1.964   2.499   0.623 -0.1800  0.0612 -0.5219
 6364TIP3    H140583   2.055   2.483   0.598 -0.0509 -0.2363  0.1209
 6364TIP3    H240584   1.927   2.547   0.549  0.5876  0.4764 -0.6469
 6365TIP3   OH240585   5.140   4.995   0.103 -0.5754  0.8983 -0.0806
 6365TIP3    H140586   5.197   5.042   0.042  0.3980 -1.5669 -1.1956
 6365TIP3    H240587   5.055   4.993   0.060  0.1471 -0.9787 -1.5545
 6366TIP3   OH240588   4.707   6.831   5.078  0.6087 -0.0069 -0.0743
 6366TIP3    H140589   4.799   6.806   5.073  0.3381 -0.8161 -2.0767
 6366TIP3    H240590   4.702   6.914   5.030  0.1599 -0.4408 -0.7906
 6367TIP3   OH240591   5.984   5.606   1.785 -0.2065 -0.1207  0.3157
 6367TIP3    H140592   5.895   5.622   1.752 -0.2665 -0.0854  0.4913
 6367TIP3    H240593   6.004   5.517   1.758  0.4207  0.4976 -1.3294
 6368TIP3   OH240594   1.034   3.080   5.123 -0.1200  0.0093 -0.1833
 6368TIP3    H140595   0.960   3.127   5.164  0.9650  0.5422  1.2619
 6368TIP3    H240596   1.098   3.148   5.105  0.5875 -0.6247 -0.0980
 6369TIP3   OH240597   4.421   3.836   2.012  0.1533  0.7959 -0.3611
 6369TIP3    H140598   4.331   3.862   1.995 -0.0618  0.4851  0.2795
 6369TIP3    H240599   4.418   3.794   2.098  0.9596  1.0494 -0.2004
 6370TIP3   OH240600   1.242   0.971   2.094  0.4939  0.1313  0.0210
 6370TIP3    H140601   1.274   1.055   2.061  0.4934  1.4040  2.8935
 6370TIP3    H240602   1.176   0.944   2.031 -0.1903  2.7948 -0.5583
 6371TIP3   OH240603   5.242   5.007   2.668  0.0695  0.6982 -0.2844
 6371TIP3    H140604   5.153   5.035   2.687 -0.0516 -0.1263  0.4321
 6371TIP3    H240605   5.297   5.059   2.727 -0.2350 -1.2128  1.8260
 6372TIP3   OH240606   5.288   5.154  13.258  1.0647  0.7567  0.1304
 6372TIP3    H140607   5.282   5.065  13.223 -1.6470 -1.0422  4.3792
 6372TIP3    H240608   5.201   5.191  13.244  0.4595  0.6185  3.0131
 6373TIP3   OH240609   3.174   5.347   3.620 -0.2659 -0.0107  0.7044
 6373TIP3    H140610   3.140   5.424   3.574  2.1192  0.0785 -1.1231
 6373TIP3    H240611   3.182   5.281   3.551 -1.5530 -1.7078  2.1012
 6374TIP3   OH240612   1.556   1.469  14.697 -0.0188 -0.3484  0.4098
 6374TIP3    H140613   1.482   1.528  14.709 -0.5254 -1.0811  0.9419
 6374TIP3    H240614   1.550   1.407  14.769 -0.3180 -1.9119 -0.9005
 6375TIP3   OH240615   2.822   3.001   1.848  0.4323 -0.5076 -0.0842
 6375TIP3    H140616   2.832   3.064   1.919 -0.9173  0.3556 -0.6283
 6375TIP3    H240617   2.855   3.046   1.770 -0.8006 -0.3343 -0.5312
 6376TIP3   OH240618   0.632   4.674   4.666  0.2279  0.2909  0.2790
 6376TIP3    H140619   0.540   4.703   4.665  0.4583  1.1333 -2.3030
 6376TIP3    H240620   0.629   4.585   4.630  0.3191 -0.2015  1.4423
 6377TIP3   OH240621   6.121   6.342   3.995 -0.4147 -0.4178  0.4404
 6377TIP3    H140622   6.053   6.275   3.999 -0.3716 -0.4514  0.6320
 6377TIP3    H240623   6.155   6.348   4.084  0.0658 -0.6400  0.2773
 6378TIP3   OH240624   5.222   3.011   6.828 -0.8318 -0.0961 -0.0103
 6378TIP3    H140625   5.315   3.002   6.809 -1.3804 -1.2602 -2.4921
 6378TIP3    H240626   5.183   3.046   6.748 -2.4285  1.4126  1.3280
 6379TIP3   OH240627   5.836   2.177  14.134  0.0114 -0.2156 -0.0618
 6379TIP3    H140628   5.813   2.262  14.098 -1.5252  0.0511  1.4535
 6379TIP3    H240629   5.891   2.197  14.209 -1.2804 -0.4783  0.9767
 6380TIP3   OH240630   6.545   4.177  15.804  0.7775 -0.3908  0.2289
 6380TIP3    H140631   6.580   4.095  15.768 -0.1867  0.1046 -2.0067
 6380TIP3    H240632   6.622   4.226  15.832  1.4932 -1.3572  0.0013
 6381TIP3   OH240633   6.213   3.664  13.233 -0.0060  0.2836  0.3334
 6381TIP3    H140634   6.245   3.754  13.234 -0.9702  0.6367  0.2401
 6381TIP3    H240635   6.285   3.613  13.270 -0.4874  1.4272  3.1177
 6382TIP3   OH240636   6.366   2.664   1.387  0.1935 -0.1193 -0.1652
 6382TIP3    H140637   6.448   2.693   1.428 -0.3725  0.3101  0.6898
 6382TIP3    H240638   6.318   2.744   1.369 -0.8459 -0.4182  1.0844
 6383TIP3   OH240639   0.636   1.835  12.227 -0.2980  0.5358  1.0915
 6383TIP3    H140640   0.662   1.775  12.157 -0.7162 -0.5774  1.8638
 6383TIP3    H240641   0.657   1.921  12.193 -1.9182  0.1697 -1.0495
 6384TIP3   OH240642   0.238   2.575   4.992 -0.4717  0.0543 -0.2789
 6384TIP3    H140643   0.181   2.572   5.068  0.2369  0.6294  0.3006
 6384TIP3    H240644   0.316   2.526   5.018 -0.4773 -0.2809 -0.8655
 6385TIP3   OH240645   3.087   3.177   3.185 -0.1431  0.3240  0.7226
 6385TIP3    H140646   3.133   3.095   3.165 -0.7866 -0.3793  2.0031
 6385TIP3    H240647   3.153   3.232   3.225 -0.0851 -0.1848  1.3373
 6386TIP3   OH240648   2.335   1.550   1.038 -0.1828  0.0153 -0.1730
 6386TIP3    H140649   2.327   1.467   0.992 -1.1128  0.3097 -0.5791
 6386TIP3    H240650   2.413   1.540   1.093 -0.0489 -0.9677 -0.5182
 6387TIP3   OH240651   2.632   6.719  13.551  0.5394  0.3880  0.4154
 6387TIP3    H140652   2.713   6.762  13.578  0.0420  1.5292  0.1523
 6387TIP3    H240653   2.655   6.673  13.469  0.8362  0.9833  0.1625
 6388TIP3   OH240654   5.352   6.521   4.807  0.0347  0.3412 -0.4488
 6388TIP3    H140655   5.317   6.457   4.745  0.0290  1.1349 -1.2918
 6388TIP3    H240656   5.427   6.477   4.847  0.0476 -0.1887 -1.0379
 6389TIP3   OH240657   4.788   2.229  11.439  0.4477  0.7250 -0.4813
 6389TIP3    H140658   4.870   2.258  11.399  0.4493 -0.6407 -1.5360
 6389TIP3    H240659   4.720   2.265  11.382  0.4399 -0.8839 -1.5547
 6390TIP3   OH240660   4.804   0.238   4.969  0.3469 -0.0677 -0.0069
 6390TIP3    H140661   4.872   0.261   4.906  0.8621  0.8343  0.8522
 6390TIP3    H240662   4.846   0.249   5.054 -1.2369  1.7952  0.6105
 6391TIP3   OH240663   2.089   2.670   3.136 -0.0207 -0.5344  0.0639
 6391TIP3    H140664   2.108   2.754   3.095  2.2346 -1.4999 -0.9993
 6391TIP3    H240665   2.024   2.629   3.079 -0.5252  0.1164  0.1516
 6392TIP3   OH240666   4.238   5.935   0.218 -0.1754  0.3739  0.4481
 6392TIP3    H140667   4.258   5.930   0.125 -0.9019 -3.6065  0.3227
 6392TIP3    H240668   4.145   5.959   0.221 -0.4473 -0.5462  0.0159
 6393TIP3   OH240669   5.980   0.113   0.760 -0.0391  0.8497 -0.1603
 6393TIP3    H140670   6.030   0.101   0.680  0.0303 -0.5167  0.0559
 6393TIP3    H240671   5.891   0.084   0.737  0.2623 -0.7469  0.5549
 6394TIP3   OH240672   0.556   0.471  13.592 -0.1977 -0.1287 -0.2152
 6394TIP3    H140673   0.517   0.406  13.534 -0.6377  0.4388 -0.5736
 6394TIP3    H240674   0.499   0.473  13.669 -0.1200 -0.2465 -0.1543
 6395TIP3   OH240675   4.744   1.862   1.183  0.2299 -0.2807 -0.4666
 6395TIP3    H140676   4.783   1.793   1.129  0.6389 -0.8682  0.5612
 6395TIP3    H240677   4.780   1.848   1.270 -1.4267 -0.1384  0.2693
 6396TIP3   OH240678   6.620   4.305  14.726  0.1450  0.0437 -0.4994
 6396TIP3    H140679   6.689   4.331  14.788  0.4174  2.2722 -1.6417
 6396TIP3    H240680   6.539   4.316  14.776  0.5052 -1.9161  0.6288
 6397TIP3   OH240681   0.120   4.454  15.618  0.1446 -0.2768  0.0006
 6397TIP3    H140682   0.083   4.370  15.591  0.0696  0.0341 -0.8849
 6397TIP3    H240683   0.211   4.434  15.641  0.5244 -0.3928 -1.4816
 6398TIP3   OH240684   3.084   2.633  11.892 -0.6768  0.4421  0.2026
 6398TIP3    H140685   3.170   2.594  11.877 -0.8510 -0.0077  0.3497
 6398TIP3    H240686   3.022   2.571  11.853 -1.0553 -0.1433  1.6520
 6399TIP3   OH240687   2.258   5.527  16.170 -0.3293  0.3276 -0.2901
 6399TIP3    H140688   2.345   5.567  16.182  0.5591 -1.2773 -1.0777
 6399TIP3    H240689   2.254   5.459  16.238 -1.7747  1.5884  0.9580
 6400TIP3   OH240690   2.300   2.385   0.511 -0.1628 -0.1687  0.5209
 6400TIP3    H140691   2.300   2.314   0.447  2.0821  0.0236  0.2346
 6400TIP3    H240692   2.349   2.350   0.585 -0.9031  0.3521  1.2678
 6401TIP3   OH240693   6.295   1.197   4.961 -0.0268 -0.1206 -0.0590
 6401TIP3    H140694   6.296   1.275   5.017  0.1893  0.0534 -0.3058
 6401TIP3    H240695   6.229   1.216   4.894 -1.1321 -0.7925  0.7828
 6402TIP3   OH240696   3.451   1.729  13.627  0.4924  0.4396 -0.0250
 6402TIP3    H140697   3.543   1.710  13.645 -0.2427 -2.2044  1.3599
 6402TIP3    H240698   3.419   1.771  13.707  0.1528 -0.0132  0.0801
 6403TIP3   OH240699   4.682   3.903   2.868  0.2750  0.6012  0.3475
 6403TIP3    H140700   4.773   3.875   2.853  0.4567  1.6018 -0.5174
 6403TIP3    H240701   4.687   3.999   2.870 -0.9445  0.7153 -0.9228
 6404TIP3   OH240702   5.435   1.815  11.210  0.2272  0.5286 -0.2624
 6404TIP3    H140703   5.404   1.774  11.128 -1.6322 -0.9636  1.0943
 6404TIP3    H240704   5.530   1.808  11.205  0.0932 -1.3220 -1.4467
 6405TIP3   OH240705   6.561   4.333   1.187  0.6706 -0.1433  0.1742
 6405TIP3    H140706   6.507   4.290   1.121  1.0962 -0.5799  0.1044
 6405TIP3    H240707   6.537   4.290   1.269  0.2484  0.2980  0.2871
 6406TIP3   OH240708   4.234   5.269   6.309 -0.5667 -0.2026 -0.0451
 6406TIP3    H140709   4.250   5.360   6.334  0.4846 -0.0287 -1.2209
 6406TIP3    H240710   4.317   5.225   6.327 -0.8080 -0.7531 -0.2609
 6407TIP3   OH240711   0.103   3.028  13.103 -0.2870 -0.1803  0.4423
 6407TIP3    H140712   0.192   3.059  13.119 -0.7906  2.0855 -0.7419
 6407TIP3    H240713   0.112   2.966  13.031  0.2324  0.8371 -0.3955
 6408TIP3   OH240714   5.644   5.939   2.367  0.4336  0.7298 -0.7911
 6408TIP3    H140715   5.728   5.914   2.404 -0.1723  1.0911  0.9481
 6408TIP3    H240716   5.664   5.972   2.280  2.1603  1.3357 -0.1956
 6409TIP3   OH240717   6.508   5.067  14.487 -0.0780  0.0724 -0.3935
 6409TIP3    H140718   6.522   5.143  14.544  0.6674  0.1762 -0.7081
 6409TIP3    H240719   6.593   5.022  14.485 -0.5664 -0.9012 -0.0335
 6410TIP3   OH240720   0.189   2.415  14.058 -0.7550 -0.3182  0.2949
 6410TIP3    H140721   0.179   2.510  14.065 -0.9645 -0.3516  0.4638
 6410TIP3    H240722   0.275   2.403  14.018 -1.8447  0.0161 -2.3699
 6411TIP3   OH240723   1.700   1.422  10.596  0.7332 -0.3242 -0.9238
 6411TIP3    H140724   1.775   1.473  10.564 -0.1315  1.5086 -0.1771
 6411TIP3    H240725   1.650   1.484  10.648 -1.5432 -1.3977 -1.7222
 6412TIP3   OH240726   0.103   3.184  12.135  0.1865  0.0476  0.0413
 6412TIP3    H140727   0.160   3.261  12.144 -1.9602  1.6420  0.8596
 6412TIP3    H240728   0.130   3.127  12.207  0.9641  0.6228  0.2268
 6413TIP3   OH240729   0.546   6.458   5.028  0.6259  0.1057  0.9013
 6413TIP3    H140730   0.589   6.475   4.944  0.4601  0.0319  0.8017
 6413TIP3    H240731   0.544   6.363   5.035 -0.3466  0.0850  0.4803
 6414TIP3   OH240732   0.410   2.284  13.967 -0.0764  0.0163  0.4035
 6414TIP3    H140733   0.391   2.223  14.038 -1.3615 -0.5219 -0.3817
 6414TIP3    H240734   0.447   2.230  13.898 -0.2747  0.2904  0.0829
 6415TIP3   OH240735   1.964   5.464  12.231  0.1280 -0.0690  0.0300
 6415TIP3    H140736   2.028   5.533  12.214 -1.8831  1.9510  0.2580
 6415TIP3    H240737   1.953   5.464  12.326 -1.3286  0.7631 -0.0974
 6416TIP3   OH240738   3.402   1.584   3.851  0.0711 -0.1283  0.2577
 6416TIP3    H140739   3.398   1.668   3.897  0.2095 -0.0522  0.1305
 6416TIP3    H240740   3.333   1.531   3.892  0.1967 -0.0629  0.5542
 6417TIP3   OH240741   5.640   5.466   1.847 -0.2076 -0.1799 -0.6590
 6417TIP3    H140742   5.637   5.371   1.857 -0.4416 -0.1681 -0.6148
 6417TIP3    H240743   5.548   5.493   1.851 -0.0929  0.1235  0.0559
 6418TIP3   OH240744   3.484   6.400  16.642  0.5804  0.6508  0.0447
 6418TIP3    H140745   3.496   6.492  16.664 -0.1269  0.7575  0.0077
 6418TIP3    H240746   3.501   6.395  16.548 -3.2611  1.5180 -0.8396
 6419TIP3   OH240747   2.306   4.641  14.961  0.0614  0.4375 -0.2652
 6419TIP3    H140748   2.305   4.569  15.024  0.4682  0.9127  0.2953
 6419TIP3    H240749   2.298   4.599  14.875  1.6387 -0.3939 -0.0382
 6420TIP3   OH240750   5.688   6.365  14.892 -0.1847 -0.9341  0.6309
 6420TIP3    H140751   5.650   6.347  14.806 -1.7642 -2.8445  1.6300
 6420TIP3    H240752   5.622   6.416  14.938  0.6352  0.0503  0.7465
 6421TIP3   OH240753   3.965   2.789   1.392 -0.7357  0.0709 -0.0081
 6421TIP3    H140754   3.886   2.829   1.430 -1.0024 -1.0781  0.7069
 6421TIP3    H240755   4.028   2.861   1.387 -1.7977  1.0087 -0.5494
 6422TIP3   OH240756   4.237   5.143  13.117 -0.4523 -0.7279  0.0630
 6422TIP3    H140757   4.255   5.051  13.095 -0.2818 -0.7481  0.2856
 6422TIP3    H240758   4.317   5.190  13.092 -0.7483 -0.5549 -0.5732
 6423TIP3   OH240759   5.162   0.712  14.997 -0.4024  0.2615 -0.1534
 6423TIP3    H140760   5.083   0.720  14.943 -1.2648 -0.0293  1.0116
 6423TIP3    H240761   5.130   0.677  15.081  0.9212  0.4719  0.4681
 6424TIP3   OH240762   4.802   5.213  15.090  0.4953 -0.3172 -0.1744
 6424TIP3    H140763   4.713   5.189  15.064  0.5925  0.0122 -0.8159
 6424TIP3    H240764   4.846   5.129  15.104  0.1402 -0.4834 -0.0314
 6425TIP3   OH240765   3.190   5.385  10.954  0.3654 -0.1413  0.4838
 6425TIP3    H140766   3.264   5.421  10.904 -0.7744  0.2453 -0.9917
 6425TIP3    H240767   3.197   5.290  10.942  1.2517 -0.1872  1.2861
 6426TIP3   OH240768   4.255   6.099   4.949 -0.6390  0.3307  0.2432
 6426TIP3    H140769   4.237   6.027   5.009  0.2921 -0.4814 -0.4077
 6426TIP3    H240770   4.177   6.102   4.892 -0.4459 -0.5503 -0.0851
 6427TIP3   OH240771   6.131   3.757  16.661 -0.1163  0.0650 -0.4659
 6427TIP3    H140772   6.122   3.695  16.734  2.7226 -0.7549 -0.6959
 6427TIP3    H240773   6.090   3.713  16.587 -1.6164  0.2301  0.2157
 6428TIP3   OH240774   0.622   2.556  16.126 -0.3272  0.6050  0.0168
 6428TIP3    H140775   0.630   2.484  16.189  0.4744 -0.1950 -0.9710
 6428TIP3    H240776   0.528   2.571  16.120 -0.4142  0.8681  1.5775
 6429TIP3   OH240777   1.033   5.726  15.237 -0.1709  0.0534 -0.1645
 6429TIP3    H140778   0.982   5.686  15.307 -0.1713  0.0091 -0.1904
 6429TIP3    H240779   1.048   5.816  15.266 -0.0643 -0.0000 -0.0497
 6430TIP3   OH240780   6.841   3.779  15.046  0.1871  0.0600  0.0822
 6430TIP3    H140781   6.822   3.768  14.953  0.7426 -1.7334  0.1285
 6430TIP3    H240782   6.765   3.741  15.091  0.4477 -0.1615  0.3411
 6431TIP3   OH240783   6.795   0.648   0.873  0.7272  0.7758  0.4926
 6431TIP3    H140784   6.711   0.675   0.909  0.0681 -1.0983  0.4129
 6431TIP3    H240785   6.860   0.692   0.928 -0.2890  1.2681  1.3164
 6432TIP3   OH240786   5.575   2.804  16.863 -0.0271 -0.2985 -0.5138
 6432TIP3    H140787   5.504   2.742  16.848 -1.4413  1.3637 -0.9741
 6432TIP3    H240788   5.624   2.804  16.781  1.5344 -2.5712  0.2918
 6433TIP3   OH240789   2.623   5.565  15.876 -0.5429 -0.1431 -0.0370
 6433TIP3    H140790   2.646   5.619  15.800  0.3354 -0.2212  0.1659
 6433TIP3    H240791   2.706   5.527  15.904 -0.9340 -0.4692  0.6964
 6434TIP3   OH240792   1.434   1.982  11.094  0.1710 -0.5959 -0.0498
 6434TIP3    H140793   1.425   1.912  11.030  1.2854 -0.3661 -0.4659
 6434TIP3    H240794   1.507   1.955  11.150 -1.7672 -1.6119  2.2154
 6435TIP3   OH240795   5.624   4.224  13.098 -0.3192  0.2879 -0.4353
 6435TIP3    H140796   5.687   4.209  13.169 -0.0903  1.0665 -0.4545
 6435TIP3    H240797   5.644   4.313  13.068 -2.5269  1.2100  0.6827
 6436TIP3   OH240798   6.137   4.569   4.456  0.1835 -0.3988 -0.2366
 6436TIP3    H140799   6.044   4.583   4.476 -0.2662 -0.0919 -2.3283
 6436TIP3    H240800   6.163   4.647   4.406  2.2359  0.6186  2.1805
 6437TIP3   OH240801   0.794   6.307  13.212 -0.0423 -0.1420  0.4051
 6437TIP3    H140802   0.778   6.401  13.221 -1.1929 -0.3691  0.8175
 6437TIP3    H240803   0.708   6.269  13.193  0.4438 -1.0920  0.0082
 6438TIP3   OH240804   1.114   2.080  14.777  0.2370 -0.0510  0.3219
 6438TIP3    H140805   1.180   2.010  14.777  0.2057 -0.0825  0.9641
 6438TIP3    H240806   1.074   2.075  14.690 -0.4988 -1.5241  0.7129
 6439TIP3   OH240807   5.680   3.381  16.091  0.0660  0.1195  0.4818
 6439TIP3    H140808   5.732   3.320  16.144 -0.2614  0.7764  1.5728
 6439TIP3    H240809   5.601   3.397  16.142 -0.1365  0.9816 -0.0750
 6440TIP3   OH240810   6.256   0.017  12.418  0.3451 -0.4008  0.4025
 6440TIP3    H140811   6.281   0.081  12.485  0.9048  1.2399 -1.2951
 6440TIP3    H240812   6.174  -0.021  12.451 -0.5870  1.9656  0.9869
 6441TIP3   OH240813   6.431   6.628  14.919  0.0757  0.2382 -0.6363
 6441TIP3    H140814   6.483   6.643  14.997  0.5762  1.7996 -1.2419
 6441TIP3    H240815   6.366   6.562  14.946  1.9745 -1.3739  0.2821
 6442TIP3   OH240816   0.645   4.729   3.313 -0.3288 -0.3999  0.3296
 6442TIP3    H140817   0.593   4.804   3.342  0.5487  0.6108 -0.6221
 6442TIP3    H240818   0.695   4.703   3.390 -0.9755 -0.3130  0.7887
 6443TIP3   OH240819   2.693   2.543  12.078 -0.1708  0.1792  0.3022
 6443TIP3    H140820   2.715   2.628  12.040  0.7453  0.3427  1.1412
 6443TIP3    H240821   2.690   2.483  12.004 -0.3216  0.8498 -0.2414
 6444TIP3   OH240822   5.225   2.049  12.102 -0.1095  0.0147  0.3354
 6444TIP3    H140823   5.163   2.009  12.163 -0.7580 -0.1057 -0.3859
 6444TIP3    H240824   5.194   2.022  12.015  0.9371 -0.0141 -0.0352
 6445TIP3   OH240825   4.459   5.321   4.358  0.5312 -0.3269  0.2151
 6445TIP3    H140826   4.384   5.374   4.331 -0.6084 -1.1494  1.5913
 6445TIP3    H240827   4.533   5.359   4.312 -0.4851  1.4844 -0.0312
 6446TIP3   OH240828   6.193   5.300   2.844  0.1766  0.2824  0.0781
 6446TIP3    H140829   6.186   5.216   2.889  2.6375  0.0099  0.0929
 6446TIP3    H240830   6.154   5.284   2.758 -3.2465  0.4054  1.4696
 6447TIP3   OH240831   5.923   6.622   2.575 -0.8071  0.1939 -0.4706
 6447TIP3    H140832   5.914   6.568   2.497 -1.4710  0.2950 -0.4685
 6447TIP3    H240833   5.833   6.638   2.605 -0.5650  0.1736  0.3019
 6448TIP3   OH240834   2.937   5.502   6.393  0.2163  0.3610  0.3317
 6448TIP3    H140835   2.869   5.565   6.416 -0.4549 -0.3120  0.2053
 6448TIP3    H240836   3.001   5.509   6.463  0.5680  1.7772 -0.0930
 6449TIP3   OH240837   6.092   3.193  14.602  0.2386  0.2283 -0.2050
 6449TIP3    H140838   6.066   3.269  14.549  0.8500  0.3204 -0.3754
 6449TIP3    H240839   6.099   3.121  14.540 -2.3578 -0.5066  0.2240
 6450TIP3   OH240840   5.424   1.428   6.696  0.2813 -0.0441 -0.4919
 6450TIP3    H140841   5.400   1.472   6.614 -0.7966 -0.9398 -0.6797
 6450TIP3    H240842   5.454   1.499   6.753 -0.5195  0.8085 -1.1003
 6451TIP3   OH240843   5.214   5.345  14.387 -0.3170  0.1121  0.0101
 6451TIP3    H140844   5.211   5.438  14.412  1.8272  0.3759 -0.4798
 6451TIP3    H240845   5.135   5.307  14.425 -0.3757  1.7936  1.7157
 6452TIP3   OH240846   5.183   0.598   2.082  0.1723 -0.3368 -0.6375
 6452TIP3    H140847   5.211   0.534   2.148 -1.8278  0.6814  1.3466
 6452TIP3    H240848   5.166   0.546   2.004  1.7707 -1.7426 -0.1021
 6453TIP3   OH240849   1.108   1.205  16.666  0.3889  0.4526 -0.3611
 6453TIP3    H140850   1.021   1.183  16.635  1.0913 -2.2179 -0.6958
 6453TIP3    H240851   1.095   1.240  16.754 -0.9964 -0.0230 -0.3611
 6454TIP3   OH240852   3.097   0.329  15.681 -0.5000 -0.4528 -0.0049
 6454TIP3    H140853   3.097   0.286  15.767 -1.1889 -1.8122 -0.6472
 6454TIP3    H240854   3.009   0.366  15.673 -0.1606  0.4416  0.2106
 6455TIP3   OH240855   1.173   0.940   3.844 -0.3623 -0.3476  0.8136
 6455TIP3    H140856   1.222   0.972   3.920 -0.8387  1.9771  0.2172
 6455TIP3    H240857   1.201   0.995   3.772 -1.0156 -1.5500 -0.4051
 6456TIP3   OH240858   4.151   3.503  14.466  0.1779 -0.2216  0.0059
 6456TIP3    H140859   4.056   3.517  14.463  0.0062 -1.3270  0.0881
 6456TIP3    H240860   4.167   3.468  14.553  0.5210 -1.0199 -0.3750
 6457TIP3   OH240861   2.462   0.372   4.413 -0.1110 -0.4977 -0.2406
 6457TIP3    H140862   2.438   0.454   4.456 -0.5211 -1.1123  0.7486
 6457TIP3    H240863   2.386   0.315   4.426  1.2888 -2.0413  1.7376
 6458TIP3   OH240864   6.064   0.241   3.506 -0.4684  0.2275 -0.4005
 6458TIP3    H140865   6.058   0.230   3.601 -0.4096 -0.2972 -0.4549
 6458TIP3    H240866   6.143   0.193   3.481 -1.4607 -1.1780 -0.9398
 6459TIP3   OH240867   5.987   2.141   5.691 -0.3527  0.1536  0.3005
 6459TIP3    H140868   5.892   2.152   5.685 -0.4796 -0.8405  0.2332
 6459TIP3    H240869   6.011   2.186   5.771 -1.2228 -1.4686  1.5258
 6460TIP3   OH240870   5.393   0.084  12.830 -0.3729  0.6261  0.3924
 6460TIP3    H140871   5.367   0.174  12.851 -2.1998 -0.3634  2.8579
 6460TIP3    H240872   5.384   0.078  12.735 -0.6526  2.8836  0.2182
 6461TIP3   OH240873   5.744   0.255  12.367 -0.0348 -0.1533 -0.9400
 6461TIP3    H140874   5.834   0.250  12.400 -0.6088 -0.2482  0.7363
 6461TIP3    H240875   5.746   0.208  12.284  1.5922  0.4195 -1.2668
 6462TIP3   OH240876   1.754   5.503   3.209 -0.1906  0.9357 -0.2253
 6462TIP3    H140877   1.848   5.487   3.202  0.0081  1.4620  0.8889
 6462TIP3    H240878   1.746   5.598   3.199 -0.2988  1.2191  2.0202
 6463TIP3   OH240879   3.207   5.499  14.462 -0.3895 -0.1387 -0.5434
 6463TIP3    H140880   3.242   5.500  14.551  1.5145 -1.2233 -1.1973
 6463TIP3    H240881   3.274   5.543  14.409 -1.0906 -0.2304 -1.5423
 6464TIP3   OH240882   4.055   0.250  11.146 -0.1426 -0.2510  0.3652
 6464TIP3    H140883   4.093   0.163  11.137 -0.1748 -0.0151 -3.1027
 6464TIP3    H240884   4.049   0.284  11.057 -2.4127  2.3471  1.3469
 6465TIP3   OH240885   1.272   0.260  15.898 -0.1820 -0.0257  0.7602
 6465TIP3    H140886   1.210   0.282  15.829 -0.0929  0.8842  0.9517
 6465TIP3    H240887   1.337   0.205  15.856 -1.0229 -0.8732  0.5191
 6466TIP3   OH240888   2.222   5.503   0.935  0.2627 -0.3076  0.4531
 6466TIP3    H140889   2.135   5.481   0.902  0.9072 -3.0545  0.3461
 6466TIP3    H240890   2.251   5.425   0.981  2.0542  1.1060  1.9078
 6467TIP3   OH240891   2.985   5.726  14.386 -0.2790 -0.2022  0.4568
 6467TIP3    H140892   3.065   5.680  14.408 -0.0732  0.1112  0.3686
 6467TIP3    H240893   3.014   5.812  14.357 -0.7835  0.6782  2.4491
 6468TIP3   OH240894   5.600   1.583  14.114  0.5543  0.2221 -0.1451
 6468TIP3    H140895   5.665   1.577  14.043  0.6664 -0.2620 -0.0064
 6468TIP3    H240896   5.650   1.563  14.193  0.1493 -0.5898 -0.0856
 6469TIP3   OH240897   1.301   0.713   0.924  0.1518  0.4385  0.4462
 6469TIP3    H140898   1.384   0.755   0.946  0.2908  0.1145  0.5382
 6469TIP3    H240899   1.250   0.782   0.881  0.1629  0.8610  1.0954
 6470TIP3   OH240900   6.512   6.122   5.239 -0.1925 -0.6869 -0.0121
 6470TIP3    H140901   6.503   6.034   5.201 -1.8636  0.4067 -2.3828
 6470TIP3    H240902   6.561   6.172   5.173  0.6825  0.2306  1.2775
 6471TIP3   OH240903   0.363   1.707  14.002  0.2545 -0.2337 -0.0906
 6471TIP3    H140904   0.374   1.612  13.998 -0.4488 -0.3156 -0.1303
 6471TIP3    H240905   0.294   1.720  14.067 -1.9079  0.0745 -2.3241
 6472TIP3   OH240906   0.820   6.472  15.277  0.6026  0.2780  0.1105
 6472TIP3    H140907   0.774   6.444  15.197  0.0594 -0.5525  0.6905
 6472TIP3    H240908   0.901   6.421  15.276 -0.0128 -0.7549  0.7476
 6473TIP3   OH240909   1.883   6.648  14.588 -0.4820  0.7562  0.0493
 6473TIP3    H140910   1.862   6.555  14.581 -0.0653  0.5965  0.7842
 6473TIP3    H240911   1.960   6.659  14.533 -2.8708  1.5436 -3.4766
 6474TIP3   OH240912   5.378   2.677  11.653  0.3649 -0.1263  0.0720
 6474TIP3    H140913   5.442   2.626  11.703  0.1614 -0.5088 -0.0559
 6474TIP3    H240914   5.331   2.612  11.601 -1.2077 -0.0488  1.3397
 6475TIP3   OH240915   5.153   6.764  13.984  0.4666 -0.2618 -0.3652
 6475TIP3    H140916   5.075   6.748  14.037  0.5398  0.5840  0.0115
 6475TIP3    H240917   5.172   6.680  13.944  0.1871 -0.8253  0.6567
 6476TIP3   OH240918   0.432   6.716  15.158 -0.2952 -0.4267 -0.3005
 6476TIP3    H140919   0.458   6.806  15.142  1.2719 -0.9074 -0.7073
 6476TIP3    H240920   0.494   6.685  15.225 -0.5407 -1.3046 -0.4617
 6477TIP3   OH240921   6.094   6.193   0.994 -0.2304  0.1521  0.1380
 6477TIP3    H140922   6.012   6.180   1.040 -0.2551  1.0923  0.3951
 6477TIP3    H240923   6.116   6.285   1.010  0.8616 -0.0761  0.0643
 6478TIP3   OH240924   1.386   3.531  16.851  0.6970 -0.4887  0.2970
 6478TIP3    H140925   1.481   3.537  16.867  0.6497 -0.2167  0.4732
 6478TIP3    H240926   1.380   3.487  16.766  0.9941 -0.0627  0.0493
 6479TIP3   OH240927   2.904   4.121  16.355  0.3912  0.0447  0.7501
 6479TIP3    H140928   2.845   4.092  16.424  0.1214 -4.8212 -1.1944
 6479TIP3    H240929   2.985   4.143  16.401 -0.4568 -0.8448  2.7933
 6480TIP3   OH240930   6.010   4.229  13.154  0.8741 -0.4429  0.6616
 6480TIP3    H140931   6.016   4.196  13.243 -2.5719 -0.1893  1.1361
 6480TIP3    H240932   5.944   4.174  13.112  0.3630  1.1898 -0.8238
 6481TIP3   OH240933   5.570   0.298  13.066  0.1657  0.3407 -0.2784
 6481TIP3    H140934   5.653   0.335  13.035  1.5556 -1.5859  0.8566
 6481TIP3    H240935   5.554   0.342  13.149  0.3809  0.3114 -0.2199
 6482TIP3   OH240936   2.150   2.916   2.958  0.3992  0.1230 -1.0810
 6482TIP3    H140937   2.087   2.905   2.887  0.3195 -1.0762 -0.8454
 6482TIP3    H240938   2.095   2.935   3.035  0.3270 -0.8141 -0.8974
 6483TIP3   OH240939   6.503   2.635  14.746 -0.2623  0.4585  0.4933
 6483TIP3    H140940   6.460   2.574  14.687 -0.2356  0.4720  0.4588
 6483TIP3    H240941   6.534   2.582  14.818 -1.0683  0.5721  0.9343
 6484TIP3   OH240942   0.139   4.817   0.446  0.0269  0.4067  0.1628
 6484TIP3    H140943   0.177   4.755   0.508 -0.2346 -0.1836 -0.2590
 6484TIP3    H240944   0.149   4.903   0.488  3.4895  0.5519 -0.6620
 6485TIP3   OH240945   4.908   4.298  13.922 -0.1943 -0.1391 -0.8017
 6485TIP3    H140946   4.837   4.249  13.880 -1.1359 -1.2278  1.8731
 6485TIP3    H240947   4.877   4.389  13.921 -1.3355 -0.5022 -0.2897
 6486TIP3   OH240948   5.416   6.112   0.818  0.5500  0.0197  0.1901
 6486TIP3    H140949   5.405   6.029   0.771  1.1635 -0.0517  0.1686
 6486TIP3    H240950   5.336   6.161   0.798 -0.0587 -0.7727  0.6336
 6487TIP3   OH240951   4.032   1.453  15.014 -0.0519 -0.6051  0.3248
 6487TIP3    H140952   4.096   1.481  14.949  0.7335 -1.2943  0.7860
 6487TIP3    H240953   4.006   1.365  14.986 -0.2104 -0.6397  0.5763
 6488TIP3   OH240954   4.901   1.583   5.194  0.6447 -0.4841 -0.5242
 6488TIP3    H140955   4.920   1.621   5.279  1.9906  1.7840 -1.7426
 6488TIP3    H240956   4.842   1.645   5.152  2.2761 -0.0256 -2.2845
 6489TIP3   OH240957   4.011   2.779   6.255  0.0983  0.3755 -0.2208
 6489TIP3    H140958   4.055   2.722   6.318 -0.2390 -0.1783 -0.4708
 6489TIP3    H240959   4.063   2.773   6.176 -0.9034 -1.0374 -0.8231
 6490TIP3   OH240960   2.218   2.116   0.807 -0.0825 -0.1343  0.6519
 6490TIP3    H140961   2.144   2.178   0.803  0.2212  0.2433  0.8007
 6490TIP3    H240962   2.245   2.106   0.715 -0.9097 -1.0097  0.4849
 6491TIP3   OH240963   6.015   1.826  11.520 -0.1154  0.7080  0.8585
 6491TIP3    H140964   6.076   1.883  11.473 -1.5679  1.2876 -0.3936
 6491TIP3    H240965   5.929   1.845  11.481 -0.8403 -1.4018  1.3104
 6492TIP3   OH240966   6.063   1.484  15.488 -0.4229  0.0906  0.3438
 6492TIP3    H140967   6.075   1.554  15.552  0.9718 -0.8755  1.2043
 6492TIP3    H240968   6.123   1.506  15.417 -0.1295 -0.1186  0.5239
 6493TIP3   OH240969   6.294   6.040  16.449  0.4564  0.4981 -0.1907
 6493TIP3    H140970   6.240   6.057  16.371  0.7302 -0.5345 -0.6230
 6493TIP3    H240971   6.373   5.999  16.414 -0.0686 -1.4009  0.7389
 6494TIP3   OH240972   3.278   1.048   1.047 -0.4737 -0.5758 -0.0955
 6494TIP3    H140973   3.324   0.971   1.078 -1.4988 -0.6223  1.4712
 6494TIP3    H240974   3.189   1.017   1.027 -0.4550 -0.0983 -0.9638
 6495TIP3   OH240975   2.574   4.768  12.934 -0.2325 -0.1148  0.1496
 6495TIP3    H140976   2.507   4.833  12.913 -0.3847 -0.1472  0.5298
 6495TIP3    H240977   2.533   4.684  12.913  0.1248 -0.0649 -0.7701
 6496TIP3   OH240978   1.830   2.738  16.433 -0.3702 -0.1369  0.2089
 6496TIP3    H140979   1.772   2.705  16.502 -0.9975 -0.7974 -0.6033
 6496TIP3    H240980   1.782   2.812  16.397 -0.3248 -0.1632  0.0963
 6497TIP3   OH240981   1.967   1.259   3.761 -0.6316  0.4566  0.3344
 6497TIP3    H140982   1.924   1.264   3.675  0.4062 -0.1703 -0.2480
 6497TIP3    H240983   1.976   1.350   3.789 -0.8330  0.6765 -0.2989
 6498TIP3   OH240984   1.623   3.524  15.670 -0.3369  0.2256 -0.5051
 6498TIP3    H140985   1.584   3.600  15.625  1.3506  1.0496 -0.6691
 6498TIP3    H240986   1.628   3.551  15.762  2.6939  1.5373 -0.9060
 6499TIP3   OH240987   1.482   1.833  12.837 -0.0859 -0.2237 -0.2092
 6499TIP3    H140988   1.569   1.857  12.868 -0.5784 -0.6484  1.6377
 6499TIP3    H240989   1.449   1.774  12.905 -1.3703 -0.9837 -1.4546
 6500TIP3   OH240990   2.335   5.048   5.320 -0.0577  0.2923  0.1593
 6500TIP3    H140991   2.427   5.071   5.307 -0.4152  1.3409 -0.7632
 6500TIP3    H240992   2.331   4.953   5.310  0.8116  0.3254 -0.6049
 6501TIP3   OH240993   2.703   6.012  11.754 -0.1881  0.7934 -0.2945
 6501TIP3    H140994   2.763   5.978  11.689 -0.6627 -0.9737  0.1436
 6501TIP3    H240995   2.737   6.099  11.775  0.9044  0.7267 -1.6713
 6502TIP3   OH240996   0.718   2.863  12.779  0.6369 -0.4692 -0.5868
 6502TIP3    H140997   0.624   2.875  12.793  0.5076  2.8338 -3.2007
 6502TIP3    H240998   0.759   2.929  12.835  1.5898 -2.2876  1.0155
 6503TIP3   OH240999   4.884   0.746  13.480  0.0178 -0.4200  0.1016
 6503TIP3    H141000   4.862   0.671  13.424 -0.1008 -2.2477  2.4347
 6503TIP3    H241001   4.977   0.763  13.461 -0.0718 -0.8474 -0.7760
 6504TIP3   OH241002   4.894   4.434  14.932  0.1259 -0.2772 -0.3381
 6504TIP3    H141003   4.924   4.344  14.918  1.2370 -0.3027  1.9045
 6504TIP3    H241004   4.882   4.441  15.026 -2.6109  1.1479 -0.7084
 6505TIP3   OH241005   3.727   4.730   2.593 -0.0633 -0.2722 -0.6364
 6505TIP3    H141006   3.704   4.757   2.504  1.0932 -1.3606 -1.2795
 6505TIP3    H241007   3.765   4.809   2.632 -1.2196  0.4238 -0.8355
 6506TIP3   OH241008   4.642   1.786  13.616 -0.0622 -0.2050 -0.1253
 6506TIP3    H141009   4.711   1.743  13.566  0.4359 -0.4994  0.7821
 6506TIP3    H241010   4.685   1.860  13.658  0.0637 -1.1551  1.5246
 6507TIP3   OH241011   1.741   3.745   5.129  0.1432 -0.0618 -0.3204
 6507TIP3    H141012   1.689   3.816   5.091  0.3434 -1.0182 -2.5597
 6507TIP3    H241013   1.676   3.682   5.160 -0.0421  1.1370  1.9378
 6508TIP3   OH241014   6.536   6.554  14.662  0.3003 -0.5979  0.3130
 6508TIP3    H141015   6.463   6.525  14.608  0.6369  1.0759 -1.1320
 6508TIP3    H241016   6.496   6.580  14.745 -1.0586  1.6331 -0.9192
 6509TIP3   OH241017   2.422   5.907  15.499  0.0072  0.2063 -0.3817
 6509TIP3    H141018   2.363   5.832  15.503  0.7052 -0.3153  0.2509
 6509TIP3    H241019   2.457   5.905  15.410  0.9101 -0.9138 -0.0138
 6510TIP3   OH241020   1.242   4.530   4.403  0.3846 -0.2328  0.9024
 6510TIP3    H141021   1.248   4.601   4.338  0.7714 -0.8954  0.1902
 6510TIP3    H241022   1.240   4.575   4.487  3.2912  0.5944  0.6507
 6511TIP3   OH241023   1.833   2.036   0.718 -0.5072  0.3868 -0.8260
 6511TIP3    H141024   1.812   2.129   0.722 -0.1239  0.4403  0.1007
 6511TIP3    H241025   1.748   1.992   0.728 -0.4567  0.6280  0.8642
 6512TIP3   OH241026   5.744   2.965  14.408 -0.1106 -0.3474 -0.0162
 6512TIP3    H141027   5.679   3.016  14.359 -0.2397 -0.6339 -0.1466
 6512TIP3    H241028   5.692   2.913  14.469  0.0759  0.3094  0.7153
 6513TIP3   OH241029   0.672   5.775   1.234  0.3777  0.5353  0.1106
 6513TIP3    H141030   0.757   5.739   1.258 -0.1712 -0.3496  0.7692
 6513TIP3    H241031   0.613   5.751   1.306 -0.4507  1.0627 -0.3648
 6514TIP3   OH241032   2.788   2.141  16.735  0.5835  0.2512  0.1622
 6514TIP3    H141033   2.845   2.218  16.737  1.6988 -0.4031 -2.3080
 6514TIP3    H241034   2.841   2.073  16.694 -1.2005 -1.0947 -0.0451
 6515TIP3   OH241035   3.297   6.813   1.854  0.6025  0.0479 -0.5318
 6515TIP3    H141036   3.283   6.857   1.938 -1.1103 -2.1010  0.3909
 6515TIP3    H241037   3.254   6.870   1.790  1.9832  1.7405 -0.0510
 6516TIP3   OH241038   6.739   1.145  10.172 -0.1350  0.5655 -0.7712
 6516TIP3    H141039   6.766   1.168  10.083  0.1840 -1.9827 -1.3877
 6516TIP3    H241040   6.664   1.088  10.161  0.8701 -1.0991  0.4735
 6517TIP3   OH241041   2.944   0.940  12.505 -0.1409 -0.1937 -0.5125
 6517TIP3    H141042   2.848   0.937  12.496 -0.1502  1.3491 -1.3457
 6517TIP3    H241043   2.973   0.989  12.428  1.1409  0.9944  0.6630
 6518TIP3   OH241044   4.908   5.704   4.500  0.6150 -0.4575  0.3060
 6518TIP3    H141045   4.939   5.632   4.555 -0.6928 -3.7447 -2.9061
 6518TIP3    H241046   4.828   5.735   4.543  1.8790  0.1070  2.4172
 6519TIP3   OH241047   1.322   0.536  11.342 -0.2229 -0.2485 -0.6469
 6519TIP3    H141048   1.236   0.578  11.340 -0.1319  0.1841  1.4713
 6519TIP3    H241049   1.379   0.597  11.295 -0.5993  0.8015  0.1930
 6520TIP3   OH241050   4.069   6.169  16.435 -0.5134 -0.3310 -0.5241
 6520TIP3    H141051   4.107   6.167  16.522 -0.6285  0.5931 -0.4431
 6520TIP3    H241052   3.982   6.206  16.447 -0.1551  0.7558 -1.1504
 6521TIP3   OH241053   1.648   4.031   3.429 -0.2764 -0.6872  0.2006
 6521TIP3    H141054   1.669   4.045   3.337  0.4661 -1.6476  0.2040
 6521TIP3    H241055   1.730   4.049   3.476 -0.8546  0.5476  0.7614
 6522TIP3   OH241056   2.453   4.835   3.700  0.4644 -0.1648  0.2131
 6522TIP3    H141057   2.389   4.765   3.698  0.4952 -0.1759 -0.6945
 6522TIP3    H241058   2.525   4.804   3.644  0.5555  0.5109 -0.0566
 6523TIP3   OH241059   0.920   6.727  15.337  0.5739  0.8766  0.2548
 6523TIP3    H141060   0.834   6.756  15.368  0.3433 -0.9359  1.4274
 6523TIP3    H241061   0.905   6.638  15.305  1.8940  0.7650 -0.1132
 6524TIP3   OH241062   2.299   4.588   2.962 -0.2549  0.6511 -0.0583
 6524TIP3    H141063   2.375   4.622   3.010 -1.2457 -0.1745  2.1875
 6524TIP3    H241064   2.231   4.655   2.974 -0.9011 -0.1426  0.8058
 6525TIP3   OH241065   6.696   2.133  15.335 -0.0905 -0.2290  0.3635
 6525TIP3    H141066   6.679   2.053  15.385  0.0124 -1.2627 -1.1844
 6525TIP3    H241067   6.616   2.184  15.342 -0.6239 -1.0481  0.3650
 6526TIP3   OH241068   5.810   0.671   1.256  0.4006 -0.0618 -0.2575
 6526TIP3    H141069   5.798   0.701   1.166  1.3748  0.0829 -0.3466
 6526TIP3    H241070   5.858   0.742   1.299  1.6332 -0.9227 -0.1415
 6527TIP3   OH241071   0.687   1.838  10.744  0.1975  0.5126 -0.2050
 6527TIP3    H141072   0.689   1.922  10.699  0.7555  0.3915 -0.4068
 6527TIP3    H241073   0.644   1.857  10.828  1.0172  1.1596  0.0801
 6528TIP3   OH241074   0.359   2.113  11.623  0.2183  0.1539  0.0921
 6528TIP3    H141075   0.368   2.176  11.552  0.5516 -0.7250 -0.6586
 6528TIP3    H241076   0.336   2.031  11.580 -1.0490 -0.0582  1.1231
 6529TIP3   OH241077   6.466   5.395  14.681 -0.1707  0.6991  0.4556
 6529TIP3    H141078   6.419   5.435  14.607 -0.3364 -2.8836 -1.6066
 6529TIP3    H241079   6.549   5.367  14.644 -0.5119 -1.7459  1.3659
 6530TIP3   OH241080   2.277   5.054  15.346 -0.4212 -0.4604  0.2311
 6530TIP3    H141081   2.288   5.133  15.398 -0.6672 -2.1744  3.0585
 6530TIP3    H241082   2.321   4.986  15.395 -3.2253 -2.8134 -0.2171
 6531TIP3   OH241083   6.169   6.033  12.757 -0.1813 -0.2938  0.4049
 6531TIP3    H141084   6.103   6.021  12.826  0.0368  1.0698  0.8824
 6531TIP3    H241085   6.211   5.947  12.749 -3.5235 -1.9323 -1.5643
 6532TIP3   OH241086   5.877   0.991  11.389 -0.5390  0.4271 -0.3894
 6532TIP3    H141087   5.820   0.927  11.347  0.4575  0.3106 -1.6427
 6532TIP3    H241088   5.936   1.020  11.319  3.2742 -2.0264  1.4900
 6533TIP3   OH241089   4.616   2.784  14.735 -0.1032  0.3228  0.0717
 6533TIP3    H141090   4.636   2.690  14.738 -1.1500  0.1013  0.7911
 6533TIP3    H241091   4.661   2.816  14.657 -1.2779 -1.1658 -1.2869
 6534TIP3   OH241092   2.237   4.187   2.501 -0.1371  0.2589 -0.1763
 6534TIP3    H141093   2.250   4.268   2.550 -0.2077 -0.7584  1.5838
 6534TIP3    H241094   2.294   4.123   2.544  0.9832 -0.3440 -2.3849
 6535TIP3   OH241095   1.339   1.059  15.659 -0.1822  0.4046 -0.2255
 6535TIP3    H141096   1.248   1.044  15.634  0.1025  0.3999 -1.3417
 6535TIP3    H241097   1.346   1.155  15.667  0.2935  0.6604 -2.7299
 6536TIP3   OH241098   0.746   2.299   2.990 -0.2439  0.0134  0.1588
 6536TIP3    H141099   0.779   2.383   3.022  0.3555  0.3921 -1.3508
 6536TIP3    H241100   0.651   2.310   2.988 -0.2304  0.3154  0.8388
 6537TIP3   OH241101   5.953   0.513  11.974 -0.0314  0.1094  0.2292
 6537TIP3    H141102   5.886   0.471  11.921  1.2970 -0.8096 -0.7890
 6537TIP3    H241103   6.033   0.462  11.957  0.6891  0.4535  2.2785
 6538TIP3   OH241104   3.079   0.171  16.390  0.3587  0.1897 -0.2654
 6538TIP3    H141105   3.040   0.125  16.315  2.2508 -1.3034 -0.4113
 6538TIP3    H241106   3.098   0.259  16.357  0.8800 -0.3491 -1.4820
 6539TIP3   OH241107   0.740   4.206   6.386 -1.0480  0.2230  0.0347
 6539TIP3    H141108   0.668   4.159   6.429  0.0177 -0.1819  1.4437
 6539TIP3    H241109   0.717   4.205   6.294 -2.9115  0.2092  0.4603
 6540TIP3   OH241110   0.047   3.305   5.204  0.0293 -0.0133 -0.1416
 6540TIP3    H141111   0.050   3.236   5.138 -1.9191 -0.2031 -0.0966
 6540TIP3    H241112  -0.046   3.322   5.216  0.4335  2.5179 -0.0328
 6541TIP3   OH241113   6.841   0.151   2.611  0.4638 -0.7835 -0.0492
 6541TIP3    H141114   6.890   0.169   2.692  0.5313 -0.2022 -0.2108
 6541TIP3    H241115   6.888   0.078   2.570  1.3008 -0.1419 -0.2764
 6542TIP3   OH241116   3.862   2.603   4.549  0.3450 -0.1679  0.4645
 6542TIP3    H141117   3.858   2.614   4.644  0.8160 -1.0549  0.5963
 6542TIP3    H241118   3.908   2.520   4.536 -2.0373 -1.4476 -0.4812
 6543TIP3   OH241119   3.563   0.785  13.630  0.2039  0.0915 -0.0836
 6543TIP3    H141120   3.589   0.877  13.621  0.0608 -0.0169 -2.2375
 6543TIP3    H241121   3.472   0.789  13.660  0.3721  0.6437  0.3648
 6544TIP3   OH241122   3.271   2.463  14.800 -0.1598  0.2411 -0.2355
 6544TIP3    H141123   3.215   2.520  14.851 -2.0111  0.1941 -2.0716
 6544TIP3    H241124   3.345   2.518  14.774  0.3513  0.4992  1.6450
 6545TIP3   OH241125   0.929   4.059   6.160 -0.7258 -0.5738 -0.0734
 6545TIP3    H141126   0.852   4.090   6.208 -0.8693  0.0701 -0.7011
 6545TIP3    H241127   0.931   3.965   6.176  0.9187 -0.0620  3.6202
 6546TIP3   OH241128   1.657   0.157   4.139  0.3637  0.2239  0.2361
 6546TIP3    H141129   1.724   0.170   4.206 -0.0134  3.8180  0.0681
 6546TIP3    H241130   1.574   0.169   4.186  0.0336  1.0333 -0.5423
 6547TIP3   OH241131   2.199   3.439   0.872  0.0846 -0.8254  0.3722
 6547TIP3    H141132   2.267   3.482   0.821 -0.2848 -0.8025 -0.1102
 6547TIP3    H241133   2.189   3.352   0.832 -0.1920 -0.8181  0.4203
 6548TIP3   OH241134   5.422   1.134  13.500  0.1882  0.1107  0.2314
 6548TIP3    H141135   5.359   1.151  13.570  0.9298 -1.2559  1.3105
 6548TIP3    H241136   5.378   1.071  13.443  0.6441 -1.1547  1.2027
 6549TIP3   OH241137   5.896   0.404  13.221  0.3482  0.1848  0.1649
 6549TIP3    H141138   5.911   0.498  13.235 -1.4534  0.1863  2.5536
 6549TIP3    H241139   5.942   0.361  13.293  0.3647 -0.7317 -0.3725
 6550TIP3   OH241140   3.875   6.506   0.090 -0.1281 -0.1418  0.0315
 6550TIP3    H141141   3.936   6.531   0.160 -0.9687  0.5715  0.5284
 6550TIP3    H241142   3.901   6.417   0.065  2.0654  0.6550 -0.7970
 6551TIP3   OH241143   4.445   5.023  16.864  0.2555  0.0103 -0.6426
 6551TIP3    H141144   4.507   4.967  16.909  0.0088  0.0543 -0.2391
 6551TIP3    H241145   4.387   4.963  16.817 -0.6966 -0.1534  0.6730
 6552TIP3   OH241146   1.358   6.184   2.684  0.4347 -0.5084 -0.4677
 6552TIP3    H141147   1.432   6.243   2.667 -0.8556  0.9847 -1.1396
 6552TIP3    H241148   1.338   6.146   2.598  0.3522 -0.8315 -0.3065
 6553TIP3   OH241149   3.423   6.130   4.378  0.5260  0.5623 -0.1426
 6553TIP3    H141150   3.357   6.063   4.362 -0.5089  1.9971 -2.2297
 6553TIP3    H241151   3.425   6.139   4.474 -1.1277 -0.6377  0.0464
 6554TIP3   OH241152   6.783   5.539   4.751 -0.1120 -0.1077 -0.2548
 6554TIP3    H141153   6.842   5.519   4.824 -1.0785 -1.3875  0.1940
 6554TIP3    H241154   6.726   5.463   4.744 -0.6971  0.4348 -1.7092
 6555TIP3   OH241155   1.058   3.529  13.964  0.1981  0.3357 -0.2198
 6555TIP3    H141156   0.979   3.578  13.942  1.0314  0.7796 -2.5452
 6555TIP3    H241157   1.105   3.586  14.025 -0.9166  0.3904  0.6101
 6556TIP3   OH241158   3.994   4.814  12.468 -0.5054 -0.6733  0.0579
 6556TIP3    H141159   4.028   4.737  12.425 -2.9681 -2.4557  1.0501
 6556TIP3    H241160   3.922   4.843  12.412  1.1199  1.7541 -0.9528
 6557TIP3   OH241161   6.147   3.084   5.584  0.3142 -0.1894 -0.2688
 6557TIP3    H141162   6.166   3.172   5.552  2.3741  0.6826  2.7763
 6557TIP3    H241163   6.193   3.026   5.524 -0.5727  0.8245 -1.9838
 6558TIP3   OH241164   3.316   1.640  11.612 -0.1498  0.2672  0.1894
 6558TIP3    H141165   3.330   1.652  11.706  2.4836 -1.4762  0.1272
 6558TIP3    H241166   3.240   1.695  11.592 -0.6911  0.8313  3.2723
 6559TIP3   OH241167   4.067   1.654  16.340 -0.2705 -0.4618  0.8036
 6559TIP3    H141168   3.977   1.619  16.335 -0.5240  0.3567 -0.6336
 6559TIP3    H241169   4.116   1.602  16.277  0.0592 -0.2627  0.8985
 6560TIP3   OH241170   2.076   5.386  13.845 -0.1799 -0.7765 -0.0754
 6560TIP3    H141171   2.007   5.444  13.879  0.7990  0.1642  0.4015
 6560TIP3    H241172   2.051   5.368  13.755 -0.6538  0.1994 -0.1501
 6561TIP3   OH241173   0.121   3.215  13.316 -0.2681 -0.2071  0.4508
 6561TIP3    H141174   0.076   3.133  13.298  0.0986 -0.4811  0.7563
 6561TIP3    H241175   0.188   3.221  13.248 -0.6623  0.1282  0.0843
 6562TIP3   OH241176   1.452   2.602  14.000  0.4469 -0.7074 -0.4383
 6562TIP3    H141177   1.370   2.640  14.032  0.9400  0.2863 -0.3258
 6562TIP3    H241178   1.464   2.641  13.913  1.9280  0.9527  0.4388
 6563TIP3   OH241179   5.178   2.103  13.895 -0.3180 -0.3071 -0.3976
 6563TIP3    H141180   5.235   2.156  13.840 -0.5859 -0.0174 -0.3999
 6563TIP3    H241181   5.237   2.049  13.947  0.0412  1.4326  1.0688
 6564TIP3   OH241182   5.699   6.337   4.021  0.0073 -0.2059 -0.3679
 6564TIP3    H141183   5.715   6.419   3.973  0.9482 -0.6220 -0.7958
 6564TIP3    H241184   5.605   6.323   4.014  0.2532 -0.9918 -3.4042
 6565TIP3   OH241185   2.517   1.025  15.438 -0.4964  0.3324 -0.8593
 6565TIP3    H141186   2.540   0.946  15.389  0.9449 -0.7100  1.3560
 6565TIP3    H241187   2.537   1.097  15.377  2.1995 -0.8570 -1.5469
 6566TIP3   OH241188   2.872   6.387   5.153 -0.2810  0.1265  0.1401
 6566TIP3    H141189   2.813   6.365   5.082  0.0283  1.6240 -0.6192
 6566TIP3    H241190   2.818   6.382   5.232 -0.6845 -1.2848 -0.1958
 6567TIP3   OH241191   0.727   3.845  10.580 -0.1386  0.3183  0.2427
 6567TIP3    H141192   0.671   3.894  10.640 -1.1834 -0.3873 -0.1242
 6567TIP3    H241193   0.724   3.895  10.498 -0.2167  0.3078  0.2379
 6568TIP3   OH241194   5.942   4.204   4.904  0.5262  0.4522 -0.2583
 6568TIP3    H141195   6.021   4.171   4.862  0.2715  0.4920 -0.7753
 6568TIP3    H241196   5.924   4.140   4.974 -0.4697 -1.0668 -1.8090
 6569TIP3   OH241197   3.674   2.888  16.771  0.5643 -0.3464  0.9010
 6569TIP3    H141198   3.585   2.916  16.796  0.5686 -0.2924  0.8577
 6569TIP3    H241199   3.727   2.967  16.781  0.4956 -0.2265  0.3635
 6570TIP3   OH241200   6.743   6.234   4.370  0.1627 -0.2468 -0.5161
 6570TIP3    H141201   6.711   6.247   4.281 -3.2348  2.2287  0.8431
 6570TIP3    H241202   6.665   6.241   4.425  2.3158 -0.0580  2.8030
 6571TIP3   OH241203   0.564   0.348  14.403  0.4346  0.0571 -0.1307
 6571TIP3    H141204   0.565   0.402  14.482 -0.5059  0.7358 -0.5603
 6571TIP3    H241205   0.560   0.411  14.331 -0.8824 -0.5723 -0.6367
 6572TIP3   OH241206   0.147   0.426   1.268 -0.1994 -0.3448 -0.1518
 6572TIP3    H141207   0.111   0.510   1.240 -0.4984 -0.9246 -1.5900
 6572TIP3    H241208   0.241   0.432   1.248 -0.1223 -0.1683  0.2461
 6573TIP3   OH241209   0.917   5.277  12.878  0.2766  0.2521  0.0367
 6573TIP3    H141210   0.919   5.334  12.801  2.7380  0.7072  0.3722
 6573TIP3    H241211   0.939   5.190  12.844  3.2948  0.7833  0.3773
 6574TIP3   OH241212   0.323   5.847   2.800  0.1352  0.3796  0.7254
 6574TIP3    H141213   0.234   5.813   2.802 -0.4643  1.8147 -0.0920
 6574TIP3    H241214   0.364   5.805   2.724  0.3129 -0.6119  1.3561
 6575TIP3   OH241215   0.707   1.279   1.606 -0.4556  0.0608 -0.7196
 6575TIP3    H141216   0.628   1.332   1.595 -0.1647  0.8896  0.7983
 6575TIP3    H241217   0.765   1.308   1.536 -0.3581  1.7062 -0.0050
 6576TIP3   OH241218   3.836   2.220  15.316  0.1426  0.3180 -0.2953
 6576TIP3    H141219   3.802   2.307  15.297 -0.4777  0.4874  1.4105
 6576TIP3    H241220   3.930   2.227  15.304  0.1977  1.4868  0.7142
 6577TIP3   OH241221   4.423   1.234  12.544 -0.5871  0.6604  0.0649
 6577TIP3    H141222   4.498   1.267  12.495 -0.6269 -1.2346 -1.3565
 6577TIP3    H241223   4.460   1.208  12.629  0.2509  0.3544 -0.3809
 6578TIP3   OH241224   6.201   1.373   4.561 -0.1092 -0.4778 -0.1679
 6578TIP3    H141225   6.239   1.314   4.495 -0.7239 -0.3294 -0.6729
 6578TIP3    H241226   6.130   1.418   4.514 -0.7239 -0.5525  0.6683
 6579TIP3   OH241227   5.283   1.281   4.198  0.0489 -0.4308  0.1369
 6579TIP3    H141228   5.193   1.311   4.194  0.0228 -0.4213  0.6826
 6579TIP3    H241229   5.279   1.197   4.242  0.3316 -0.3020  0.4198
 6580TIP3   OH241230   1.135   1.993   4.446  0.0509  0.3568 -1.0343
 6580TIP3    H141231   1.130   1.989   4.350  1.2592 -0.1452 -1.0982
 6580TIP3    H241232   1.158   2.084   4.465 -1.4006  0.7654 -1.1352
 6581TIP3   OH241233   5.637   2.353   3.090  0.2186  0.0807 -0.5833
 6581TIP3    H141234   5.696   2.427   3.110  1.7330 -1.0462 -0.7172
 6581TIP3    H241235   5.562   2.366   3.148  0.8485  1.2563  0.0077
 6582TIP3   OH241236   3.767   3.283  14.276  0.4056  0.0447 -0.1233
 6582TIP3    H141237   3.800   3.274  14.365  1.6683  0.2121 -0.5453
 6582TIP3    H241238   3.739   3.195  14.252 -0.1841  0.0517  0.5265
 6583TIP3   OH241239   5.367   6.007  17.052  0.5994 -0.3457  0.2526
 6583TIP3    H141240   5.399   5.948  16.984 -1.5444  0.5373 -1.6351
 6583TIP3    H241241   5.275   5.985  17.063  0.5171  0.5781  1.8003
 6584TIP3   OH241242   3.492   2.845  14.596 -0.2177  0.1347  0.3433
 6584TIP3    H141243   3.505   2.757  14.631 -0.2826  0.5097  1.3432
 6584TIP3    H241244   3.399   2.849  14.575 -0.7106  0.6592  2.3687
 6585TIP3   OH241245   2.505   4.452  15.868 -0.0410 -0.5812  0.3876
 6585TIP3    H141246   2.530   4.524  15.927 -1.3294  0.5990 -0.4279
 6585TIP3    H241247   2.553   4.470  15.787 -0.5250 -0.5007  0.1113
 6586TIP3   OH241248   6.091   6.512  10.353 -1.5332 -0.0903 -0.4481
 6586TIP3    H141249   6.101   6.463  10.435 -1.5620  0.3581 -0.1768
 6586TIP3    H241250   6.002   6.490  10.323 -0.9438 -1.5791 -1.2342
 6587TIP3   OH241251   3.850   3.004   4.700  0.4041  0.0488  0.1514
 6587TIP3    H141252   3.915   2.955   4.651 -1.2264 -0.2283 -1.9077
 6587TIP3    H241253   3.767   2.982   4.658 -0.9346  1.0398  2.1085
 6588TIP3   OH241254   2.460   4.180  12.822 -0.3506 -0.0309 -0.3448
 6588TIP3    H141255   2.510   4.128  12.885  0.1480  1.6545  0.7325
 6588TIP3    H241256   2.491   4.150  12.737  0.6376 -0.8098  0.2589
 6589TIP3   OH241257   3.773   6.758  17.191  0.4350 -0.9881 -0.2469
 6589TIP3    H141258   3.717   6.681  17.183  0.4671 -0.8892 -1.6848
 6589TIP3    H241259   3.859   6.723  17.211  0.1650 -1.2353  0.4878
 6590TIP3   OH241260   3.683   1.044   2.078 -0.6199  0.7961 -0.4714
 6590TIP3    H141261   3.775   1.036   2.051 -0.0446 -0.9857  1.6920
 6590TIP3    H241262   3.639   0.972   2.033 -0.5473  0.4464  0.0175
 6591TIP3   OH241263   3.958   5.029  13.265 -0.2045  0.1926 -0.0966
 6591TIP3    H141264   3.962   4.973  13.188  0.3244  0.2783 -0.1339
 6591TIP3    H241265   3.942   4.968  13.338 -0.5474  0.0970 -0.2461
 6592TIP3   OH241266   5.569   4.220   4.681 -0.2318  0.3776 -0.1864
 6592TIP3    H141267   5.636   4.203   4.614 -0.7618 -0.2382 -0.5774
 6592TIP3    H241268   5.503   4.152   4.666  0.0550 -0.3328  1.5303
 6593TIP3   OH241269   3.443   5.357   1.422  0.0019 -0.4275  0.6032
 6593TIP3    H141270   3.426   5.331   1.331  3.8392 -0.0805 -0.3940
 6593TIP3    H241271   3.385   5.432   1.436 -1.1564 -0.8875 -1.3137
 6594TIP3   OH241272   3.456   0.470  10.550  0.1389  0.0064 -0.4676
 6594TIP3    H141273   3.496   0.557  10.552 -0.4358  0.2787 -0.8059
 6594TIP3    H241274   3.531   0.410  10.554  0.7953  0.4858 -3.4752
 6595TIP3   OH241275   5.494   5.109   4.656  0.5411 -0.5415 -0.3831
 6595TIP3    H141276   5.484   5.120   4.751 -0.6513  2.6875 -0.7339
 6595TIP3    H241277   5.581   5.072   4.645  1.2884  0.3262  1.9587
 6596TIP3   OH241278   1.321   6.756   0.936  0.0518  0.3655 -0.3278
 6596TIP3    H141279   1.326   6.833   0.993 -0.2393  0.9363 -1.0607
 6596TIP3    H241280   1.368   6.782   0.857  0.5585 -0.4691 -0.3055
 6597TIP3   OH241281   3.669   1.194   5.428 -0.0674  0.3950  0.1662
 6597TIP3    H141282   3.678   1.273   5.374  0.2937  0.9985  1.0764
 6597TIP3    H241283   3.757   1.155   5.428 -0.0679  0.3926  0.2959
 6598TIP3   OH241284   4.944   4.742  15.356 -0.0752 -0.2463 -0.0157
 6598TIP3    H141285   5.022   4.687  15.369 -0.8601 -1.0238  1.7818
 6598TIP3    H241286   4.922   4.731  15.263  0.8428 -1.5452 -0.1101
 6599TIP3   OH241287   6.764   1.134  13.090  0.9823 -0.7140 -0.5189
 6599TIP3    H141288   6.683   1.082  13.090 -0.9598  2.0457 -2.1803
 6599TIP3    H241289   6.822   1.087  13.031 -0.5813 -1.2386 -1.7278
 6600TIP3   OH241290   2.024   1.757  16.426 -0.4521 -0.0873 -0.1643
 6600TIP3    H141291   2.057   1.793  16.343  0.2812 -2.4949 -1.0037
 6600TIP3    H241292   1.937   1.725  16.405 -0.5943  0.0448  0.2245
 6601TIP3   OH241293   6.502   3.492   4.087  0.3145 -0.1564  0.3108
 6601TIP3    H141294   6.550   3.412   4.109 -1.7666 -1.5381  0.1644
 6601TIP3    H241295   6.419   3.484   4.135 -1.6658 -0.1345 -2.8059
 6602TIP3   OH241296   4.608   1.964   4.796  0.0862 -1.1611  0.0673
 6602TIP3    H141297   4.583   1.953   4.704 -0.1973  0.9499 -0.1545
 6602TIP3    H241298   4.566   1.890   4.840 -3.4145  0.0099 -0.9054
 6603TIP3   OH241299   4.801   6.166   1.693 -0.2364 -0.1952  0.4861
 6603TIP3    H141300   4.752   6.196   1.770 -1.5737 -1.2604  0.0818
 6603TIP3    H241301   4.867   6.106   1.728 -0.0077  0.2920  0.9082
 6604TIP3   OH241302   6.405   6.340  16.514 -0.2770 -0.2863  0.8639
 6604TIP3    H141303   6.455   6.281  16.458  0.6043 -0.9409  2.2704
 6604TIP3    H241304   6.379   6.285  16.588 -2.3438  0.2705  0.6120
 6605TIP3   OH241305   6.778   2.150  15.983 -0.2228  0.1215 -0.1871
 6605TIP3    H141306   6.851   2.188  16.034 -0.2388 -1.5231  1.1474
 6605TIP3    H241307   6.821   2.101  15.913 -0.0579 -0.2035  0.1353
 6606TIP3   OH241308   3.310   0.640   3.687 -0.0545 -0.7641 -0.0164
 6606TIP3    H141309   3.296   0.606   3.775 -1.9545 -0.4753 -0.1563
 6606TIP3    H241310   3.289   0.567   3.629  0.6144 -0.7827 -0.2394
 6607TIP3   OH241311   3.345   2.115  13.970  0.1384  0.0102  0.1956
 6607TIP3    H141312   3.333   2.178  14.041  2.3964 -0.7746  1.3892
 6607TIP3    H241313   3.419   2.149  13.920 -0.0444 -0.5649 -0.4847
 6608TIP3   OH241314   4.938   5.031  16.153  0.1969 -0.3331 -0.1009
 6608TIP3    H141315   4.887   4.988  16.222 -1.4818 -0.5716 -1.4050
 6608TIP3    H241316   4.947   5.121  16.183  0.4934 -0.6957  0.9473
 6609TIP3   OH241317   3.863   6.209  12.675  0.0593  0.0539  0.3315
 6609TIP3    H141318   3.935   6.152  12.649 -1.4460 -1.9358  0.3527
 6609TIP3    H241319   3.835   6.251  12.593 -0.9215 -1.7708 -0.3112
 6610TIP3   OH241320   0.448   5.217   1.565 -0.8072  0.2022  0.8422
 6610TIP3    H141321   0.381   5.150   1.556  0.1818 -0.7577  0.4553
 6610TIP3    H241322   0.426   5.282   1.498 -0.8926 -0.5163  0.1592
 6611TIP3   OH241323   2.739   2.459   5.098 -0.3533  0.4829  0.0857
 6611TIP3    H141324   2.655   2.414   5.094 -0.7371  0.3751  4.3529
 6611TIP3    H241325   2.721   2.538   5.148  1.5338  2.2295 -1.8217
 6612TIP3   OH241326   3.676   0.709  16.426 -0.2243  0.2590 -0.4981
 6612TIP3    H141327   3.610   0.773  16.403 -0.7024  0.1421  0.4768
 6612TIP3    H241328   3.635   0.655  16.494  1.3251  1.0592  1.1750
 6613TIP3   OH241329   6.106   3.663  13.981  0.8192 -0.0439  0.2248
 6613TIP3    H141330   6.026   3.694  13.939 -0.6377 -0.4092  2.5597
 6613TIP3    H241331   6.106   3.705  14.067  3.4933  0.4102  0.0869
 6614TIP3   OH241332   6.791   6.446  16.459  0.2256 -0.7675 -0.3737
 6614TIP3    H141333   6.841   6.395  16.522 -1.4962  0.1177  1.8626
 6614TIP3    H241334   6.744   6.381  16.406  2.0333 -1.5374 -1.1029
 6615TIP3   OH241335   2.189   6.820  13.359  0.6340 -0.0377  0.6605
 6615TIP3    H141336   2.165   6.736  13.320  0.7387  0.1126  0.2667
 6615TIP3    H241337   2.204   6.877  13.284  0.9913  0.2140  0.9256
 6616TIP3   OH241338   3.785   4.372   4.593 -0.0798  0.0496  0.4324
 6616TIP3    H141339   3.717   4.438   4.583  1.6578  2.0621  1.1961
 6616TIP3    H241340   3.852   4.414   4.648  2.2945 -1.3809 -1.1719
 6617TIP3   OH241341   6.053   3.281  13.180 -0.1638 -0.3023 -0.0606
 6617TIP3    H141342   6.017   3.369  13.192 -1.0893 -0.7282  0.3606
 6617TIP3    H241343   6.134   3.281  13.230 -0.7801 -0.0693  0.9537
 6618TIP3   OH241344   4.442   2.755  13.117  0.6148  0.2940 -0.2030
 6618TIP3    H141345   4.390   2.835  13.118  2.5645  1.6481  0.1141
 6618TIP3    H241346   4.413   2.708  13.039  0.4167  2.0309 -1.2360
 6619TIP3   OH241347   2.102   5.945   2.639  0.3359  0.1328  0.2664
 6619TIP3    H141348   2.106   6.009   2.567 -1.0841  0.3902  0.3810
 6619TIP3    H241349   2.183   5.958   2.687  0.9682  0.4838 -0.8535
 6620TIP3   OH241350   5.790   0.579   0.189  0.0476 -0.3350 -0.6282
 6620TIP3    H141351   5.854   0.511   0.209 -1.6620 -1.2198  2.5564
 6620TIP3    H241352   5.705   0.534   0.189 -1.1155  1.6197  1.3138
 6621TIP3   OH241353   4.878   0.047   3.578 -0.1786  0.1497  0.2908
 6621TIP3    H141354   4.973   0.032   3.572 -0.0589  0.9374  0.0398
 6621TIP3    H241355   4.869   0.142   3.573 -0.9728  0.0921  0.5424
 6622TIP3   OH241356   1.086   5.664   3.573 -0.0270 -0.2295 -0.1268
 6622TIP3    H141357   1.059   5.603   3.505 -2.9029  0.3253  0.3859
 6622TIP3    H241358   1.174   5.691   3.548  0.3480 -2.6313 -1.7146
 6623TIP3   OH241359   3.183   2.462   3.256  0.4517 -0.1952  0.3960
 6623TIP3    H141360   3.104   2.517   3.261  0.4827 -0.2681  2.7671
 6623TIP3    H241361   3.150   2.373   3.263  0.5818 -0.3882 -1.1870
 6624TIP3   OH241362   1.568   2.757  17.037 -0.3233  0.0340  0.3705
 6624TIP3    H141363   1.522   2.789  16.959  0.4373  0.1942 -0.0256
 6624TIP3    H241364   1.500   2.716  17.090 -1.2333  1.7420  0.6096
 6625TIP3   OH241365   4.221   0.822  12.588 -0.9351  0.0019  0.0811
 6625TIP3    H141366   4.293   0.767  12.619 -1.3613 -1.3786 -1.2390
 6625TIP3    H241367   4.190   0.868  12.666 -0.0585 -1.0736  1.0963
 6626TIP3   OH241368   0.111   2.976  15.005  0.5088 -0.2120 -0.1216
 6626TIP3    H141369   0.021   3.005  14.990  0.4858  0.7426  1.5675
 6626TIP3    H241370   0.149   2.968  14.917 -0.6394  1.2998 -0.8005
 6627TIP3   OH241371   6.298   2.958   5.071 -0.4345  0.8470  0.2846
 6627TIP3    H141372   6.330   2.868   5.077 -0.1601  0.9332  0.1044
 6627TIP3    H241373   6.270   2.968   4.981  0.4665  1.2535  0.0417
 6628TIP3   OH241374   4.308   6.797   3.795  0.4987  0.2513  0.8943
 6628TIP3    H141375   4.288   6.887   3.821  0.3725  0.3409  0.4924
 6628TIP3    H241376   4.227   6.749   3.809 -0.4827  0.8798 -1.9543
 6629TIP3   OH241377   4.991   0.270   5.189  0.1717 -0.4910  0.1900
 6629TIP3    H141378   4.990   0.320   5.270 -0.2619  0.1423 -0.1981
 6629TIP3    H241379   5.084   0.256   5.170  0.3703  1.5783 -0.5413
 6630TIP3   OH241380   6.136   0.690  10.630  0.0666 -0.1669 -0.1250
 6630TIP3    H141381   6.226   0.689  10.598 -0.2156  0.6223 -0.9939
 6630TIP3    H241382   6.143   0.716  10.722  0.7029  0.1242 -0.2548
 6631TIP3   OH241383   5.884   3.952  16.486 -0.2782 -0.7147  0.3729
 6631TIP3    H141384   5.916   3.952  16.576  0.0141 -2.1445  0.2834
 6631TIP3    H241385   5.808   3.895  16.486 -1.6341  0.9880  0.1304
 6632TIP3   OH241386   5.645   0.993  15.656  0.1396  0.0270  0.6465
 6632TIP3    H141387   5.703   1.068  15.644  0.8877 -0.4042  1.4191
 6632TIP3    H241388   5.682   0.925  15.598 -0.9560  0.4553 -0.6051
 6633TIP3   OH241389   4.797   1.798   1.710 -0.6538 -0.5567  0.2720
 6633TIP3    H141390   4.764   1.758   1.791 -1.0201  2.3755  1.7159
 6633TIP3    H241391   4.872   1.850   1.738 -0.8300  0.5945 -1.2571
 6634TIP3   OH241392   0.558   6.204   2.030  0.0854 -0.5920 -0.2419
 6634TIP3    H141393   0.592   6.151   2.102 -2.4387 -0.5152  1.1569
 6634TIP3    H241394   0.490   6.149   1.991 -0.0511  0.2179 -1.1599
 6635TIP3   OH241395   2.244   6.270  14.150 -0.3682 -0.1707 -0.4588
 6635TIP3    H141396   2.297   6.313  14.082 -2.5991  0.5990 -1.8049
 6635TIP3    H241397   2.251   6.177  14.129  0.7677 -0.1406 -0.3249
 6636TIP3   OH241398   0.014   2.455  16.064  0.0266 -0.2159  0.0873
 6636TIP3    H141399   0.027   2.512  16.140 -0.2257  0.3326 -0.2743
 6636TIP3    H241400  -0.079   2.430  16.069 -0.2577  0.6273 -0.5738
 6637TIP3   OH241401   3.716   4.839  13.169 -0.5618  0.2085  0.0344
 6637TIP3    H141402   3.678   4.852  13.082 -0.1686 -0.9935 -0.3357
 6637TIP3    H241403   3.811   4.837  13.154 -0.3878  1.5050  0.7241
 6638TIP3   OH241404   5.878   1.697   0.710  0.0565 -0.9069 -0.3173
 6638TIP3    H141405   5.959   1.733   0.674 -1.5350  1.1777 -2.0762
 6638TIP3    H241406   5.861   1.748   0.788 -0.6442  0.1890 -1.1585
 6639TIP3   OH241407   5.969   3.536  13.287  0.5520  0.0336 -0.6804
 6639TIP3    H141408   5.959   3.550  13.381  0.6325 -0.0036 -0.6668
 6639TIP3    H241409   6.049   3.583  13.264  0.1247  0.6854 -0.8718
 6640TIP3   OH241410   0.388   3.349  11.108  0.5053 -0.2537  0.3001
 6640TIP3    H141411   0.296   3.369  11.087  0.7779 -0.6485 -1.4343
 6640TIP3    H241412   0.397   3.372  11.200 -0.6183  2.3871 -0.1764
 6641TIP3   OH241413   1.190   0.021   5.652 -0.5318  0.2587  0.0958
 6641TIP3    H141414   1.233   0.095   5.693 -0.9569  0.0363  0.9750
 6641TIP3    H241415   1.170  -0.038   5.724  0.4951 -1.0837 -0.6836
 6642TIP3   OH241416   2.132   4.716   1.557 -0.0223  0.2729 -0.1728
 6642TIP3    H141417   2.048   4.758   1.576  0.2849  0.7159  0.2368
 6642TIP3    H241418   2.115   4.623   1.564 -1.2718  0.1338 -3.2720
 6643TIP3   OH241419   3.721   3.468  14.986 -0.1189  0.5531 -0.2699
 6643TIP3    H141420   3.717   3.378  15.018 -2.6065  1.5254  2.7041
 6643TIP3    H241421   3.803   3.503  15.022 -0.7064  0.3024  1.4419
 6644TIP3   OH241422   2.878   3.179  15.095 -0.1062  0.3424 -0.5048
 6644TIP3    H141423   2.896   3.146  15.007  0.6823 -1.6980  0.3758
 6644TIP3    H241424   2.871   3.101  15.150 -0.7122  1.5498  1.2475
 6645TIP3   OH241425   2.030   0.530   3.701 -0.4677 -0.3349 -0.1481
 6645TIP3    H141426   2.042   0.539   3.795  2.1922 -0.8511 -0.3632
 6645TIP3    H241427   2.029   0.436   3.686 -0.2009 -0.2475 -0.7207
 6646TIP3   OH241428   6.257   0.909   2.372 -0.0715  0.4121 -0.1838
 6646TIP3    H141429   6.343   0.877   2.343  0.7984  1.9384  0.5908
 6646TIP3    H241430   6.251   0.881   2.463 -1.5160 -1.8138 -0.8881
 6647TIP3   OH241431   5.270   4.967  12.610 -0.4689 -0.5935  0.4799
 6647TIP3    H141432   5.196   5.029  12.609  0.5641  0.6881 -1.1777
 6647TIP3    H241433   5.323   4.994  12.685  0.4129  1.1643 -0.7073
 6648TIP3   OH241434   4.467   0.508  15.452 -0.1905  0.6367 -0.1366
 6648TIP3    H141435   4.553   0.524  15.413 -0.4298  2.1918 -0.0961
 6648TIP3    H241436   4.471   0.418  15.484  1.1501  0.4349 -0.8141
 6649TIP3   OH241437   6.801   1.410  14.291 -0.2039 -0.0987 -0.1752
 6649TIP3    H141438   6.826   1.436  14.202 -0.0137 -1.7590 -0.6474
 6649TIP3    H241439   6.710   1.382  14.283  0.2782 -1.7396 -0.2125
 6650TIP3   OH241440   0.924   5.316  16.394  0.4512 -0.4838 -0.0479
 6650TIP3    H141441   0.877   5.262  16.329  0.1807  0.0468 -0.3008
 6650TIP3    H241442   0.880   5.401  16.389  1.1753 -0.1074  0.0180
 6651TIP3   OH241443   3.038   1.272   0.543 -0.5156  0.1079 -0.1008
 6651TIP3    H141444   3.002   1.249   0.457  0.5717  0.1399 -0.5764
 6651TIP3    H241445   2.967   1.320   0.586 -1.1057  0.0198 -0.9503
 6652TIP3   OH241446   4.712   6.122   0.687 -0.4031 -0.4330  0.3241
 6652TIP3    H141447   4.740   6.168   0.607 -0.4410  2.9506  2.0731
 6652TIP3    H241448   4.624   6.090   0.666 -0.1700 -0.1985 -1.1720
 6653TIP3   OH241449   2.919   6.770   2.373  0.8756  0.9190  0.1420
 6653TIP3    H141450   2.850   6.764   2.440 -0.1730  1.3648 -0.8590
 6653TIP3    H241451   2.920   6.683   2.333  0.1910  1.1814 -0.4829
 6654TIP3   OH241452   5.273   2.040  17.122  0.0202 -0.2200  0.3188
 6654TIP3    H141453   5.365   2.043  17.099  0.8731  0.0647  3.3596
 6654TIP3    H241454   5.259   1.951  17.154 -0.0982  0.3804  2.0560
 6655TIP3   OH241455   6.174   4.775  14.818  0.4955  0.0731 -0.0083
 6655TIP3    H141456   6.181   4.823  14.901 -1.6060 -0.1651  0.3546
 6655TIP3    H241457   6.217   4.833  14.754  2.7878 -0.0521  1.2987
 6656TIP3   OH241458   4.449   5.799   5.274  0.6109  0.2234  0.2930
 6656TIP3    H141459   4.497   5.723   5.243  0.9543  1.2250 -1.8031
 6656TIP3    H241460   4.498   5.828   5.351  2.6968  0.4707 -1.0374
 6657TIP3   OH241461   6.613   1.355  12.313  0.0051 -0.2121 -0.5924
 6657TIP3    H141462   6.542   1.298  12.343  0.2395 -0.7920 -1.1183
 6657TIP3    H241463   6.665   1.371  12.391  0.0522 -0.8931 -0.4814
 6658TIP3   OH241464   2.515   5.611   5.035 -0.1469 -0.2377 -0.5640
 6658TIP3    H141465   2.450   5.650   5.092  0.2436  1.2807 -1.1048
 6658TIP3    H241466   2.599   5.643   5.069  0.3166 -1.8637 -0.0977
 6659TIP3   OH241467   4.169   3.023  14.670 -0.1898 -0.4015  0.6130
 6659TIP3    H141468   4.204   3.101  14.628 -2.6246  0.4731  0.0614
 6659TIP3    H241469   4.207   2.950  14.620 -0.9027  0.5498 -1.4376
 6660TIP3   OH241470   3.556   0.045   6.809 -0.0517  1.0208  0.0411
 6660TIP3    H141471   3.470   0.019   6.776 -0.3556  0.5293  1.1433
 6660TIP3    H241472   3.618  -0.006   6.757 -0.3733  1.8135 -1.1598
 6661TIP3   OH241473   2.010   3.892   2.332  0.3875 -0.1493  0.4916
 6661TIP3    H141474   2.037   3.875   2.423  0.4410  0.9066  0.6857
 6661TIP3    H241475   1.948   3.822   2.312 -0.1654  0.0056  1.5871
 6662TIP3   OH241476   0.019   5.542   5.214 -0.1890 -0.0397 -0.1046
 6662TIP3    H141477   0.087   5.582   5.267  0.0421 -0.6483  0.0567
 6662TIP3    H241478  -0.061   5.589   5.238 -0.2524 -0.8748  1.4246
 6663TIP3   OH241479   3.283   2.372  17.127  0.1888  0.2354  0.5662
 6663TIP3    H141480   3.331   2.300  17.086 -0.3986 -0.2046  0.6360
 6663TIP3    H241481   3.242   2.418  17.053 -1.3667 -0.9163  0.6614
 6664TIP3   OH241482   2.005   5.770   2.430  0.2501  0.4325 -0.0913
 6664TIP3    H141483   1.950   5.763   2.508  0.9616  0.0151  0.3818
 6664TIP3    H241484   2.082   5.819   2.459  0.6928 -0.0423 -0.4378
 6665TIP3   OH241485   4.886   2.291   6.520 -0.1522 -0.7157 -0.7114
 6665TIP3    H141486   4.964   2.275   6.573 -0.6913 -0.2641  0.2403
 6665TIP3    H241487   4.814   2.286   6.583 -0.7623  0.3681 -1.3176
 6666TIP3   OH241488   3.905   5.662   2.293 -0.0080  0.1062 -0.2054
 6666TIP3    H141489   3.860   5.578   2.287  0.9325 -0.3142 -2.5051
 6666TIP3    H241490   3.998   5.640   2.294  0.2385  1.0827  0.8284
 6667TIP3   OH241491   3.927   1.068   1.527 -0.1472 -0.8488  0.3134
 6667TIP3    H141492   3.990   1.004   1.493  1.4745  0.7918  0.0572
 6667TIP3    H241493   3.922   1.049   1.620  1.3308 -0.5649  0.4744
 6668TIP3   OH241494   3.895   4.317   2.585 -0.3577  0.6208 -0.3188
 6668TIP3    H141495   3.874   4.256   2.514  1.4773  0.4290 -0.7491
 6668TIP3    H241496   3.819   4.375   2.590 -2.3466 -1.8275  0.3018
 6669TIP3   OH241497   3.928   1.683  15.168 -0.0385  0.0856  0.1030
 6669TIP3    H141498   3.986   1.618  15.128  1.0186  0.9882  0.0978
 6669TIP3    H241499   3.931   1.665  15.261  0.9404  0.6240  0.1950
 6670TIP3   OH241500   5.870   5.666  15.085 -0.4166  0.0727 -0.1766
 6670TIP3    H141501   5.905   5.742  15.132  1.0302 -0.4789 -0.2875
 6670TIP3    H241502   5.944   5.635  15.032 -0.9318 -1.4386 -0.0775
 6671TIP3   OH241503   0.681   6.736  13.896  0.3527  0.0559  0.3575
 6671TIP3    H141504   0.739   6.660  13.896 -1.1905 -1.2419 -2.3131
 6671TIP3    H241505   0.659   6.749  13.804 -0.2626  3.1516  0.8462
 6672TIP3   OH241506   4.139   5.651   0.510 -0.3506 -0.1037 -0.1317
 6672TIP3    H141507   4.100   5.635   0.424 -2.1787 -1.9071  0.9423
 6672TIP3    H241508   4.142   5.746   0.518 -0.6977  0.0891 -1.9566
 6673TIP3   OH241509   4.318   4.914   3.579 -0.3888  0.0183 -0.0971
 6673TIP3    H141510   4.345   5.001   3.608 -1.4206  0.6123 -0.8337
 6673TIP3    H241511   4.247   4.931   3.517 -0.8894 -1.3740  0.0640
 6674TIP3   OH241512   0.328   0.588  16.829 -0.7426  0.0754  0.1067
 6674TIP3    H141513   0.403   0.603  16.886 -1.0142 -0.2892  0.5727
 6674TIP3    H241514   0.290   0.506  16.861 -1.5100  0.4087  0.0676
 6675TIP3   OH241515   4.631   1.403  13.769  0.6137  0.6374 -0.6284
 6675TIP3    H141516   4.657   1.339  13.703  0.0941 -0.1969 -0.0481
 6675TIP3    H241517   4.536   1.397  13.773  0.7150 -0.5595  1.3449
 6676TIP3   OH241518   6.076   6.053  11.712 -0.9093  1.0619 -0.2364
 6676TIP3    H141519   6.033   6.000  11.645 -0.0773 -0.1140  0.1405
 6676TIP3    H241520   6.165   6.065  11.679 -0.4574  0.3645  0.7085
 6677TIP3   OH241521   5.736   5.718  14.562 -0.7913 -0.6193  0.6225
 6677TIP3    H141522   5.735   5.788  14.628  1.0819 -0.4458  0.5056
 6677TIP3    H241523   5.693   5.644  14.605  0.0931 -0.3971  1.9217
 6678TIP3   OH241524   2.477   0.236   0.661  0.3978 -0.2144  0.2444
 6678TIP3    H141525   2.471   0.294   0.737 -0.0387  0.7816 -0.5251
 6678TIP3    H241526   2.571   0.231   0.642  0.6141 -1.4005  1.5291
 6679TIP3   OH241527   6.304   4.197  15.996  0.0574  0.1742  0.1122
 6679TIP3    H141528   6.318   4.273  16.053  0.9603  0.4977 -0.5205
 6679TIP3    H241529   6.386   4.188  15.947  0.3042 -1.7450  0.7849
 6680TIP3   OH241530   2.353   4.173   3.641  0.1626  0.2969 -0.2423
 6680TIP3    H141531   2.325   4.252   3.686 -0.1910  1.2719 -2.0941
 6680TIP3    H241532   2.329   4.187   3.550  1.1687 -1.4561 -0.8301
 6681TIP3   OH241533   0.281   6.065   1.755  0.3569 -0.4992  0.2828
 6681TIP3    H141534   0.372   6.051   1.729  0.4975 -1.4427  1.1881
 6681TIP3    H241535   0.232   6.000   1.704  0.0311  0.6751 -0.9611
 6682TIP3   OH241536   5.140   3.483  12.815 -0.4055  0.0844  0.6515
 6682TIP3    H141537   5.185   3.402  12.840 -1.1414 -0.4021  0.4234
 6682TIP3    H241538   5.206   3.534  12.767  0.6294  0.4485  2.3748
 6683TIP3   OH241539   0.574   4.936   4.926  0.0200  0.1529 -0.2695
 6683TIP3    H141540   0.645   4.889   4.970 -0.5606 -0.2898  0.2282
 6683TIP3    H241541   0.595   4.930   4.833  0.3672 -0.4167 -0.1612
 6684TIP3   OH241542   2.230   3.373  10.763 -0.4313  0.2065  0.0821
 6684TIP3    H141543   2.157   3.338  10.814  0.0213  0.7790  1.1376
 6684TIP3    H241544   2.248   3.458  10.802  0.9170 -0.0032 -0.0445
 6685TIP3   OH241545   4.808   4.788  13.744 -0.0575  0.0504  0.0848
 6685TIP3    H141546   4.784   4.858  13.805  1.8132 -0.0563  1.0259
 6685TIP3    H241547   4.738   4.788  13.678 -0.1504  2.7609  0.0786
 6686TIP3   OH241548   6.590   0.326  11.531 -0.1291  0.2366 -0.2077
 6686TIP3    H141549   6.586   0.232  11.510 -1.7416  0.4419 -0.9920
 6686TIP3    H241550   6.646   0.331  11.608 -0.3484 -1.4253  0.0998
 6687TIP3   OH241551   2.334   3.350  17.073  0.0846 -0.1622 -0.1289
 6687TIP3    H141552   2.302   3.314  17.155 -0.6268  1.3554  0.3034
 6687TIP3    H241553   2.425   3.320  17.068 -0.0100 -0.6850  0.9619
 6688TIP3   OH241554   3.253   5.202   2.287 -0.1175 -0.5046  0.5996
 6688TIP3    H141555   3.161   5.179   2.299 -0.6076  1.0313  0.0468
 6688TIP3    H241556   3.271   5.267   2.355  0.8855 -1.5712  1.3895
 6689TIP3   OH241557   0.362   5.011  13.370  0.7209 -0.1791  0.6931
 6689TIP3    H141558   0.403   5.098  13.372  0.3910 -0.0199  0.5917
 6689TIP3    H241559   0.391   4.973  13.286  1.7192 -0.5933  1.2000
 6690TIP3   OH241560   3.482   4.074   2.811  0.2166 -0.1009  1.2188
 6690TIP3    H141561   3.481   4.032   2.725  0.5703  0.1417  1.0934
 6690TIP3    H241562   3.539   4.018   2.864  1.0013  0.4254  0.9425
 6691TIP3   OH241563   5.619   2.288   2.689 -0.2892 -0.2247 -0.5920
 6691TIP3    H141564   5.710   2.270   2.712  0.0216  0.5639 -1.1558
 6691TIP3    H241565   5.618   2.286   2.593 -0.7944  0.1271 -0.5985
 6692TIP3   OH241566   3.122   3.505  16.233  0.3183  0.6394  0.0291
 6692TIP3    H141567   3.182   3.474  16.301 -0.1139  0.0466  0.1395
 6692TIP3    H241568   3.172   3.573  16.187  1.2984 -0.2424 -0.2526
 6693TIP3   OH241569   2.822   2.363  14.304  0.3300 -0.3165 -0.1239
 6693TIP3    H141570   2.768   2.442  14.295 -0.1248 -0.6017  0.0720
 6693TIP3    H241571   2.903   2.384  14.258 -0.3031 -0.2099 -1.2203
 6694TIP3   OH241572   4.607   2.028   3.562  0.5206 -0.0354 -0.4303
 6694TIP3    H141573   4.547   1.960   3.594  0.6073 -0.0609 -0.3205
 6694TIP3    H241574   4.578   2.046   3.472 -0.6358  1.0762  0.1353
 6695TIP3   OH241575   6.028   2.170  14.340 -0.0745  0.1327 -0.1484
 6695TIP3    H141576   6.073   2.088  14.319  0.5872  0.5227 -0.2799
 6695TIP3    H241577   6.022   2.170  14.436 -2.1389 -1.1375 -0.2226
 6696TIP3   OH241578   4.599   6.664   4.824 -0.8371 -0.3814  0.1840
 6696TIP3    H141579   4.553   6.746   4.843  2.5545  1.4289  1.4017
 6696TIP3    H241580   4.615   6.626   4.910  0.2100 -0.7734 -0.1802
 6697TIP3   OH241581   0.208   1.055   0.011 -0.3016 -0.3120  0.2558
 6697TIP3    H141582   0.233   1.094  -0.073  2.8019 -0.7317  0.8707
 6697TIP3    H241583   0.133   1.000  -0.010  1.3233 -1.6852 -2.6784
 6698TIP3   OH241584   6.684   4.654  17.165 -0.0407 -0.3846 -0.0799
 6698TIP3    H141585   6.769   4.673  17.126 -0.5172  0.6804 -0.6324
 6698TIP3    H241586   6.651   4.580  17.115 -0.0085  0.0403 -0.7375
 6699TIP3   OH241587   0.410   3.901   3.255 -0.1377  0.2293  0.2313
 6699TIP3    H141588   0.472   3.947   3.311  2.6703 -1.1703 -1.4800
 6699TIP3    H241589   0.408   3.812   3.289 -1.3284  0.2529  0.2856
 6700TIP3   OH241590   5.469   3.373  12.924 -0.0702  0.0636  0.2497
 6700TIP3    H141591   5.401   3.351  12.988 -0.6851 -1.9413 -0.9956
 6700TIP3    H241592   5.483   3.292  12.875  1.1481  1.2358 -1.4609
 6701TIP3   OH241593   6.254   4.872   2.547 -0.2847 -0.2506 -0.2877
 6701TIP3    H141594   6.161   4.885   2.529 -0.5656 -1.4825  0.1853
 6701TIP3    H241595   6.258   4.847   2.639  0.6771  1.2114  0.1044
 6702TIP3   OH241596   4.977   3.766   4.234 -0.0691 -0.2184  0.2000
 6702TIP3    H141597   4.990   3.687   4.182 -0.2449 -0.5767  0.6949
 6702TIP3    H241598   4.949   3.735   4.319 -2.7669  0.4166 -0.3385
 6703TIP3   OH241599   1.831   2.083   0.966 -0.2161 -0.1962 -0.3008
 6703TIP3    H141600   1.898   2.048   1.024  0.8168  0.8459 -0.8269
 6703TIP3    H241601   1.855   2.052   0.879  1.1356  2.2561 -0.8940
 6704TIP3   OH241602   0.327   0.702   0.068 -0.3478 -0.5075  0.2056
 6704TIP3    H141603   0.252   0.745   0.027  0.2891 -2.8832 -3.9686
 6704TIP3    H241604   0.400   0.762   0.056 -0.9220  0.5573  1.7021
 6705TIP3   OH241605   2.116   2.553   1.285  0.8560  0.3814 -0.1620
 6705TIP3    H141606   2.210   2.568   1.291  0.9027  0.5048 -1.0669
 6705TIP3    H241607   2.104   2.462   1.310  1.4586 -0.2148 -1.8682
 6706TIP3   OH241608   4.718   4.852   3.887 -0.0985  0.2709 -0.2839
 6706TIP3    H141609   4.791   4.902   3.922 -0.2809  0.3163  0.0360
 6706TIP3    H241610   4.755   4.803   3.814  0.1874  0.5047 -0.2946
 6707TIP3   OH241611   6.533   1.324  16.000 -0.1939  0.2024 -0.2886
 6707TIP3    H141612   6.458   1.342  15.944 -0.6814  2.5686  1.0155
 6707TIP3    H241613   6.499   1.264  16.067 -1.1492  1.7580  0.6636
 6708TIP3   OH241614   6.432   4.267   6.547 -0.3896 -0.2382  0.0128
 6708TIP3    H141615   6.518   4.282   6.587 -1.1290  0.4773  1.4026
 6708TIP3    H241616   6.429   4.172   6.534  0.8821 -0.2026 -0.7352
 6709TIP3   OH241617   2.545   2.675  12.291 -0.2543  0.5089  0.0397
 6709TIP3    H141618   2.630   2.718  12.288 -0.0500  0.1095  0.0841
 6709TIP3    H241619   2.519   2.680  12.383 -0.1593  0.3946  0.0719
 6710TIP3   OH241620   4.191   1.569   3.567  0.0439 -0.2304  0.1150
 6710TIP3    H141621   4.239   1.579   3.649 -1.3747 -0.5224  1.0074
 6710TIP3    H241622   4.159   1.479   3.569  1.2207 -0.7337 -1.4717
 6711TIP3   OH241623   1.779   0.833  17.193 -0.2381 -0.1858 -0.0297
 6711TIP3    H141624   1.727   0.764  17.153 -2.4734  0.0112  2.3345
 6711TIP3    H241625   1.836   0.788  17.256 -1.6108  0.0365  1.4261
 6712TIP3   OH241626   1.391   2.497   5.574 -0.1166 -0.2977 -0.8765
 6712TIP3    H141627   1.459   2.552   5.612 -0.4850  0.1554 -0.8471
 6712TIP3    H241628   1.438   2.427   5.529  0.3345 -2.2344  2.3072
 6713TIP3   OH241629   2.837   2.241   1.004 -0.1583 -0.0481 -0.3282
 6713TIP3    H141630   2.811   2.316   1.057 -0.5923 -0.2841 -0.2057
 6713TIP3    H241631   2.756   2.210   0.964 -0.0475 -0.6931 -0.0669
 6714TIP3   OH241632   6.468   2.664   1.725 -0.0903 -0.2815  0.1317
 6714TIP3    H141633   6.474   2.606   1.801  0.3363 -0.8077 -0.2939
 6714TIP3    H241634   6.556   2.665   1.688  0.0241  1.0019  0.3864
 6715TIP3   OH241635   1.103   3.820   2.915 -0.4201 -0.2621 -0.6132
 6715TIP3    H141636   1.093   3.775   2.999  2.8995 -0.9203 -0.4510
 6715TIP3    H241637   1.087   3.912   2.935  1.6069 -0.2093  1.1204
 6716TIP3   OH241638   3.126   3.028  12.740  0.1710  0.9768 -0.1030
 6716TIP3    H141639   3.062   2.961  12.764  1.0241 -0.5864 -1.9622
 6716TIP3    H241640   3.104   3.103  12.796 -2.1894 -0.0803  0.5045
 6717TIP3   OH241641   3.201   3.895  13.100 -0.6683  0.1222 -0.5732
 6717TIP3    H141642   3.172   3.832  13.034 -1.1772  2.1340 -2.3649
 6717TIP3    H241643   3.123   3.912  13.153 -0.4327 -0.9819  0.1644
 6718TIP3   OH241644   0.648   1.002  11.519 -0.5045  0.0305  0.6004
 6718TIP3    H141645   0.636   1.083  11.568 -2.5475  0.1672 -0.0425
 6718TIP3    H241646   0.609   0.934  11.575  1.3660 -0.5814  1.2242
 6719TIP3   OH241647   6.586   5.016   0.641 -0.3348  0.6490  0.2994
 6719TIP3    H141648   6.607   4.947   0.705 -0.4979 -0.0636 -0.3997
 6719TIP3    H241649   6.526   5.074   0.688 -0.6107  0.0260  0.7340
 6720TIP3   OH241650   6.223   5.320  16.507 -0.1816 -0.0313 -0.3411
 6720TIP3    H141651   6.307   5.283  16.479 -0.6342 -0.7011 -0.8336
 6720TIP3    H241652   6.246   5.381  16.577  0.7676  0.1505 -0.7902
 6721TIP3   OH241653   1.018   3.905   2.088 -0.0293  0.3349 -0.1404
 6721TIP3    H141654   1.107   3.890   2.056 -0.4126  1.4707 -1.8835
 6721TIP3    H241655   0.994   3.822   2.130  1.2758 -0.5360 -1.0146
 6722TIP3   OH241656   3.484   3.813   3.971  0.1027  0.0905  0.0512
 6722TIP3    H141657   3.559   3.760   3.946  0.2629  0.7313 -0.8451
 6722TIP3    H241658   3.513   3.903   3.959 -0.8864  0.3394 -0.5526
 6723TIP3   OH241659   6.727   2.272  17.138  0.3213  0.0671 -0.1448
 6723TIP3    H141660   6.774   2.286  17.220 -0.0391 -0.4467  0.1494
 6723TIP3    H241661   6.635   2.282  17.160  0.1795 -0.7199 -0.3460
 6724TIP3   OH241662   3.711   5.278   4.025  0.6359 -0.8356  0.2024
 6724TIP3    H141663   3.649   5.326   3.970  1.3093 -1.7747 -1.4414
 6724TIP3    H241664   3.779   5.341   4.045  0.1692 -0.3644  0.3243
 6725TIP3   OH241665   1.734   1.721  16.874  0.0708 -0.0398  0.2755
 6725TIP3    H141666   1.702   1.810  16.858  0.6781  0.0957 -0.2096
 6725TIP3    H241667   1.815   1.716  16.825 -0.6877 -1.3345 -0.8970
 6726TIP3   OH241668   5.909   2.593   3.882  0.6519 -0.4201 -0.3819
 6726TIP3    H141669   5.975   2.538   3.839 -0.4148 -2.2600  0.2199
 6726TIP3    H241670   5.920   2.573   3.975 -1.4653 -1.6759 -0.3420
 6727TIP3   OH241671   3.200   5.857   3.198 -0.2961  0.3126 -0.6610
 6727TIP3    H141672   3.247   5.898   3.270  0.1271 -0.8504 -0.2370
 6727TIP3    H241673   3.269   5.825   3.140 -0.6082  0.2274 -0.9889
 6728TIP3   OH241674   3.166   2.444   5.064  0.3754  0.0957  0.2748
 6728TIP3    H141675   3.111   2.442   5.143 -0.8638 -0.1405 -0.5636
 6728TIP3    H241676   3.218   2.524   5.073 -1.7181  1.5688  0.0865
 6729TIP3   OH241677   1.405   4.767  16.519 -0.4415 -0.3675  0.4283
 6729TIP3    H141678   1.372   4.832  16.582 -2.7218 -1.9940  1.0736
 6729TIP3    H241679   1.402   4.811  16.435  0.1969  1.0477  1.1095
 6730TIP3   OH241680   3.616   1.981   1.767  0.1806 -0.1574 -0.5485
 6730TIP3    H141681   3.533   2.029   1.771 -0.3719 -1.1673  1.7971
 6730TIP3    H241682   3.591   1.892   1.740  0.4319 -0.5236  0.3715
 6731TIP3   OH241683   1.565   4.401  16.972  0.0800 -0.5455 -0.2384
 6731TIP3    H141684   1.628   4.424  17.039 -1.3127 -1.0642  1.3224
 6731TIP3    H241685   1.535   4.313  16.996 -1.6833 -0.0614 -0.5305
 6732TIP3   OH241686   3.676   6.330  14.262 -0.2132  0.2863 -0.1145
 6732TIP3    H141687   3.595   6.348  14.214  1.1597 -0.1308 -2.7564
 6732TIP3    H241688   3.738   6.301  14.196  2.0914  0.4113  1.8281
 6733TIP3   OH241689   1.239   4.118   3.880 -0.0489  0.1304  0.0334
 6733TIP3    H141690   1.203   4.122   3.969  0.7343  0.3405  0.3517
 6733TIP3    H241691   1.334   4.125   3.893  0.0122  1.3061 -0.8915
 6734TIP3   OH241692   5.616   2.930  11.653  0.0656  0.3472  0.1633
 6734TIP3    H141693   5.683   2.910  11.718 -0.4186 -0.6612  0.3755
 6734TIP3    H241694   5.630   2.866  11.583 -1.4258 -0.7626  0.7894
 6735TIP3   OH241695   4.924   5.419   4.400 -0.4314  0.1308 -0.7331
 6735TIP3    H141696   4.927   5.501   4.352 -0.8798 -0.3482 -1.5952
 6735TIP3    H241697   4.940   5.444   4.491  0.6519  1.0170 -1.1557
 6736TIP3   OH241698   0.357   1.004  14.155 -0.3889 -0.1473  0.5153
 6736TIP3    H141699   0.366   1.075  14.092 -0.7858  1.1286  1.8591
 6736TIP3    H241700   0.438   1.006  14.206 -0.5530 -0.4201  0.7975
 6737TIP3   OH241701   0.390   2.359  15.800  0.0582 -0.4645 -0.3351
 6737TIP3    H141702   0.345   2.421  15.857  0.0493 -1.9307  1.3502
 6737TIP3    H241703   0.322   2.325  15.743  0.0349  0.9291 -1.1638
 6738TIP3   OH241704   4.941   2.776   4.742 -0.2080 -0.1624  0.1465
 6738TIP3    H141705   4.915   2.710   4.807 -3.7998  1.1528  0.3168
 6738TIP3    H241706   4.925   2.735   4.658 -2.0743  0.2601  0.2497
 6739TIP3   OH241707   4.662   6.743  16.752  0.7505  0.4340  0.0138
 6739TIP3    H141708   4.572   6.743  16.718  0.5597  0.3767  0.5005
 6739TIP3    H241709   4.713   6.789  16.685  0.3239  0.6363 -0.1818
 6740TIP3   OH241710   5.938   4.789  12.991 -0.3367  0.7103  0.2381
 6740TIP3    H141711   5.923   4.769  12.899  2.2144 -1.1366  0.1268
 6740TIP3    H241712   6.004   4.859  12.990  0.1431  0.2677  0.6536
 6741TIP3   OH241713   5.577   5.816  16.323  0.2793  1.1371  0.6177
 6741TIP3    H141714   5.540   5.904  16.336  1.2710  1.4334  1.6082
 6741TIP3    H241715   5.565   5.773  16.408 -0.8316  0.0411 -0.0599
 6742TIP3   OH241716   2.300   0.477  14.284  0.0520 -0.5398  0.1255
 6742TIP3    H141717   2.222   0.532  14.294  0.7880  0.8082 -1.0177
 6742TIP3    H241718   2.269   0.401  14.234 -0.1675  1.1046 -2.4580
 6743TIP3   OH241719   2.248   0.954  11.669  0.0047  0.3771  0.2216
 6743TIP3    H141720   2.236   0.990  11.757 -0.4456 -0.1433  0.3844
 6743TIP3    H241721   2.336   0.917  11.670 -0.6057 -1.1600  1.0422
 6744TIP3   OH241722   2.317   3.945   2.757  0.6813 -0.1114 -0.3791
 6744TIP3    H141723   2.233   3.960   2.801  0.2801  0.9217 -1.4356
 6744TIP3    H241724   2.382   3.956   2.826 -0.0688 -3.0114  0.9648
 6745TIP3   OH241725   3.997   1.579   2.056  0.9804  0.1935  0.6574
 6745TIP3    H141726   4.052   1.540   1.988  1.6348  1.3468  0.4876
 6745TIP3    H241727   4.048   1.569   2.137 -0.1061 -1.8139  1.1534
 6746TIP3   OH241728   6.362   3.713  14.352  0.3831  0.2269  0.2017
 6746TIP3    H141729   6.316   3.674  14.426  0.6764  0.5198  0.5408
 6746TIP3    H241730   6.408   3.788  14.389  1.4605 -0.2914 -0.0444
 6747TIP3   OH241731   4.900   3.357  11.388  0.2940  0.7767 -0.4804
 6747TIP3    H141732   4.903   3.315  11.302  1.7358 -1.9646  0.7639
 6747TIP3    H241733   4.822   3.319  11.430  0.9049  0.2547  0.2135
 6748TIP3   OH241734   6.173   2.580   4.647 -0.4338 -0.0039  0.0415
 6748TIP3    H141735   6.194   2.494   4.610  0.4812  0.0234  0.4594
 6748TIP3    H241736   6.258   2.617   4.669 -0.6306  1.9820 -2.2216
 6749TIP3   OH241737   2.388   5.299   2.021 -0.2481  0.6501 -0.2737
 6749TIP3    H141738   2.385   5.251   1.938 -0.0376 -3.3479  1.7762
 6749TIP3    H241739   2.481   5.315   2.036  0.1275 -1.9170  0.7111
 6750TIP3   OH241740   4.375   1.960  15.132 -1.0010  0.0114 -0.5256
 6750TIP3    H141741   4.361   1.903  15.207  1.8298 -0.5991 -0.3371
 6750TIP3    H241742   4.384   1.900  15.058  1.0700  0.1940 -0.4791
 6751TIP3   OH241743   5.209   1.287  17.087  0.5200  1.0370 -0.4751
 6751TIP3    H141744   5.147   1.344  17.132  0.4151  0.4910  0.0817
 6751TIP3    H241745   5.159   1.251  17.013 -0.0210  0.1593  0.2907
 6752TIP3   OH241746   1.784   4.620  15.341  0.3249  0.5161  0.9644
 6752TIP3    H141747   1.773   4.582  15.429  1.1201  0.0821  0.8917
 6752TIP3    H241748   1.878   4.609  15.323 -0.3342 -2.8289 -1.4830
 6753TIP3   OH241749   3.135   2.056  12.154  0.2310 -0.5059 -0.2834
 6753TIP3    H141750   3.071   2.069  12.083 -0.0034 -1.2163 -0.2151
 6753TIP3    H241751   3.155   1.962  12.150  0.1352 -0.5751  0.6613
 6754TIP3   OH241752   2.952   2.089  15.901 -0.6445 -0.1292 -0.3711
 6754TIP3    H141753   2.932   2.170  15.854 -0.0894 -0.7104 -1.6411
 6754TIP3    H241754   3.015   2.044  15.847  0.0940 -0.8067  0.9946
 6755TIP3   OH241755   4.831   4.429  13.254 -0.0506  0.9119  0.4137
 6755TIP3    H141756   4.747   4.403  13.219  0.6035 -0.0918 -0.4392
 6755TIP3    H241757   4.812   4.507  13.307 -1.5911  0.3387  0.7365
 6756TIP3   OH241758   5.901   2.145   0.038 -0.5128 -0.5591 -0.5252
 6756TIP3    H141759   5.979   2.201   0.039 -0.1633 -0.9255 -2.6240
 6756TIP3    H241760   5.931   2.061   0.074  0.5370 -1.1921 -2.7100
 6757TIP3   OH241761   5.060   3.118   3.692  0.1791  0.1537  0.5093
 6757TIP3    H141762   5.004   3.174   3.638 -0.6956  0.8085  2.0450
 6757TIP3    H241763   5.034   3.029   3.669 -0.2364  0.4207 -0.0860
 6758TIP3   OH241764   4.339   6.582  12.587  0.1128 -0.7362 -0.2592
 6758TIP3    H141765   4.290   6.625  12.517  1.6749  3.4967  0.9860
 6758TIP3    H241766   4.281   6.512  12.617 -2.6061  0.3081 -2.6227
 6759TIP3   OH241767   4.462   0.586   6.298 -0.0938 -0.0900 -0.1365
 6759TIP3    H141768   4.380   0.543   6.274  0.0693  0.3947 -1.6488
 6759TIP3    H241769   4.530   0.532   6.259  0.3048 -0.3384  0.8788
 6760TIP3   OH241770   4.897   4.620  17.085 -0.4705 -0.2271  0.1247
 6760TIP3    H141771   4.901   4.630  16.990 -0.3265 -0.4837  0.1018
 6760TIP3    H241772   4.893   4.710  17.118  3.1618  0.1179  0.0581
 6761TIP3   OH241773   2.720   4.084  13.899  0.0030 -0.1252  0.3145
 6761TIP3    H141774   2.779   4.159  13.894  0.2187 -0.2518  0.8542
 6761TIP3    H241775   2.685   4.075  13.811 -0.4855  0.9791  0.3778
 6762TIP3   OH241776   4.399   0.567  14.887  0.0663  0.3141  0.6097
 6762TIP3    H141777   4.445   0.495  14.930 -0.0096 -0.6511 -0.8753
 6762TIP3    H241778   4.423   0.644  14.939  0.5618 -0.6795  1.9253
 6763TIP3   OH241779   2.052   4.493   2.574  0.1202 -0.0333  0.0367
 6763TIP3    H141780   2.049   4.420   2.635 -0.5653  0.1823  0.2769
 6763TIP3    H241781   2.013   4.459   2.494  2.0373 -0.6516 -0.6771
 6764TIP3   OH241782   2.308   0.349   2.021  0.1704 -0.2996  0.1230
 6764TIP3    H141783   2.373   0.285   2.050 -0.7326 -2.0007 -1.4454
 6764TIP3    H241784   2.230   0.330   2.073  0.3731  0.6424  0.8083
 6765TIP3   OH241785   5.495   1.262   2.312  0.3532  0.3396  0.0671
 6765TIP3    H141786   5.571   1.318   2.300  1.7117 -1.4360  0.0552
 6765TIP3    H241787   5.518   1.180   2.269 -1.1883 -0.5580  0.8592
 6766TIP3   OH241788   3.724   2.561  14.268  0.1047 -0.0724  0.0310
 6766TIP3    H141789   3.779   2.637  14.250  0.6908 -0.2216  1.1165
 6766TIP3    H241790   3.749   2.533  14.356 -0.8196 -0.9135  0.0474
 6767TIP3   OH241791   1.755   2.105  10.136  0.1300 -0.2307 -0.1667
 6767TIP3    H141792   1.806   2.054  10.199 -0.8562 -2.2745 -0.9058
 6767TIP3    H241793   1.714   2.174  10.188  0.9800 -0.5970  1.0303
 6768TIP3   OH241794   2.968   6.083   4.366 -0.5070 -0.6196  0.3877
 6768TIP3    H141795   3.019   6.030   4.428  0.5571 -1.2945 -1.0135
 6768TIP3    H241796   2.879   6.079   4.399 -0.3938 -2.9726  0.5812
 6769TIP3   OH241797   6.256   5.475  12.375 -0.0091  0.1899 -0.0632
 6769TIP3    H141798   6.269   5.510  12.287  0.4354 -1.0228 -0.4900
 6769TIP3    H241799   6.218   5.389  12.362  2.2583 -1.0264  0.8074
 6770TIP3   OH241800   2.197   1.550   4.939  0.3328  0.4941 -0.2007
 6770TIP3    H141801   2.144   1.537   4.860 -1.1963 -1.9439  1.0945
 6770TIP3    H241802   2.134   1.569   5.008  1.1608 -1.4279  1.1845
 6771TIP3   OH241803   6.513   1.948   4.144 -0.3522 -0.0302  0.1225
 6771TIP3    H141804   6.455   2.019   4.116 -1.8462 -1.0117  0.6147
 6771TIP3    H241805   6.596   1.992   4.164 -1.3278  1.6380  0.7432
 6772TIP3   OH241806   1.171   6.193  11.890  0.0451  0.3945 -0.4626
 6772TIP3    H141807   1.263   6.171  11.876  0.4422  1.3122  0.5871
 6772TIP3    H241808   1.141   6.225  11.805  0.3067 -1.1400 -1.1654
 6773TIP3   OH241809   4.803   4.394   5.269  0.5868 -0.2735 -0.7967
 6773TIP3    H141810   4.734   4.455   5.245  0.4354 -0.8170 -1.8259
 6773TIP3    H241811   4.757   4.319   5.306  0.5442 -0.9149 -2.0871
 6774TIP3   OH241812   4.001   0.319   0.176 -0.0728  0.3898  0.0444
 6774TIP3    H141813   3.928   0.369   0.213 -2.1038 -2.0446 -0.3952
 6774TIP3    H241814   4.031   0.370   0.101 -1.6954  1.1946 -0.0818
 6775TIP3   OH241815   2.240   1.435   0.570 -0.8273  0.7031  0.4785
 6775TIP3    H141816   2.177   1.481   0.515 -1.4270 -0.5612  0.0730
 6775TIP3    H241817   2.255   1.351   0.525  1.4041  1.0850  0.3709
 6776TIP3   OH241818   4.569   6.248  13.354  0.0068  0.7153  0.6367
 6776TIP3    H141819   4.603   6.320  13.407  0.3082  0.8414  0.2754
 6776TIP3    H241820   4.520   6.193  13.416 -0.3487  1.3053  0.8841
 6777TIP3   OH241821   3.455   4.389  15.731  0.1376  0.0905 -0.1688
 6777TIP3    H141822   3.429   4.318  15.789 -1.5273 -0.0714 -1.0442
 6777TIP3    H241823   3.549   4.376  15.717  0.7799  0.6230  3.0578
 6778TIP3   OH241824   3.588   0.778  12.428 -0.2279 -0.0978 -0.4771
 6778TIP3    H141825   3.512   0.815  12.474 -0.8696  1.9967 -2.9536
 6778TIP3    H241826   3.558   0.694  12.396 -0.9253 -0.0327 -0.0244
 6779TIP3   OH241827   6.225   4.998   0.267 -0.5689 -0.5277  0.0261
 6779TIP3    H141828   6.252   5.024   0.355 -1.6171  1.6790 -0.2428
 6779TIP3    H241829   6.298   4.945   0.234  0.6881  0.2076  1.5014
 6780TIP3   OH241830   0.656   6.041   3.862 -0.2017 -0.5277 -0.1261
 6780TIP3    H141831   0.749   6.055   3.844  0.1852 -2.7918 -0.2975
 6780TIP3    H241832   0.611   6.107   3.810  1.3051  2.2932  1.8618
 6781TIP3   OH241833   1.342   2.467  16.439 -0.1355  0.9162  0.1098
 6781TIP3    H141834   1.398   2.398  16.403 -0.3351  0.8054  0.0122
 6781TIP3    H241835   1.280   2.487  16.369 -0.0097  1.2678  0.1002
 6782TIP3   OH241836   5.994   0.677  13.207  0.1755  0.4611 -0.2945
 6782TIP3    H141837   5.972   0.705  13.118  0.9836  0.8897 -0.3711
 6782TIP3    H241838   6.086   0.702  13.218  0.6410 -1.2300  0.0173
 6783TIP3   OH241839   5.425   6.157   5.784  0.5683 -0.1055 -0.6343
 6783TIP3    H141840   5.374   6.170   5.864 -0.1958 -0.2579 -1.0886
 6783TIP3    H241841   5.502   6.107   5.813 -0.1436 -0.9540 -0.1373
 6784TIP3   OH241842   4.010   4.318  12.492 -0.3597  0.1399  0.4003
 6784TIP3    H141843   4.090   4.270  12.512 -0.1588  1.2643  2.6237
 6784TIP3    H241844   4.040   4.394  12.442 -0.0792  0.3836  0.9373
 6785TIP3   OH241845   3.386   0.278  14.864 -0.2590 -0.3145  0.5851
 6785TIP3    H141846   3.343   0.255  14.782 -1.1937 -0.0285  0.9765
 6785TIP3    H241847   3.446   0.348  14.841 -1.9491  1.1640  0.4452
 6786TIP3   OH241848   5.091   4.390   5.304 -0.0898  0.7812 -0.2238
 6786TIP3    H141849   4.996   4.385   5.311 -0.0229 -1.0423 -0.1995
 6786TIP3    H241850   5.112   4.340   5.225  1.0386 -2.0705  1.7081
 6787TIP3   OH241851   4.554   4.860  13.561  0.3869  0.5273 -0.0847
 6787TIP3    H141852   4.474   4.883  13.608  1.5892  2.0031  1.3603
 6787TIP3    H241853   4.576   4.938  13.510  1.1857  0.3393 -0.0435
 6788TIP3   OH241854   2.773   2.007   3.805 -0.2857 -0.1258 -0.5963
 6788TIP3    H141855   2.705   1.950   3.841  2.3134 -3.8698 -1.1382
 6788TIP3    H241856   2.749   2.018   3.713 -0.9462 -0.1176 -0.4282
 6789TIP3   OH241857   4.524   5.353   5.224 -0.0064  0.0761 -0.1432
 6789TIP3    H141858   4.460   5.425   5.224  0.0533  0.1366  0.5962
 6789TIP3    H241859   4.516   5.314   5.136 -0.4772  0.5933 -0.3392
 6790TIP3   OH241860   2.330   4.945   4.012  0.4177  0.3274  0.2204
 6790TIP3    H141861   2.321   4.877   3.946 -2.8030 -0.9675  1.8000
 6790TIP3    H241862   2.262   5.009   3.991 -0.7999 -0.1987  2.2782
 6791TIP3   OH241863   2.005   3.581  11.337 -0.0083  0.3443 -0.0475
 6791TIP3    H141864   2.007   3.671  11.305 -1.6178 -0.3159 -2.2505
 6791TIP3    H241865   2.052   3.530  11.271 -0.5409 -0.6430  0.3070
 6792TIP3   OH241866   5.215   6.473   3.937 -0.2210  0.6036 -0.1837
 6792TIP3    H141867   5.246   6.469   3.847  0.6502 -0.9853  0.1456
 6792TIP3    H241868   5.121   6.490   3.930 -0.6834 -2.0530 -1.5201
 6793TIP3   OH241869   3.300   1.389   2.157 -0.4498  0.7621  0.5553
 6793TIP3    H141870   3.341   1.329   2.219 -3.1985 -1.5786  0.3203
 6793TIP3    H241871   3.360   1.391   2.083  1.3479  1.0818  1.9423
 6794TIP3   OH241872   1.334   3.842  13.678 -0.2171 -0.0093 -0.4664
 6794TIP3    H141873   1.269   3.902  13.642  1.6193  1.7040 -1.1225
 6794TIP3    H241874   1.346   3.871  13.768  1.3033  1.2880 -1.0302
 6795TIP3   OH241875   2.662   6.016   4.900  1.0867  0.0236 -0.7088
 6795TIP3    H141876   2.709   5.941   4.865  0.8526 -0.2347 -0.4733
 6795TIP3    H241877   2.587   6.027   4.842  0.8544 -0.2289 -0.4603
 6796TIP3   OH241878   6.532   4.750  10.974 -0.1121 -0.0302 -0.4416
 6796TIP3    H141879   6.553   4.742  10.881  1.2631 -1.7947 -0.0391
 6796TIP3    H241880   6.436   4.751  10.977 -0.3558 -3.8292 -1.7119
 6797TIP3   OH241881   4.785   5.822  16.899  0.4323  0.1674  0.1959
 6797TIP3    H141882   4.760   5.878  16.973 -0.3161  2.6531 -1.8257
 6797TIP3    H241883   4.880   5.814  16.906  0.4583  1.0059  1.0043
 6798TIP3   OH241884   5.193   3.641  14.838 -0.0558 -0.0438  0.2812
 6798TIP3    H141885   5.116   3.610  14.791  1.0173  0.9747 -2.3660
 6798TIP3    H241886   5.264   3.584  14.809  0.5714  0.2839  1.1133
 6799TIP3   OH241887   4.279   2.314  13.638 -0.3491  0.0010  0.2434
 6799TIP3    H141888   4.321   2.336  13.721 -1.4858 -2.0369  1.4278
 6799TIP3    H241889   4.350   2.320  13.573  0.9677 -0.0533  1.6210
 6800TIP3   OH241890   5.389   4.177  13.387  0.2826 -0.0423 -0.4166
 6800TIP3    H141891   5.315   4.175  13.447 -0.1234  1.4718 -0.8206
 6800TIP3    H241892   5.464   4.203  13.442  0.3367 -0.6324 -0.1990
 6801TIP3   OH241893   2.546   4.874   1.494  0.5422 -0.4712  1.0635
 6801TIP3    H141894   2.459   4.837   1.478 -0.1397  1.3081  0.4270
 6801TIP3    H241895   2.605   4.818   1.443 -0.2031 -1.7048  1.5078
 6802TIP3   OH241896   6.598   2.343   3.389  0.5263 -0.3681  0.5638
 6802TIP3    H141897   6.510   2.380   3.386 -0.2349 -2.0005  1.4150
 6802TIP3    H241898   6.644   2.395   3.454  0.3929  0.8554 -0.2884
 6803TIP3   OH241899   1.945   3.396  11.957 -0.6802  0.0141 -0.9696
 6803TIP3    H141900   1.971   3.479  11.999 -0.3368 -1.2570  1.4898
 6803TIP3    H241901   1.863   3.372  11.999 -1.5732 -0.2210 -2.7368
 6804TIP3   OH241902   3.679   0.757   2.643 -0.2160  0.0385 -0.0469
 6804TIP3    H141903   3.600   0.730   2.691 -0.4062  0.1511 -0.2985
 6804TIP3    H241904   3.674   0.710   2.560 -3.0063  4.2570 -2.6067
 6805TIP3   OH241905   1.112   6.738  12.079  0.2659 -0.2291  0.5768
 6805TIP3    H141906   1.033   6.786  12.104  1.0586  1.8865 -0.7214
 6805TIP3    H241907   1.083   6.678  12.010 -0.2043  0.5150  0.1249
 6806TIP3   OH241908   4.628   0.993   1.216  0.0513 -0.6239 -0.4398
 6806TIP3    H141909   4.611   1.049   1.140  1.6032 -0.3055 -0.5914
 6806TIP3    H241910   4.698   1.038   1.263  0.1460 -1.5888  0.3661
 6807TIP3   OH241911   3.457   5.206   5.814 -0.0269  0.1767 -0.1389
 6807TIP3    H141912   3.442   5.235   5.904  1.5376 -0.6230  0.4126
 6807TIP3    H241913   3.469   5.286   5.764 -1.3216  0.6475  0.2537
 6808TIP3   OH241914   0.274   4.132  11.945  0.9167  0.3644 -0.1743
 6808TIP3    H141915   0.344   4.176  11.992  0.8824 -0.5719  0.7807
 6808TIP3    H241916   0.253   4.191  11.872  2.4516  0.8106 -0.2792
 6809TIP3   OH241917   0.297   2.264   4.189  0.4352  0.1157 -0.5232
 6809TIP3    H141918   0.363   2.333   4.192  1.0559 -0.2360 -3.4901
 6809TIP3    H241919   0.223   2.300   4.239  2.0789  1.3085  1.2172
 6810TIP3   OH241920   5.713   2.967   1.502 -0.5247 -0.9041 -0.0171
 6810TIP3    H141921   5.796   2.947   1.545  0.5906  0.6264 -1.3166
 6810TIP3    H241922   5.653   2.987   1.573  0.8114 -0.0143  0.8974
 6811TIP3   OH241923   6.612   0.743  14.223 -0.3656  0.3146  0.0080
 6811TIP3    H141924   6.547   0.812  14.207  0.1574  0.7845 -0.1297
 6811TIP3    H241925   6.560   0.663  14.230 -1.0419  0.7952  0.7237
 6812TIP3   OH241926   0.267   4.342  15.310  0.1165  0.2628 -0.2989
 6812TIP3    H141927   0.233   4.431  15.299 -1.1094 -0.1487  0.0096
 6812TIP3    H241928   0.331   4.348  15.381  0.7773  1.0707 -0.9435
 6813TIP3   OH241929   3.202   2.318  16.592  0.3572 -0.4400  0.3113
 6813TIP3    H141930   3.190   2.353  16.504  0.2775 -0.5646  0.2711
 6813TIP3    H241931   3.283   2.358  16.624  0.2062 -0.1367  0.3117
 6814TIP3   OH241932   2.266   1.799  16.858  0.2602  0.0539 -0.3387
 6814TIP3    H141933   2.285   1.790  16.765  0.7365 -1.4195 -0.1181
 6814TIP3    H241934   2.340   1.850  16.893  0.2002  0.4000 -0.7077
 6815TIP3   OH241935   4.694   3.401  14.409  0.4869  0.5077 -0.8440
 6815TIP3    H141936   4.789   3.394  14.412  0.7598  3.1293 -0.9651
 6815TIP3    H241937   4.668   3.415  14.500 -0.1990 -3.0386 -0.3335
 6816TIP3   OH241938   4.494   4.448   2.897  0.1159  0.1123  0.3298
 6816TIP3    H141939   4.463   4.531   2.861  1.8434  0.8646  0.4791
 6816TIP3    H241940   4.586   4.443   2.869 -0.1164 -2.0476 -0.1873
 6817TIP3   OH241941   6.088   3.920   5.699 -0.3457  0.4780  0.3043
 6817TIP3    H141942   6.029   3.994   5.686  0.9189  1.7644  1.4986
 6817TIP3    H241943   6.168   3.945   5.652 -0.4545 -0.8970 -0.6661
 6818TIP3   OH241944   2.553   4.665   4.515  0.5791  0.3219 -0.0909
 6818TIP3    H141945   2.527   4.623   4.597 -0.6361  1.0664 -0.0812
 6818TIP3    H241946   2.545   4.595   4.449  0.4761  0.0189  0.2381
 6819TIP3   OH241947   1.541   3.952   1.438  0.1112 -0.3201 -0.2905
 6819TIP3    H141948   1.566   3.921   1.351 -0.7545  0.6140 -0.8925
 6819TIP3    H241949   1.446   3.939   1.442  0.2742 -1.3242  0.9273
 6820TIP3   OH241950   3.532   1.796   3.599  0.3983  0.2494  0.1530
 6820TIP3    H141951   3.457   1.741   3.577  1.7992 -1.4145 -0.5822
 6820TIP3    H241952   3.495   1.885   3.605 -1.8020 -0.6518  0.8501
 6821TIP3   OH241953   3.517   3.976  11.764 -0.2345 -0.2430  0.0919
 6821TIP3    H141954   3.512   3.884  11.790  1.4300 -0.4484 -0.1763
 6821TIP3    H241955   3.608   4.000  11.780 -0.7365  1.4886  0.5254
 6822TIP3   OH241956   1.670   1.000  12.352 -1.0298 -0.6141  0.5033
 6822TIP3    H141957   1.706   0.975  12.437 -0.5495  0.4133  0.6238
 6822TIP3    H241958   1.702   1.090  12.338  0.0239 -1.2233 -1.3501
 6823TIP3   OH241959   5.093   1.130  15.085 -0.0640 -0.2471 -0.5489
 6823TIP3    H141960   5.042   1.078  15.023  0.8773 -0.1739 -1.4069
 6823TIP3    H241961   5.135   1.197  15.031  1.0498 -0.3958  0.1172
 6824TIP3   OH241962   5.007   4.759   4.669  0.0927  0.2090  0.2179
 6824TIP3    H141963   5.002   4.678   4.620  0.4049  0.1234  0.3237
 6824TIP3    H241964   4.932   4.756   4.729  0.7448 -0.5419  1.0284
 6825TIP3   OH241965   6.663   2.240  13.738 -0.8847 -0.2800 -0.1636
 6825TIP3    H141966   6.637   2.303  13.671 -2.4587  0.9887  1.5061
 6825TIP3    H241967   6.737   2.281  13.783 -1.3203 -0.0342  0.3381
 6826TIP3   OH241968   3.595   5.661   1.373  0.0838  0.4532 -0.0314
 6826TIP3    H141969   3.665   5.704   1.325  0.3836  1.6992  1.4892
 6826TIP3    H241970   3.516   5.709   1.348 -0.2210 -0.6408 -1.3554
 6827TIP3   OH241971   2.063   6.363   3.148 -0.2447  0.1255 -0.0985
 6827TIP3    H141972   2.061   6.354   3.244 -0.3468 -0.9660 -0.1854
 6827TIP3    H241973   2.006   6.438   3.130  0.5956  0.9929  0.7565
 6828TIP3   OH241974   2.640   6.081   1.909 -0.0469 -0.8422 -0.5679
 6828TIP3    H141975   2.650   6.083   2.004  0.3514 -1.3303 -0.5990
 6828TIP3    H241976   2.546   6.094   1.895  0.3000  4.1253 -0.2927
 6829TIP3   OH241977   2.795   1.132   3.848 -0.0623  0.1292 -0.7018
 6829TIP3    H141978   2.834   1.085   3.921  0.9541 -0.8433 -1.8287
 6829TIP3    H241979   2.754   1.208   3.888 -0.7299 -1.0727  1.0454
 6830TIP3   OH241980   1.707   1.438  16.497 -0.3742 -0.1524 -0.2246
 6830TIP3    H141981   1.757   1.362  16.526 -1.2079 -0.7618 -0.3691
 6830TIP3    H241982   1.682   1.418  16.407 -0.5478  0.3253 -0.2882
 6831TIP3   OH241983   5.733   1.577  13.866 -0.1700  0.9309 -0.2222
 6831TIP3    H141984   5.721   1.483  13.861 -0.1232  0.7977  1.5587
 6831TIP3    H241985   5.690   1.611  13.787 -1.0495 -0.4866 -0.3901
 6832TIP3   OH241986   1.097   4.715  16.874  0.1372 -0.7740  0.3458
 6832TIP3    H141987   1.118   4.805  16.898  0.5069 -0.6397 -0.4423
 6832TIP3    H241988   1.182   4.675  16.854 -0.0556 -1.2014  0.3598
 6833TIP3   OH241989   2.248   2.494  16.349  0.0283  0.3918 -0.7921
 6833TIP3    H141990   2.300   2.545  16.411 -0.8232  1.3565 -0.8569
 6833TIP3    H241991   2.301   2.492  16.269 -0.0925  1.5023 -0.9120
 6834TIP3   OH241992   4.159   1.033   5.711 -0.1299 -0.0208 -0.5198
 6834TIP3    H141993   4.245   0.995   5.692 -0.6968 -2.7535  1.7430
 6834TIP3    H241994   4.170   1.078   5.795 -0.6678  0.5550 -0.7479
 6835TIP3   OH241995   0.180   0.063  15.441  0.5373  0.3705  0.2654
 6835TIP3    H141996   0.273   0.081  15.452  0.5936  0.2026  0.0560
 6835TIP3    H241997   0.150   0.129  15.378  0.1137  1.6448  1.7039
 6836TIP3   OH241998   1.271   3.065  13.042  0.1758 -0.1362 -0.0003
 6836TIP3    H141999   1.353   3.036  13.001  0.1245  1.7061 -1.5639
 6836TIP3    H242000   1.222   2.985  13.058  3.1460 -1.5928  3.1804
 6837TIP3   OH242001   3.423   1.022   2.960  0.0038 -0.4062 -0.2966
 6837TIP3    H142002   3.455   0.946   3.009 -0.1594 -0.5003 -0.3363
 6837TIP3    H242003   3.491   1.088   2.973  0.0679 -0.5035 -0.1247
 6838TIP3   OH242004   2.651   3.457   3.811 -0.7284 -0.3704  0.0802
 6838TIP3    H142005   2.687   3.545   3.802  1.5956 -1.0353  1.8346
 6838TIP3    H242006   2.606   3.441   3.729  0.6883  1.6458 -1.1792
 6839TIP3   OH242007   5.427   0.383   0.647 -0.1753 -0.3243  0.5883
 6839TIP3    H142008   5.515   0.407   0.676  0.0063  0.7775 -0.7941
 6839TIP3    H242009   5.394   0.460   0.602 -1.7159 -0.8586  0.7315
 6840TIP3   OH242010   6.505   0.996  13.129 -0.0506  0.5173  0.2632
 6840TIP3    H142011   6.488   1.016  13.221 -0.6348  0.2990  0.2051
 6840TIP3    H242012   6.419   0.978  13.092  0.1960  0.4809 -0.2980
 6841TIP3   OH242013   6.170   1.779   1.762  0.0671  0.0405 -0.1511
 6841TIP3    H142014   6.224   1.701   1.758  2.1897  1.3325  1.4518
 6841TIP3    H242015   6.214   1.836   1.825  0.0750  3.5759 -3.0248
 6842TIP3   OH242016   4.943   1.330   1.233  0.0937  0.3635  0.2027
 6842TIP3    H142017   4.913   1.421   1.234  0.4423  0.5246 -1.1002
 6842TIP3    H242018   4.878   1.282   1.284 -0.2390  1.2955  0.6831
 6843TIP3   OH242019   5.175   5.256   2.378 -0.0110  0.1532 -0.2985
 6843TIP3    H142020   5.102   5.204   2.344 -0.2507 -1.2794  2.1601
 6843TIP3    H242021   5.133   5.325   2.430  0.3694  0.1429  0.0245
 6844TIP3   OH242022   5.017   0.730  15.320 -0.6143 -0.0608  0.6729
 6844TIP3    H142023   5.092   0.773  15.362  0.3719  0.8865 -1.8503
 6844TIP3    H242024   5.023   0.639  15.347  2.0456 -0.2143 -0.1643
 6845TIP3   OH242025   4.296   5.317  11.437  0.2421  0.0065 -0.1828
 6845TIP3    H142026   4.292   5.231  11.396  0.3443  0.1298 -0.4505
 6845TIP3    H242027   4.204   5.341  11.451  0.1751 -1.5009  2.7600
 6846TIP3   OH242028   4.668   4.636   0.205 -0.0892  0.4827 -1.1802
 6846TIP3    H142029   4.749   4.676   0.175  0.3855 -0.1325 -0.7553
 6846TIP3    H242030   4.696   4.565   0.263 -0.6786 -3.2502 -5.0230
 6847TIP3   OH242031   4.659   0.951  16.294 -0.5541  0.0132  0.4665
 6847TIP3    H142032   4.740   1.001  16.285 -0.6283 -0.0248 -0.5940
 6847TIP3    H242033   4.686   0.868  16.335  0.0898 -0.3212 -0.5784
 6848TIP3   OH242034   0.599   1.868  12.795  0.2322  0.0146  0.5326
 6848TIP3    H142035   0.579   1.942  12.853  1.8883  1.0789 -0.1745
 6848TIP3    H242036   0.689   1.843  12.819 -0.1288 -1.4826  0.4353
 6849TIP3   OH242037   0.592   0.305  10.113  0.6093 -0.1261 -0.6594
 6849TIP3    H142038   0.532   0.234  10.132  2.5956 -1.8366 -0.4302
 6849TIP3    H242039   0.545   0.362  10.052 -0.5564 -2.3744 -1.9671
 6850TIP3   OH242040   4.155   4.268  12.135  0.2842 -0.2081  0.0931
 6850TIP3    H142041   4.096   4.307  12.071  1.4819 -0.2397 -1.0852
 6850TIP3    H242042   4.236   4.318  12.126  1.2335 -1.7020 -0.0992
 6851TIP3   OH242043   0.531   6.025   2.752 -0.6395  0.0581  0.4114
 6851TIP3    H142044   0.591   5.952   2.740 -0.9673  0.0776 -1.7559
 6851TIP3    H242045   0.459   5.989   2.803  0.5232 -0.3102  1.8903
 6852TIP3   OH242046   1.924   3.829  12.053  0.0811  0.5454  0.2159
 6852TIP3    H142047   1.944   3.917  12.086 -1.5354  1.0612 -0.1258
 6852TIP3    H242048   1.894   3.781  12.130  0.7058  0.3568  0.3499
 6853TIP3   OH242049   2.667   2.472   0.304 -0.2972 -0.1290  0.4092
 6853TIP3    H142050   2.586   2.452   0.256 -0.4608 -0.1198  0.6774
 6853TIP3    H242051   2.637   2.502   0.390  0.0087 -0.9104  0.8065
 6854TIP3   OH242052   0.791   3.793   3.217  0.2395  0.7638 -0.0970
 6854TIP3    H142053   0.787   3.882   3.253 -2.8160  0.8274 -0.3640
 6854TIP3    H242054   0.728   3.793   3.145  2.0534 -0.9603 -1.8140
 6855TIP3   OH242055   1.654   1.820  11.826  0.1720  0.4175  0.1824
 6855TIP3    H142056   1.621   1.743  11.871 -0.6349  0.2911 -0.5915
 6855TIP3    H242057   1.746   1.826  11.852 -0.4501  0.8519  2.5224
 6856TIP3   OH242058   6.216   2.598  15.786 -0.1613 -0.3025 -0.6655
 6856TIP3    H142059   6.143   2.583  15.727 -0.8986  0.0820  0.1230
 6856TIP3    H242060   6.179   2.588  15.874  1.1004 -1.7254 -0.2572
 6857TIP3   OH242061   4.623   3.075  16.157  0.4201  0.0794  0.1861
 6857TIP3    H142062   4.662   3.010  16.099  3.0721  1.2915  0.4657
 6857TIP3    H242063   4.543   3.103  16.112 -0.7450 -3.1551 -0.0151
 6858TIP3   OH242064   3.063   4.642   5.026 -0.1146  0.1869  0.5009
 6858TIP3    H142065   2.968   4.647   5.031 -0.0960 -0.1422  1.3541
 6858TIP3    H242066   3.094   4.686   5.105  0.4144 -0.3507  0.6023
 6859TIP3   OH242067   0.716   6.366  15.036 -0.2564  0.3839  0.1886
 6859TIP3    H142068   0.693   6.294  15.095  0.1093  0.6557  0.6776
 6859TIP3    H242069   0.668   6.348  14.955  1.3849 -1.4952 -0.4409
 6860TIP3   OH242070   1.021   2.521  11.919 -0.1599 -0.2544  0.4402
 6860TIP3    H142071   1.109   2.558  11.928  0.3459 -1.4998  0.7928
 6860TIP3    H242072   0.975   2.583  11.863  0.8706  0.5300  0.4230
 6861TIP3   OH242073   1.065   6.823  14.056  0.4159  0.5452 -0.1983
 6861TIP3    H142074   1.030   6.870  13.980  0.7517 -0.3100 -0.8971
 6861TIP3    H242075   1.036   6.733  14.044  0.4540  0.4060  0.7092
 6862TIP3   OH242076   3.902   3.691   5.855  0.0215  0.0431  0.0819
 6862TIP3    H142077   3.955   3.699   5.775 -0.3027 -2.1828 -0.4269
 6862TIP3    H242078   3.820   3.734   5.833 -0.1636 -0.7860 -0.9053
 6863TIP3   OH242079   3.450   4.638  11.964 -0.2174  0.0546 -0.2916
 6863TIP3    H142080   3.449   4.632  11.869 -1.6811 -0.4078 -0.2806
 6863TIP3    H242081   3.478   4.552  11.994 -0.0754  0.0964 -0.3055
 6864TIP3   OH242082   3.346   1.036  10.873 -0.3970 -0.6393 -0.3693
 6864TIP3    H142083   3.400   0.973  10.920  0.1495  0.5685  0.7116
 6864TIP3    H242084   3.377   1.034  10.783  3.3955  1.8308  0.6603
 6865TIP3   OH242085   4.316   0.671   0.117  0.4342 -0.2780 -0.5828
 6865TIP3    H142086   4.320   0.741   0.052 -0.8876 -0.8684 -1.3378
 6865TIP3    H242087   4.407   0.646   0.130  1.0012  1.9464  0.1409
 6866TIP3   OH242088   5.412   1.218  11.990  0.4134  0.6760 -0.0646
 6866TIP3    H142089   5.480   1.150  11.995 -0.7667 -0.6417 -0.9641
 6866TIP3    H242090   5.352   1.186  11.922 -1.0646  1.8214  0.6504
 6867TIP3   OH242091   2.330   4.847   0.040 -0.0363 -0.1098 -0.2100
 6867TIP3    H142092   2.244   4.888   0.039 -0.2686 -0.5877 -1.4721
 6867TIP3    H242093   2.313   4.757   0.068  0.3730  0.3764  1.7735
 6868TIP3   OH242094   3.990   6.469  16.265 -0.0288  0.0046 -0.1702
 6868TIP3    H142095   3.967   6.415  16.341 -1.3545 -0.0946 -0.6321
 6868TIP3    H242096   4.071   6.513  16.292 -0.4956  0.0161  1.3319
 6869TIP3   OH242097   2.659   4.888  16.659  0.1911  0.0778  0.4357
 6869TIP3    H142098   2.627   4.812  16.707  0.1247  0.0059  0.2806
 6869TIP3    H242099   2.734   4.920  16.710 -0.3654  0.4848  1.0201
 6870TIP3   OH242100   1.118   5.286  15.201 -0.2051 -0.3049  0.7991
 6870TIP3    H142101   1.155   5.217  15.146  0.4931 -0.0409  0.9245
 6870TIP3    H242102   1.138   5.367  15.154  0.7474 -0.0456  1.6067
 6871TIP3   OH242103   5.117   0.143   3.324 -0.5287 -0.4837 -0.6153
 6871TIP3    H142104   5.055   0.208   3.357 -0.6446 -1.5687  1.4694
 6871TIP3    H242105   5.194   0.194   3.300  0.3136  0.3270  3.2472
 6872TIP3   OH242106   4.608   0.900  13.510  0.4030 -0.1672 -0.2977
 6872TIP3    H142107   4.564   0.851  13.580  2.7820  0.6224  1.8641
 6872TIP3    H242108   4.687   0.850  13.492  1.9941  1.8611  0.7007
 6873TIP3   OH242109   4.377   1.921  16.730 -0.0694 -0.4824  0.1531
 6873TIP3    H142110   4.464   1.958  16.714 -0.2112 -0.7403 -1.2647
 6873TIP3    H242111   4.323   1.954  16.659 -0.5854 -2.1486 -0.2613
 6874TIP3   OH242112   6.287   4.295   2.453 -0.1494  0.1358 -0.4761
 6874TIP3    H142113   6.240   4.239   2.514  1.3431 -1.1247 -0.4312
 6874TIP3    H242114   6.377   4.294   2.484  0.3173  0.8045 -1.7510
 6875TIP3   OH242115   0.354   0.215   3.712 -0.1063 -0.0903 -0.4638
 6875TIP3    H142116   0.301   0.295   3.708  0.8747  0.6797  1.0235
 6875TIP3    H242117   0.444   0.247   3.718  0.2220 -1.2649  1.3838
 6876TIP3   OH242118   6.257   4.644  14.546  0.3410 -0.0574  0.5273
 6876TIP3    H142119   6.245   4.739  14.546 -0.2780 -0.1218 -0.2935
 6876TIP3    H242120   6.314   4.626  14.620  2.2571  1.1810 -0.5713
 6877TIP3   OH242121   1.515   3.555  13.403  0.3834  0.3395  0.0970
 6877TIP3    H142122   1.502   3.473  13.356  1.6886 -0.6478  1.3636
 6877TIP3    H242123   1.601   3.587  13.373 -0.0280  1.1546 -0.2442
 6878TIP3   OH242124   2.865   0.110  11.884 -0.0088  0.0747  0.2201
 6878TIP3    H142125   2.875   0.183  11.944 -1.4694  0.7513 -0.3039
 6878TIP3    H242126   2.863   0.032  11.940 -0.3318  0.6095  0.9566
 6879TIP3   OH242127   2.148   0.066   0.376  0.3902  0.3249 -0.4279
 6879TIP3    H142128   2.104   0.150   0.361  0.0771  0.4903  1.2596
 6879TIP3    H242129   2.089   0.018   0.433  1.2855 -0.4340 -0.1172
 6880TIP3   OH242130   5.317   5.430   3.787  0.0926  0.2037  0.5577
 6880TIP3    H142131   5.275   5.346   3.770  3.3100 -1.3779 -0.3466
 6880TIP3    H242132   5.333   5.429   3.882 -0.6140  0.1767  0.6792
 6881TIP3   OH242133   0.299   1.291  13.701  0.1109 -0.2985  0.0949
 6881TIP3    H142134   0.365   1.360  13.711 -0.4396  0.4058 -0.9599
 6881TIP3    H242135   0.323   1.246  13.620 -0.8009  0.0952 -0.4102
 6882TIP3   OH242136   5.706   5.938  14.732  1.3433 -0.2709 -0.0500
 6882TIP3    H142137   5.684   5.933  14.825  0.2335 -0.8425 -0.3262
 6882TIP3    H242138   5.743   6.025  14.720  2.1971 -0.4562  1.0621
 6883TIP3   OH242139   5.984   6.300  15.531  0.5862 -0.4837  0.1285
 6883TIP3    H142140   6.068   6.344  15.542 -0.3920  1.5234  0.0378
 6883TIP3    H242141   5.919   6.365  15.558 -1.0145 -1.4565 -1.1625
 6884TIP3   OH242142   6.616   3.202  13.756  0.3960 -0.1887 -0.7335
 6884TIP3    H142143   6.684   3.160  13.809 -1.5141 -1.9759  0.4520
 6884TIP3    H242144   6.544   3.139  13.756 -0.5942  0.7943 -3.5096
 6885TIP3   OH242145   5.918   4.172  14.151 -0.1619  0.4130 -0.2960
 6885TIP3    H142146   5.889   4.087  14.119 -1.6803  0.4400  0.8708
 6885TIP3    H242147   5.848   4.233  14.125 -0.0199  0.9399  0.5086
 6886TIP3   OH242148   1.046   3.234   2.016 -0.3945  0.2008 -0.7226
 6886TIP3    H142149   0.985   3.190   2.075 -1.1063  1.4526 -0.4745
 6886TIP3    H242150   1.018   3.326   2.018  1.6581  0.8803 -0.3840
 6887TIP3   OH242151   6.387   1.463   6.567 -0.2910 -0.0018 -0.1715
 6887TIP3    H142152   6.315   1.406   6.540 -0.4877 -1.2977  2.6816
 6887TIP3    H242153   6.444   1.407   6.619  1.4118  1.6158 -0.1843
 6888TIP3   OH242154   1.785   3.760  14.955 -0.0659  0.3288  0.2587
 6888TIP3    H142155   1.844   3.729  14.886 -0.9972 -0.7459 -0.0863
 6888TIP3    H242156   1.833   3.832  14.997  0.1868  1.6093 -2.0453
 6889TIP3   OH242157   0.379   1.465  15.761  0.3524  0.1487  0.0390
 6889TIP3    H142158   0.364   1.418  15.678 -0.7028  0.7945 -0.1538
 6889TIP3    H242159   0.469   1.497  15.754  0.0010  0.9578 -1.2705
 6890TIP3   OH242160   2.731   5.827  16.065 -0.2420  0.2332 -0.0759
 6890TIP3    H142161   2.652   5.815  16.118 -1.1426  0.9183 -1.2275
 6890TIP3    H242162   2.698   5.852  15.978  1.2463  3.0439  0.0471
 6891TIP3   OH242163   5.217   1.857  13.249  0.0501  0.1878 -0.0285
 6891TIP3    H142164   5.214   1.946  13.214 -0.9300 -0.4355 -1.6407
 6891TIP3    H242165   5.263   1.807  13.182 -1.2185 -0.9149 -0.1198
 6892TIP3   OH242166   5.099   5.672   0.014  0.0145 -0.0236 -0.0936
 6892TIP3    H142167   5.163   5.604  -0.006  1.8747  1.6158 -0.0301
 6892TIP3    H242168   5.067   5.651   0.102  1.0482 -0.4611  0.1863
 6893TIP3   OH242169   3.500   4.395   4.133  0.0531 -0.1355  0.6443
 6893TIP3    H142170   3.443   4.358   4.201  0.6378 -0.4830  0.9588
 6893TIP3    H242171   3.588   4.392   4.172  0.2187  0.8591  0.3565
 6894TIP3   OH242172   4.840   2.432   2.724 -0.8537  0.1144  0.1640
 6894TIP3    H142173   4.746   2.447   2.721 -1.0877 -0.8671  1.8611
 6894TIP3    H242174   4.851   2.351   2.773  0.7409 -1.5767 -2.7038
 6895TIP3   OH242175   5.886   5.802   6.735 -0.0456  0.5781 -0.0965
 6895TIP3    H142176   5.869   5.890   6.701  0.7604  1.1596  0.9473
 6895TIP3    H242177   5.981   5.796   6.742 -0.1482  0.2455  1.3685
 6896TIP3   OH242178   1.566   2.965   1.628  0.0578  0.0241 -0.4239
 6896TIP3    H142179   1.508   2.890   1.637  0.5019 -0.2892 -0.1624
 6896TIP3    H242180   1.557   2.991   1.536 -2.2419  1.4188  0.1166
 6897TIP3   OH242181   3.169   1.318   5.754  0.7342 -0.9176 -0.4326
 6897TIP3    H142182   3.243   1.263   5.779 -0.6935 -3.4749 -1.4606
 6897TIP3    H242183   3.107   1.309   5.826  0.7768 -0.0420 -0.2774
 6898TIP3   OH242184   3.141   2.645   0.411 -0.4591  0.1354 -0.1117
 6898TIP3    H142185   3.215   2.593   0.443 -0.9013 -0.2858  0.2247
 6898TIP3    H242186   3.149   2.642   0.316 -0.0723  0.0552 -0.0796
 6899TIP3   OH242187   1.033   2.190   1.354  0.2174 -0.3567 -1.0304
 6899TIP3    H142188   1.006   2.099   1.343 -0.7920  0.0542 -2.1518
 6899TIP3    H242189   0.952   2.236   1.378 -0.0103  0.7590 -3.5827
 6900TIP3   OH242190   2.284   6.000   5.137  0.0383  0.0870  0.0063
 6900TIP3    H142191   2.228   6.024   5.062  1.2014  2.0622 -0.2977
 6900TIP3    H242192   2.351   6.068   5.140  2.4485 -2.1532  0.3997
 6901TIP3   OH242193   0.738   2.636   0.198  0.2622 -0.3070 -0.3035
 6901TIP3    H142194   0.705   2.676   0.279 -3.8829  1.1307 -2.4154
 6901TIP3    H242195   0.824   2.677   0.185  1.0508 -0.5444  3.2090
 6902TIP3   OH242196   3.245   4.574   1.244  0.8020  0.0947  0.2082
 6902TIP3    H142197   3.165   4.524   1.264  0.8480  0.1457  0.5253
 6902TIP3    H242198   3.244   4.583   1.149  0.5938 -0.1798  0.1820
 6903TIP3   OH242199   5.118   5.885  11.004  0.1420  0.0556 -0.2948
 6903TIP3    H142200   5.114   5.953  11.071  1.6240  0.1255 -0.2398
 6903TIP3    H242201   5.187   5.915  10.945  1.5947 -1.9180  0.3181
 6904TIP3   OH242202   5.157   1.143   5.077  0.1383 -0.0708  0.2451
 6904TIP3    H142203   5.080   1.158   5.021 -0.6649  2.8024  1.9189
 6904TIP3    H242204   5.133   1.068   5.130 -0.1238 -1.2460 -1.4424
 6905TIP3   OH242205   1.041   5.965   1.323 -0.2058 -0.1837  0.3587
 6905TIP3    H142206   1.101   6.036   1.301  0.5470  0.4251  3.8258
 6905TIP3    H242207   1.095   5.903   1.372 -1.3716 -2.0985 -0.6522
 6906TIP3   OH242208   6.088   1.470  16.127  0.2555 -0.2125  0.0248
 6906TIP3    H142209   6.083   1.461  16.031 -0.4400  1.8575 -0.1807
 6906TIP3    H242210   6.176   1.502  16.144  1.0063 -2.2576  0.2981
 6907TIP3   OH242211   3.569   0.052   4.418 -0.2398  0.0265 -0.0557
 6907TIP3    H142212   3.649  -0.001   4.415 -0.6031 -0.4868 -1.2500
 6907TIP3    H242213   3.546   0.066   4.326 -0.9866  0.9938  0.2633
 6908TIP3   OH242214   4.920   1.688   3.373  0.2147 -0.2264 -0.5277
 6908TIP3    H142215   4.869   1.760   3.336 -0.2526 -0.4388 -0.3027
 6908TIP3    H242216   4.947   1.635   3.297  0.5970  0.2040 -0.6967
 6909TIP3   OH242217   1.359   2.786  15.067  0.1200 -0.3310 -0.7357
 6909TIP3    H142218   1.338   2.808  15.158 -1.0124 -0.2472 -1.0001
 6909TIP3    H242219   1.395   2.698  15.071  0.5595 -0.1274 -0.1490
 6910TIP3   OH242220   5.753   5.901   4.633  0.9469 -0.0593  0.0899
 6910TIP3    H142221   5.781   5.924   4.721 -0.6931  1.0649  0.3708
 6910TIP3    H242222   5.727   5.984   4.594 -0.8464 -0.8513 -0.4990
 6911TIP3   OH242223   6.754   4.770  12.244  0.5464 -0.3814 -0.5333
 6911TIP3    H142224   6.837   4.723  12.235  1.4041  0.9920 -0.1613
 6911TIP3    H242225   6.692   4.704  12.275  1.8244 -1.1540  0.4946
 6912TIP3   OH242226   5.328   1.905   0.270 -0.1275  0.1506 -0.4477
 6912TIP3    H142227   5.379   1.937   0.344 -1.6237  0.9620  0.2652
 6912TIP3    H242228   5.291   1.983   0.230 -2.2093 -0.4932  0.1044
 6913TIP3   OH242229   0.503   4.322   1.709 -0.4435  0.2083 -0.3955
 6913TIP3    H142230   0.543   4.310   1.795 -0.8806 -0.5774 -0.2949
 6913TIP3    H242231   0.553   4.393   1.669  0.4869 -0.1698  0.0690
 6914TIP3   OH242232   4.007   2.417   1.706  0.5074  0.4394 -0.3935
 6914TIP3    H142233   4.004   2.509   1.732  0.1555  0.2281  0.3520
 6914TIP3    H242234   3.915   2.391   1.702  0.5731  0.3303 -1.3982
 6915TIP3   OH242235   4.007   5.078   1.122  0.3088 -0.5630 -0.3545
 6915TIP3    H142236   3.997   5.174   1.118  0.2514 -0.4041  2.0462
 6915TIP3    H242237   4.029   5.053   1.033  0.2027  1.6792 -1.0904
 6916TIP3   OH242238   6.704   5.068   3.490  0.1240  0.0158  0.2353
 6916TIP3    H142239   6.763   5.121   3.544 -0.9277  2.6671 -1.0426
 6916TIP3    H242240   6.740   5.075   3.402  1.0829 -3.1808  0.2391
 6917TIP3   OH242241   5.572   4.102  15.939  0.0198 -0.9282  0.3139
 6917TIP3    H142242   5.511   4.031  15.917 -1.0700 -0.2977  1.2165
 6917TIP3    H242243   5.625   4.112  15.860 -2.3115 -0.2095 -1.2636
 6918TIP3   OH242244   4.403   1.696   0.794  0.0846  0.2030 -0.4096
 6918TIP3    H142245   4.487   1.719   0.832  0.0450  0.4033 -0.4444
 6918TIP3    H242246   4.342   1.697   0.867  0.2141 -0.4705 -0.2888
 6919TIP3   OH242247   0.138   0.840  12.289  0.8626 -0.2889  0.1195
 6919TIP3    H142248   0.197   0.772  12.256  1.0269 -0.2750  0.3832
 6919TIP3    H242249   0.120   0.894  12.213  0.4567 -0.8237 -0.1762
 6920TIP3   OH242250   2.945   1.326  12.146 -0.0882 -0.8029  0.6393
 6920TIP3    H142251   2.996   1.374  12.080 -0.2414 -1.7618 -0.1857
 6920TIP3    H242252   2.894   1.263  12.097 -0.0110 -1.7245  1.6919
 6921TIP3   OH242253   1.609   3.286   2.850 -0.2470 -0.3022 -0.0219
 6921TIP3    H142254   1.637   3.339   2.924 -0.0872 -1.3362  0.6731
 6921TIP3    H242255   1.683   3.288   2.790 -0.7059  1.2804 -0.6111
 6922TIP3   OH242256   3.799   1.203  17.131 -0.1428  0.1481  0.0323
 6922TIP3    H142257   3.882   1.184  17.175  0.3059  1.4147 -0.2099
 6922TIP3    H242258   3.823   1.211  17.038 -0.4936  0.6605 -0.0214
 6923TIP3   OH242259   3.992   2.709   1.128  0.1355  0.3018 -0.4187
 6923TIP3    H142260   3.984   2.615   1.145  2.1800 -0.0936 -1.4496
 6923TIP3    H242261   3.972   2.749   1.213 -0.6308 -1.0363  0.0815
 6924TIP3   OH242262   1.572   1.846   0.145 -0.2990  0.2352 -0.1841
 6924TIP3    H142263   1.479   1.848   0.124 -0.5340 -0.9653  0.6482
 6924TIP3    H242264   1.614   1.809   0.067 -0.7237 -0.7524  0.0424
 6925TIP3   OH242265   4.672   1.973  10.574  0.0751  0.9687  0.9253
 6925TIP3    H142266   4.670   1.919  10.494 -1.1054  2.6066 -0.2208
 6925TIP3    H242267   4.722   1.921  10.636  1.4067 -0.2205 -1.0071
 6926TIP3   OH242268   1.265   4.246   3.204 -0.1985  0.3306  0.2924
 6926TIP3    H142269   1.265   4.300   3.125  0.0817 -0.6922 -0.4133
 6926TIP3    H242270   1.356   4.248   3.235  0.0709 -0.7107 -0.4129
 6927TIP3   OH242271   0.043   0.308   2.360  0.3129 -0.2917 -0.3605
 6927TIP3    H142272   0.052   0.399   2.389 -1.7159  0.0621 -0.6463
 6927TIP3    H242273  -0.007   0.265   2.429 -1.0823 -0.4569 -1.4062
 6928TIP3   OH242274   4.714   3.662   0.737  0.1304 -0.2309  0.2769
 6928TIP3    H142275   4.741   3.682   0.827  1.5250 -0.0848 -0.1549
 6928TIP3    H242276   4.729   3.568   0.728 -0.9018 -0.4352  0.4650
 6929TIP3   OH242277   2.945   2.605  15.673  0.4565  0.1751  0.2614
 6929TIP3    H142278   2.889   2.593  15.596  1.5436 -0.4922 -0.4528
 6929TIP3    H242279   3.031   2.572  15.645  1.1370  0.9250  1.4154
 6930TIP3   OH242280   4.943   6.462   3.855  0.0951  0.7358 -0.1716
 6930TIP3    H142281   4.859   6.439   3.894  0.8530  0.6905  1.5569
 6930TIP3    H242282   4.922   6.526   3.787 -1.3469  0.5589  0.0818
 6931TIP3   OH242283   5.440   4.852   3.733 -0.4869  0.2499  0.3060
 6931TIP3    H142284   5.499   4.831   3.806 -1.5982 -0.8824  0.9132
 6931TIP3    H242285   5.480   4.928   3.691  0.3407  0.7417  1.9110
 6932TIP3   OH242286   1.957   0.136   1.104  0.1881 -0.6756 -0.2021
 6932TIP3    H142287   1.934   0.099   1.019 -1.2963 -0.0287 -0.1116
 6932TIP3    H242288   1.939   0.230   1.096  0.7398 -0.4811  0.6063
 6933TIP3   OH242289   0.906   5.888   2.156  0.2031 -0.0710  0.1910
 6933TIP3    H142290   0.885   5.938   2.077  1.0079  0.2429  0.1762
 6933TIP3    H242291   0.828   5.835   2.171  0.2928 -0.6557 -1.2207
 6934TIP3   OH242292   3.758   0.339  12.145  0.3299 -0.4092  0.2668
 6934TIP3    H142293   3.694   0.268  12.133 -0.0715 -0.0622  0.3356
 6934TIP3    H242294   3.834   0.311  12.094 -0.1852 -0.4448 -0.4978
 6935TIP3   OH242295   2.372   1.007  16.430  0.0227  0.1403 -0.3382
 6935TIP3    H142296   2.402   1.084  16.382  0.1764 -0.6960 -1.6503
 6935TIP3    H242297   2.277   1.015  16.432 -0.0833 -0.3384 -1.8017
 6936TIP3   OH242298   3.312   3.793   1.664 -0.2192  0.3000  0.0351
 6936TIP3    H142299   3.243   3.853   1.636 -1.9499 -0.2503  2.8011
 6936TIP3    H242300   3.279   3.706   1.641 -0.2944  0.0612  1.0050
 6937TIP3   OH242301   2.191   6.369  12.381  0.0376 -0.6140  0.0184
 6937TIP3    H142302   2.217   6.385  12.471  1.2240 -2.5597  0.0946
 6937TIP3    H242303   2.262   6.407  12.328 -1.2145  1.5560 -0.2112
 6938TIP3   OH242304   3.181   4.846   3.247 -0.5375  0.1751 -0.5748
 6938TIP3    H142305   3.106   4.786   3.246  0.6878 -1.5757  1.5374
 6938TIP3    H242306   3.182   4.880   3.337  0.5256  1.0588 -0.9153
 6939TIP3   OH242307   2.874   1.491  16.202 -0.4016 -0.0771  0.1916
 6939TIP3    H142308   2.878   1.586  16.195 -3.2022  0.2483  1.6095
 6939TIP3    H242309   2.861   1.460  16.112 -2.0650  1.1537 -0.0431
 6940TIP3   OH242310   3.077   4.271  14.299 -0.3348 -0.8132 -0.2440
 6940TIP3    H142311   3.044   4.217  14.228  1.7594 -0.1464 -1.8136
 6940TIP3    H242312   3.027   4.353  14.291 -0.7810 -1.0859 -0.3125
 6941TIP3   OH242313   0.057   0.136   5.959 -0.2625  0.2643  0.7949
 6941TIP3    H142314   0.151   0.119   5.970  0.3067  3.1121  1.0896
 6941TIP3    H242315   0.014   0.075   6.018  1.4155 -0.8110  0.9604
 6942TIP3   OH242316   3.575   1.724   1.677 -0.4346  0.1356  0.2182
 6942TIP3    H142317   3.667   1.696   1.685  0.7047  3.4507  0.2651
 6942TIP3    H242318   3.553   1.707   1.586  0.4286 -0.1186  0.0424
 6943TIP3   OH242319   0.225   0.895  15.548  0.2226  0.2928  0.2145
 6943TIP3    H142320   0.311   0.895  15.506  1.2755  2.2889  2.1278
 6943TIP3    H242321   0.181   0.972  15.512 -0.1710  0.1211  0.3262
 6944TIP3   OH242322   5.680   1.745   5.263 -0.0920  0.3379  0.4261
 6944TIP3    H142323   5.624   1.692   5.320 -1.1999 -1.8037 -2.4089
 6944TIP3    H242324   5.619   1.806   5.219  0.2922  0.1911 -0.3262
 6945TIP3   OH242325   2.616   0.505  13.980  0.2978 -0.4945  0.5286
 6945TIP3    H142326   2.617   0.426  14.034  1.2085 -1.3757 -0.7093
 6945TIP3    H242327   2.700   0.547  13.998 -0.1983  0.2228  1.2078
 6946TIP3   OH242328   2.199   4.590  11.558  0.3930 -0.1348  0.6474
 6946TIP3    H142329   2.200   4.497  11.538  0.3671  0.3041 -1.6891
 6946TIP3    H242330   2.107   4.617  11.546  0.5652  0.3561  0.3818
 6947TIP3   OH242331   1.348   6.754  11.850  0.0690 -0.0828 -0.4632
 6947TIP3    H142332   1.350   6.746  11.754  0.5422  2.1647 -0.7085
 6947TIP3    H242333   1.262   6.790  11.869 -0.5484 -1.7774  0.1423
 6948TIP3   OH242334   4.480   1.229   4.369  0.1298 -0.2224 -0.3414
 6948TIP3    H142335   4.413   1.197   4.430 -0.1331 -1.4645 -1.2320
 6948TIP3    H242336   4.522   1.301   4.415 -0.4432 -0.7535  1.0789
 6949TIP3   OH242337   4.762   4.052  14.911 -0.1600  0.1043 -0.5226
 6949TIP3    H142338   4.744   4.098  14.829 -1.0923  0.5057 -0.1072
 6949TIP3    H242339   4.676   4.036  14.950  0.2775  0.1942  0.5278
 6950TIP3   OH242340   6.139   6.049  16.656 -0.5687 -0.3402 -0.7188
 6950TIP3    H142341   6.193   6.022  16.581 -1.5261 -2.2597 -0.7919
 6950TIP3    H242342   6.050   6.021  16.632 -0.9525 -0.6724  0.9827
 6951TIP3   OH242343   6.465   6.682  11.344 -0.1083 -0.3106  0.1912
 6951TIP3    H142344   6.474   6.588  11.327  0.8746 -0.0746 -0.6847
 6951TIP3    H242345   6.478   6.723  11.258  1.8453  0.7681  0.9551
 6952TIP3   OH242346   2.345   2.239  16.242  0.0452  0.2310  0.2197
 6952TIP3    H142347   2.252   2.219  16.231  0.0259  0.1199  0.5689
 6952TIP3    H242348   2.357   2.323  16.197 -0.0033 -0.2549 -0.7290
 6953TIP3   OH242349   2.909   2.504   0.190 -0.0408 -0.3314 -0.4670
 6953TIP3    H142350   2.977   2.437   0.180  0.8185  0.7182 -2.1522
 6953TIP3    H242351   2.835   2.458   0.229  1.8533 -1.3782  2.1812
 6954TIP3   OH242352   1.919   5.969  14.992  0.2781  0.7746  0.4894
 6954TIP3    H142353   1.868   5.890  14.982  1.6601 -0.0494 -0.3928
 6954TIP3    H242354   1.865   6.027  15.046 -2.8244  1.1048 -2.6516
 6955TIP3   OH242355   5.062   6.206  15.876 -0.5741  0.1072  0.1693
 6955TIP3    H142356   5.133   6.148  15.906 -1.1675 -0.2355  0.9514
 6955TIP3    H242357   5.053   6.186  15.783  1.1988  1.0675 -0.2452
 6956TIP3   OH242358   1.647   3.463  16.912 -0.2227 -0.4981 -0.4371
 6956TIP3    H142359   1.698   3.422  16.842  2.0952 -0.4115  1.0693
 6956TIP3    H242360   1.593   3.392  16.948  0.7735 -1.2751 -0.4300
 6957TIP3   OH242361   5.926   1.673   2.759  0.0631  0.2291 -0.0998
 6957TIP3    H142362   5.893   1.589   2.792 -0.8432  0.1788 -1.0997
 6957TIP3    H242363   5.853   1.733   2.768 -0.1427  0.2753 -1.7569
 6958TIP3   OH242364   1.464   0.332  10.916 -0.7060  0.1087  0.5997
 6958TIP3    H142365   1.404   0.269  10.877 -0.6561  1.3034 -1.5166
 6958TIP3    H242366   1.408   0.400  10.953 -0.7002  0.1224  0.5830
 6959TIP3   OH242367   1.170   2.668  12.844  0.0558 -0.2978 -0.0447
 6959TIP3    H142368   1.162   2.576  12.819 -0.5586 -0.7878  1.7801
 6959TIP3    H242369   1.086   2.689  12.884 -0.8544  1.8886 -2.7549
 6960TIP3   OH242370   2.457   1.144  16.781  0.7457 -0.5239  0.0578
 6960TIP3    H142371   2.418   1.224  16.746 -1.0437 -1.4611 -0.2316
 6960TIP3    H242372   2.499   1.103  16.705  0.9190 -0.2904  0.0266
 6961TIP3   OH242373   3.817   4.958   5.792 -0.3656 -0.0068  0.5507
 6961TIP3    H142374   3.726   4.955   5.819 -0.7513 -1.0334 -0.7876
 6961TIP3    H242375   3.864   4.985   5.871 -1.9083  1.5810  0.9960
 6962TIP3   OH242376   6.435   3.133   0.046  0.2842 -0.1223  0.2255
 6962TIP3    H142377   6.515   3.119  -0.005  1.4776 -1.4588  2.3158
 6962TIP3    H242378   6.452   3.212   0.096 -0.7077  0.9347 -1.0399
 6963TIP3   OH242379   4.759   2.897   2.362  0.0482 -0.8719  0.4164
 6963TIP3    H142380   4.685   2.861   2.312  0.2690  1.3839 -1.7307
 6963TIP3    H242381   4.836   2.869   2.312  0.5755 -1.7907  1.7013
 6964TIP3   OH242382   0.816   3.400   4.347 -0.5620 -0.0508 -0.1428
 6964TIP3    H142383   0.806   3.313   4.308 -0.7901 -0.0347 -0.1190
 6964TIP3    H242384   0.911   3.413   4.351 -0.5145  0.4573 -1.8495
 6965TIP3   OH242385   0.910   5.607   1.200 -0.0020  0.3025 -0.1564
 6965TIP3    H142386   1.006   5.605   1.205  0.0412  1.8818  0.1604
 6965TIP3    H242387   0.881   5.536   1.258  0.9643 -0.2308 -0.3050
 6966TIP3   OH242388   2.727   5.679   6.459 -0.0319  0.1351 -0.3780
 6966TIP3    H142389   2.698   5.734   6.531  1.4761 -0.6561  0.8957
 6966TIP3    H242390   2.676   5.598   6.468  0.7892 -0.3181  0.3962
 6967TIP3   OH242391   0.795   0.677  15.541  0.5288 -0.1025  0.1762
 6967TIP3    H142392   0.733   0.742  15.509  1.4841  0.4554 -0.6277
 6967TIP3    H242393   0.743   0.616  15.593 -0.3967  1.3244  0.9881
 6968TIP3   OH242394   4.390   5.495  13.613  0.4641 -0.0609 -0.0608
 6968TIP3    H142395   4.450   5.428  13.580 -1.1511 -1.2875 -0.6271
 6968TIP3    H242396   4.303   5.460  13.595 -0.4411  1.9666  0.1270
 6969TIP3   OH242397   6.152   6.342   5.999  0.1274  0.1310 -0.4809
 6969TIP3    H142398   6.136   6.433   5.974 -1.6348  0.5405  1.8327
 6969TIP3    H242399   6.238   6.343   6.039 -0.7138  1.2641  1.4100
 6970TIP3   OH242400   3.317   1.608   1.099  1.2982 -0.3336  0.1531
 6970TIP3    H142401   3.344   1.600   1.191  0.8616 -0.1651  0.2990
 6970TIP3    H242402   3.256   1.682   1.099  2.9162  1.0487 -0.6346
 6971TIP3   OH242403   2.465   3.368   3.591 -0.1803 -0.1975 -0.3304
 6971TIP3    H142404   2.430   3.452   3.563  0.0996  0.0096 -0.0654
 6971TIP3    H242405   2.495   3.326   3.511  0.3710  0.2758 -0.3783
 6972TIP3   OH242406   0.249   3.323   1.541 -0.0075  0.2165 -0.2425
 6972TIP3    H142407   0.193   3.360   1.473  1.7615  0.6964 -1.4976
 6972TIP3    H242408   0.280   3.240   1.505  1.5768  0.8427 -0.4005
 6973TIP3   OH242409   3.388   2.518   0.465 -0.3304 -0.0104 -0.3793
 6973TIP3    H142410   3.377   2.446   0.403  1.3350 -0.6413 -0.0084
 6973TIP3    H242411   3.452   2.576   0.423 -1.3306  1.0404 -0.4810
 6974TIP3   OH242412   3.652   2.201   0.457 -0.5871  0.0426  0.7669
 6974TIP3    H142413   3.658   2.111   0.424  0.7358  0.3621  0.0238
 6974TIP3    H242414   3.559   2.216   0.471 -0.8501 -1.3663  0.6925
 6975TIP3   OH242415   0.411   0.360   4.419 -0.3207  0.0041 -0.3973
 6975TIP3    H142416   0.381   0.448   4.396 -1.1736  0.0790  0.9003
 6975TIP3    H242417   0.333   0.305   4.411 -0.0901 -0.3950  0.0375
 6976TIP3   OH242418   3.899   0.557  17.170 -0.1806 -0.3858  0.1435
 6976TIP3    H142419   3.958   0.544  17.096  0.0140 -1.5805  0.4875
 6976TIP3    H242420   3.824   0.501  17.150 -0.0382 -0.8698  0.9412
 6977TIP3   OH242421   4.378   3.558   0.443  0.2015  0.6655 -0.2859
 6977TIP3    H142422   4.386   3.466   0.468  0.8175  0.6673 -0.4883
 6977TIP3    H242423   4.380   3.558   0.348 -0.2056  0.8544 -0.2982
 6978TIP3   OH242424   3.806   6.250  10.539  0.0932 -0.1969  0.6277
 6978TIP3    H142425   3.894   6.263  10.574 -0.1464  0.4495  1.0127
 6978TIP3    H242426   3.747   6.271  10.611 -0.4165  1.5516 -0.2394
 6979TIP3   OH242427   6.213   0.950   1.216 -0.0601  0.0117 -0.0341
 6979TIP3    H142428   6.159   0.897   1.158 -1.2518  0.8199  0.3127
 6979TIP3    H242429   6.186   1.040   1.198 -0.1693  0.3021  1.5014
 6980TIP3   OH242430   0.628   0.215   3.715  0.0945  0.0487  0.5999
 6980TIP3    H142431   0.717   0.246   3.699 -0.0161  0.5758  0.9681
 6980TIP3    H242432   0.638   0.121   3.729  0.3872 -0.1771 -0.9259
 6981TIP3   OH242433   2.518   2.840   0.579 -0.0084 -0.2352  0.2249
 6981TIP3    H142434   2.462   2.900   0.530  0.0226 -0.4230 -0.0423
 6981TIP3    H242435   2.532   2.884   0.663  1.2375  0.8123 -0.5015
 6982TIP3   OH242436   2.498   4.928   2.645 -0.4909  0.0211 -0.1589
 6982TIP3    H142437   2.418   4.910   2.694  1.2350 -1.8773  2.1912
 6982TIP3    H242438   2.547   4.988   2.701  0.8499 -0.9274 -0.2663
 6983TIP3   OH242439   2.902   1.780  16.198 -0.2486 -0.0044 -0.4904
 6983TIP3    H142440   2.883   1.812  16.287 -0.7880  0.0433 -0.6216
 6983TIP3    H242441   2.985   1.823  16.175 -0.1250  0.0145 -0.0270
 6984TIP3   OH242442   5.012   2.491   5.126 -0.0560 -0.4183 -0.1245
 6984TIP3    H142443   4.941   2.535   5.174 -1.2271  0.0717 -2.1958
 6984TIP3    H242444   5.074   2.562   5.106 -0.6498 -0.1876 -1.1944
 6985TIP3   OH242445   5.494   0.230   2.974 -0.1889 -0.0841  0.6769
 6985TIP3    H142446   5.481   0.140   3.004  0.1630 -0.2115  0.4501
 6985TIP3    H242447   5.585   0.232   2.944 -0.0979  0.4373  0.9891
 6986TIP3   OH242448   3.631   5.405   5.739  0.0802  0.6549 -0.4654
 6986TIP3    H142449   3.701   5.426   5.801 -1.0954 -0.9102  1.5647
 6986TIP3    H242450   3.661   5.325   5.695  0.2920  0.9456 -0.8515
 6987TIP3   OH242451   3.948   0.975   4.974  0.6233 -0.0438  0.7074
 6987TIP3    H142452   3.872   0.925   4.944  0.3832 -0.4329  1.8908
 6987TIP3    H242453   4.019   0.912   4.976  0.9220  0.2599 -0.1520
 6988TIP3   OH242454   4.504   2.898  12.647  0.4380  0.8051 -0.2587
 6988TIP3    H142455   4.432   2.953  12.616  0.6979  2.1232  1.3194
 6988TIP3    H242456   4.472   2.861  12.730  0.7279 -0.4768 -0.6998
 6989TIP3   OH242457   0.593   1.981  15.750 -0.3131 -0.6535 -0.3714
 6989TIP3    H142458   0.677   2.019  15.726 -0.0963 -0.0489  1.2405
 6989TIP3    H242459   0.598   1.889  15.722  1.6470 -1.1477  1.4084
 6990TIP3   OH242460   0.474   3.280   4.200 -0.6381  0.1409 -0.1853
 6990TIP3    H142461   0.509   3.228   4.273  0.6134  2.6592  1.1314
 6990TIP3    H242462   0.395   3.321   4.236  0.9046  2.7705  0.5112
 6991TIP3   OH242463   6.667   1.811  14.601  0.2778  0.1674  0.2706
 6991TIP3    H142464   6.647   1.817  14.507 -0.0550 -0.8710  0.2709
 6991TIP3    H242465   6.758   1.781  14.604  0.5866  1.0804  0.2853
 6992TIP3   OH242466   2.051   3.933   2.913  0.3632  0.2675  0.5243
 6992TIP3    H142467   2.003   3.860   2.952  0.4782  0.2710  0.6725
 6992TIP3    H242468   1.982   3.988   2.874  0.3598 -0.4947 -0.5826
 6993TIP3   OH242469   0.035   1.374   5.390  0.3750  0.2220 -1.0625
 6993TIP3    H142470  -0.002   1.285   5.388 -0.9558  0.7492 -0.9401
 6993TIP3    H242471  -0.010   1.420   5.320 -2.7509  2.1854  1.9333
 6994TIP3   OH242472   3.946   0.316   2.643  0.3416 -0.3010  0.7712
 6994TIP3    H142473   3.934   0.221   2.642  2.8050 -0.6778 -0.6632
 6994TIP3    H242474   3.871   0.350   2.594  0.1454 -1.6298  0.1202
 6995TIP3   OH242475   4.681   5.867   1.608 -0.1235  0.1705  0.1384
 6995TIP3    H142476   4.776   5.867   1.622 -0.0042  0.0902 -0.5874
 6995TIP3    H242477   4.672   5.860   1.513 -0.8618 -0.2627  0.2358
 6996TIP3   OH242478   5.696   5.844  10.750  0.5325  0.3360  0.2362
 6996TIP3    H142479   5.606   5.864  10.723  0.4476  0.8488  0.8809
 6996TIP3    H242480   5.686   5.792  10.830  0.8135  1.6362  1.1382
 6997TIP3   OH242481   0.659   5.598  12.602  0.1390  0.2244 -0.3347
 6997TIP3    H142482   0.609   5.561  12.674 -0.3776 -2.4262 -1.9083
 6997TIP3    H242483   0.595   5.608  12.531  1.2623 -0.7754 -1.5594
 6998TIP3   OH242484   5.650   3.963  11.821 -0.2971  0.2425  0.1693
 6998TIP3    H142485   5.649   3.878  11.865 -1.2668 -0.2572 -0.7781
 6998TIP3    H242486   5.742   3.991  11.825  0.1025 -1.0153  0.1825
 6999TIP3   OH242487   4.269   1.140   3.707  0.0223  0.6714  0.5139
 6999TIP3    H142488   4.332   1.204   3.739  1.4588 -0.1231 -0.5898
 6999TIP3    H242489   4.243   1.090   3.784  2.5899 -0.5108  0.7006
 7000TIP3   OH242490   2.964   1.208  15.569  0.4119 -0.3300  0.3966
 7000TIP3    H142491   2.972   1.113  15.576 -1.5265 -0.5249  0.5261
 7000TIP3    H242492   3.011   1.230  15.490  1.2583 -1.3449  0.5943
 7001TIP3   OH242493   3.226   1.343   3.538 -0.4492 -0.0651 -0.4413
 7001TIP3    H142494   3.165   1.400   3.490  0.1985  2.0804  1.1448
 7001TIP3    H242495   3.191   1.341   3.627  1.0269  0.0867  0.1668
 7002TIP3   OH242496   2.853   1.593  10.695 -0.1725  0.1318  0.0814
 7002TIP3    H142497   2.902   1.653  10.639  1.0613 -0.5334  0.3956
 7002TIP3    H242498   2.787   1.647  10.738  0.5316  1.1457 -0.0928
 7003TIP3   OH242499   0.260   1.348  15.057 -0.8656  0.1132 -0.6405
 7003TIP3    H142500   0.301   1.283  15.000 -1.8803 -0.6091 -0.5840
 7003TIP3    H242501   0.172   1.359  15.021 -1.4484 -0.1787  0.6269
 7004TIP3   OH242502   0.339   4.912   2.354  0.1281 -0.0764  0.1179
 7004TIP3    H142503   0.398   4.910   2.279  1.0763 -0.7826  0.8504
 7004TIP3    H242504   0.257   4.948   2.320  0.8618  0.5645 -1.0059
 7005TIP3   OH242505   4.228   6.609  16.014  0.0484  0.3432  0.5331
 7005TIP3    H142506   4.201   6.518  16.001 -2.2113  0.9683  0.4309
 7005TIP3    H242507   4.312   6.615  15.969 -0.9569 -1.0900 -1.7585
 7006TIP3   OH242508   3.158   0.036   0.150 -0.3536 -0.3165  0.8383
 7006TIP3    H142509   3.083   0.024   0.092  0.4960 -0.8437 -0.1829
 7006TIP3    H242510   3.148  -0.033   0.216 -1.6423  0.6544  1.6905
 7007TIP3   OH242511   4.624   1.629   2.662  0.2613 -0.4359 -0.1904
 7007TIP3    H142512   4.656   1.611   2.573  1.2653  0.9997 -0.1645
 7007TIP3    H242513   4.681   1.699   2.694 -2.0716  1.3422  0.3791
 7008TIP3   OH242514   2.417   5.785   6.535  0.4648  0.6429  0.2808
 7008TIP3    H142515   2.401   5.698   6.571  2.3165  0.2519  0.2851
 7008TIP3    H242516   2.350   5.796   6.467  1.0148 -1.3969 -0.6925
 7009TIP3   OH242517   3.971   6.401   2.941  0.2373  0.1280  0.2815
 7009TIP3    H142518   4.019   6.371   3.019  1.5286  2.0931  0.2909
 7009TIP3    H242519   4.038   6.442   2.886 -0.9040  0.0068 -1.2432
 7010TIP3   OH242520   3.521   0.509   0.535 -0.0535  0.0245  0.0579
 7010TIP3    H142521   3.429   0.523   0.558  0.0574 -0.1951  0.6546
 7010TIP3    H242522   3.561   0.595   0.542 -0.1597  0.0737  0.0632
 7011TIP3   OH242523   2.465   2.983  11.879  0.4327  0.3662  0.4824
 7011TIP3    H142524   2.375   3.016  11.889 -0.4413 -2.1884  2.2772
 7011TIP3    H242525   2.513   3.055  11.838 -2.4694  1.7485 -0.7939
 7012TIP3   OH242526   4.771   6.475   0.175  0.7461  1.2169  0.0987
 7012TIP3    H142527   4.733   6.513   0.255  0.9206  0.5787  0.4919
 7012TIP3    H242528   4.791   6.384   0.199  2.8246  1.5991  0.0392
 7013TIP3   OH242529   3.165   4.768  13.055 -0.4906  0.0025 -0.8647
 7013TIP3    H142530   3.081   4.773  13.101 -0.9111 -0.7704 -1.5291
 7013TIP3    H242531   3.198   4.681  13.073  0.3415  0.4091 -0.3487
 7014TIP3   OH242532   3.590   5.932   4.233 -0.1944  0.4938  0.2003
 7014TIP3    H142533   3.587   5.942   4.138  0.4727  0.0396  0.1253
 7014TIP3    H242534   3.565   6.018   4.267 -0.1810  0.7334 -0.3838
 7015TIP3   OH242535   0.925   5.206   1.981  0.7550 -0.7856  0.2844
 7015TIP3    H142536   0.857   5.273   1.989 -0.2373 -1.5537 -1.2075
 7015TIP3    H242537   1.001   5.243   2.027  0.3546  1.4986 -0.7502
 7016TIP3   OH242538   0.212   5.799   1.110  0.3746  0.0945  0.7363
 7016TIP3    H142539   0.287   5.744   1.090 -0.6074 -2.0261  2.4123
 7016TIP3    H242540   0.226   5.827   1.200 -0.3709  0.4858  0.7380
 7017TIP3   OH242541   1.000   4.461   2.930  0.4341 -0.5966  0.0724
 7017TIP3    H142542   0.978   4.443   2.839  0.1037 -2.0056  0.3987
 7017TIP3    H242543   0.942   4.532   2.955  1.9089  1.1918 -1.3563
 7018TIP3   OH242544   0.794   5.828   1.831 -0.0525 -0.5658 -0.1840
 7018TIP3    H142545   0.840   5.878   1.763  1.3394 -0.8650  0.5184
 7018TIP3    H242546   0.832   5.740   1.826 -0.6815 -0.8715  0.2903
 7019TIP3   OH242547   1.983   3.362   3.519 -0.6402 -0.0168  0.1427
 7019TIP3    H142548   2.002   3.268   3.511  0.2164  0.1694 -0.1128
 7019TIP3    H242549   1.913   3.378   3.456 -0.2817 -0.3502 -0.3515
 7020TIP3   OH242550   2.896   5.174   4.769  0.5947  0.5133 -0.0460
 7020TIP3    H142551   2.846   5.250   4.738 -0.9732 -0.1010  0.8618
 7020TIP3    H242552   2.981   5.210   4.794  0.8090  1.5386 -1.9994
 7021TIP3   OH242553   3.386   6.173   2.641  0.4510 -0.4215 -0.8816
 7021TIP3    H142554   3.415   6.250   2.691  1.7841 -0.3649 -1.7155
 7021TIP3    H242555   3.465   6.122   2.628 -0.5058 -2.2875  0.1824
 7022TIP3   OH242556   1.919   6.741  15.627 -0.2342  0.3793  0.3169
 7022TIP3    H142557   1.970   6.716  15.549 -0.9737  0.1367 -0.0952
 7022TIP3    H242558   1.837   6.692  15.619 -0.5966  0.8806  0.9035
 7023TIP3   OH242559   0.497   3.972  12.174 -0.5695 -0.4672  0.1686
 7023TIP3    H142560   0.497   4.020  12.256  0.4549  4.0725 -2.1672
 7023TIP3    H242561   0.404   3.960  12.153 -0.8385 -0.6735  1.3914
 7024TIP3   OH242562   6.512   2.530  13.965  0.5852  0.1192 -0.3827
 7024TIP3    H142563   6.421   2.557  13.952  0.6956  1.1409  0.8099
 7024TIP3    H242564   6.516   2.498  14.055  1.5806  0.9206 -0.1176
 7025TIP3   OH242565   0.160   1.419  16.186 -0.4661  0.1090  0.1781
 7025TIP3    H142566   0.087   1.447  16.131 -0.1959 -2.4376 -1.6569
 7025TIP3    H242567   0.238   1.447  16.138 -0.1445 -4.1454 -2.2839
 7026TIP3   OH242568   5.679   4.286  13.446  0.5705  0.0460 -0.4399
 7026TIP3    H142569   5.719   4.370  13.426  1.9354 -0.2678  0.8375
 7026TIP3    H242570   5.705   4.229  13.373 -0.3984  0.7093 -1.3323
 7027TIP3   OH242571   4.065   3.957   1.496  0.0547  0.6477 -0.2464
 7027TIP3    H142572   4.063   3.891   1.427  0.2489 -0.1778  0.5083
 7027TIP3    H242573   4.113   3.915   1.567 -1.0416  1.0643  0.7852
 7028TIP3   OH242574   6.256   1.697   4.987 -0.4763 -0.0220  0.3588
 7028TIP3    H142575   6.293   1.651   4.911  0.3656 -1.5929  1.6683
 7028TIP3    H242576   6.305   1.663   5.062 -2.1279  0.5591  1.7650
 7029TIP3   OH242577   0.658   1.382  13.944  0.1955  0.0782  0.5183
 7029TIP3    H142578   0.633   1.405  14.034 -0.9765 -0.9785  0.4935
 7029TIP3    H242579   0.653   1.286  13.942  2.9777 -0.1628  0.0962
 7030TIP3   OH242580   2.243   5.469   3.674  0.5434 -0.5953 -0.2223
 7030TIP3    H142581   2.290   5.422   3.605  0.1991 -1.7381  0.2975
 7030TIP3    H242582   2.254   5.414   3.751  1.2784  0.8760  0.7630
 7031TIP3   OH242583   0.645   1.799   3.469  0.0773  0.7743  0.2968
 7031TIP3    H142584   0.647   1.885   3.511  0.9760  1.3584 -0.8667
 7031TIP3    H242585   0.691   1.741   3.529 -1.5138  0.8191  1.6256
 7032TIP3   OH242586   4.925   0.714   2.390  0.5495  0.1095  1.0988
 7032TIP3    H142587   4.901   0.799   2.354 -0.2216 -0.4688  0.2121
 7032TIP3    H242588   4.887   0.714   2.478 -0.0739  0.4013  0.8318
 7033TIP3   OH242589   4.368   4.823   4.329 -0.6052  0.1139  0.4077
 7033TIP3    H142590   4.347   4.790   4.416 -0.5254  0.4422  0.5546
 7033TIP3    H242591   4.357   4.748   4.271  1.6568 -0.7430  1.0010
 7034TIP3   OH242592   2.256   0.880  12.804  0.1878  0.1686 -0.3920
 7034TIP3    H142593   2.198   0.903  12.731  0.3160 -0.8019 -0.8167
 7034TIP3    H242594   2.282   0.789  12.786 -0.6021 -0.4619  1.4010
 7035TIP3   OH242595   2.953   5.698  14.983 -0.0082  0.3275  0.6398
 7035TIP3    H142596   2.961   5.782  15.029 -0.0271  0.7250 -0.0714
 7035TIP3    H242597   2.867   5.665  15.010 -0.4978  1.0813  0.0511
 7036TIP3   OH242598   6.794   4.667   6.945  0.5183  0.3056 -0.4793
 7036TIP3    H142599   6.832   4.694   7.029  0.3829  1.2317 -0.7107
 7036TIP3    H242600   6.771   4.574   6.959  1.5111  0.1374  0.1316
 7037TIP3   OH242601   5.990   5.825   5.144  1.0782  0.1930  0.1679
 7037TIP3    H142602   5.942   5.874   5.077  2.3774  0.3391 -0.6952
 7037TIP3    H242603   6.019   5.891   5.207 -1.5691 -0.1267  1.8769
 7038TIP3   OH242604   3.799   6.750   4.449  0.0868  0.2095 -0.1357
 7038TIP3    H142605   3.893   6.744   4.434 -0.0754 -0.0470 -1.1810
 7038TIP3    H242606   3.784   6.706   4.532  0.9830  0.9461  0.4342
 7039TIP3   OH242607   4.733   4.700  11.110  0.2748  0.2678  0.0225
 7039TIP3    H142608   4.744   4.752  11.030 -1.2392 -0.4267 -0.6753
 7039TIP3    H242609   4.813   4.649  11.116  2.5346  3.5921  1.5220
 7040TIP3   OH242610   0.152   3.247   0.852 -0.1793 -0.0778  0.2707
 7040TIP3    H142611   0.191   3.192   0.784  3.5612  1.2559  1.1340
 7040TIP3    H242612   0.189   3.214   0.934 -0.3270  1.7162  1.1104
 7041TIP3   OH242613   2.917   3.331   1.766 -0.7828 -0.0221  0.1920
 7041TIP3    H142614   2.981   3.401   1.756 -0.3841 -0.3096  0.7224
 7041TIP3    H242615   2.941   3.287   1.847 -1.4878 -0.3022  0.2581
 7042TIP3   OH242616   4.238   1.397  12.740 -0.9597 -0.2996 -0.0593
 7042TIP3    H142617   4.301   1.466  12.718 -1.1740  0.0536  0.4063
 7042TIP3    H242618   4.230   1.345  12.661  0.5008 -0.8067  0.0938
 7043TIP3   OH242619   3.752   1.773  15.695  0.3162  0.2921  0.0670
 7043TIP3    H142620   3.700   1.695  15.674  0.1369  0.1820  0.8818
 7043TIP3    H242621   3.812   1.782  15.622 -0.3388 -0.0281 -0.5253
 7044TIP3   OH242622   2.205   4.269   5.721  0.2248  0.4228 -0.1916
 7044TIP3    H142623   2.151   4.196   5.690  1.3494 -0.9884  0.9846
 7044TIP3    H242624   2.291   4.252   5.683  0.1140  2.1150 -1.2737
 7045TIP3   OH242625   0.294   5.585   3.497  0.2499 -0.5436  0.1355
 7045TIP3    H142626   0.259   5.509   3.542 -0.7070  0.2211  0.7250
 7045TIP3    H242627   0.241   5.593   3.417  1.0646 -1.1157 -0.4786
 7046TIP3   OH242628   0.776   2.515   1.901  0.1568 -0.1966 -0.6042
 7046TIP3    H142629   0.738   2.429   1.917 -2.2606  0.6902 -1.2537
 7046TIP3    H242630   0.711   2.578   1.933  1.5998  1.4380 -0.6706
 7047TIP3   OH242631   3.698   5.764  11.565 -0.5780  0.1618  0.1573
 7047TIP3    H142632   3.774   5.821  11.570 -1.8620  2.0367 -0.7486
 7047TIP3    H242633   3.713   5.711  11.486  0.1389 -0.0748  0.4414
 7048TIP3   OH242634   1.047   1.699  16.514  0.3925  0.2368  0.5140
 7048TIP3    H142635   1.130   1.741  16.536 -0.3701  1.7267  0.7513
 7048TIP3    H242636   1.022   1.739  16.430 -0.0171 -0.2761  0.3884
 7049TIP3   OH242637   2.219   0.267  13.756  0.2861 -0.4076  0.2040
 7049TIP3    H142638   2.189   0.303  13.673 -0.1292  0.1825  0.6052
 7049TIP3    H242639   2.268   0.188  13.731  0.6862  0.0921 -0.6377
 7050TIP3   OH242640   2.698   0.940  10.320  0.0255 -0.6386 -0.6971
 7050TIP3    H142641   2.688   0.965  10.412 -1.0635  0.2122 -1.0260
 7050TIP3    H242642   2.671   1.017  10.270  2.2007 -0.4892 -1.7656
 7051TIP3   OH242643   2.521   5.054  15.120  0.4255  0.3638 -0.1056
 7051TIP3    H142644   2.502   4.963  15.141 -3.4086  1.2663  1.0203
 7051TIP3    H242645   2.558   5.091  15.201  2.6539 -0.2209 -0.7703
 7052TIP3   OH242646   5.569   0.322  11.260  0.1816  0.1551  0.0375
 7052TIP3    H142647   5.529   0.404  11.230 -0.1082 -0.1826 -0.5062
 7052TIP3    H242648   5.503   0.282  11.316  0.6224  0.6601  0.9410
 7053TIP3   OH242649   4.414   1.349  13.383  0.0765  0.5140  0.4024
 7053TIP3    H142650   4.430   1.443  13.371 -2.6668  0.8843 -1.3219
 7053TIP3    H242651   4.469   1.324  13.457  0.9288  3.4673  0.8884
 7054TIP3   OH242652   3.528   1.757  12.960 -0.6138  0.2192 -0.2148
 7054TIP3    H142653   3.561   1.813  13.031 -1.1939  0.5188 -0.1755
 7054TIP3    H242654   3.439   1.789  12.943 -1.5065 -1.6003  0.7531
 7055TIP3   OH242655   3.799   0.403  15.046 -0.2287  0.5368  0.4862
 7055TIP3    H142656   3.817   0.311  15.070  1.5079  0.5393 -0.6021
 7055TIP3    H242657   3.835   0.412  14.958 -0.4961  2.2362  0.5219
 7056TIP3   OH242658   4.699   5.143   4.949 -0.3217  0.4733 -0.2536
 7056TIP3    H142659   4.611   5.161   4.982 -1.4259 -1.7730 -1.7839
 7056TIP3    H242660   4.740   5.091   5.018 -0.8093  0.0869 -0.2509
 7057TIP3   OH242661   0.335   1.174   0.519  0.2159 -0.3761 -0.1735
 7057TIP3    H142662   0.359   1.257   0.479 -1.8789  0.1013 -0.5811
 7057TIP3    H242663   0.373   1.176   0.606 -0.3986  1.3547  0.0896
 7058TIP3   OH242664   0.036   1.565  12.415  0.1288 -0.4363  0.1730
 7058TIP3    H142665  -0.049   1.574  12.374  0.6701  0.4467 -0.7887
 7058TIP3    H242666   0.044   1.641  12.473  1.4957  1.2879 -2.0929
 7059TIP3   OH242667   4.612   4.898   5.705 -0.1093 -0.4725 -0.3230
 7059TIP3    H142668   4.524   4.873   5.678 -0.5561  2.3510 -1.8512
 7059TIP3    H242669   4.598   4.962   5.774  0.8005 -0.7359  0.1171
 7060TIP3   OH242670   2.268   0.990   3.255 -0.5022  0.6031  0.8168
 7060TIP3    H142671   2.287   0.956   3.167 -0.1753 -2.1344  1.8480
 7060TIP3    H242672   2.180   1.026   3.248  0.4280  2.7751 -1.1914
 7061TIP3   OH242673   2.773   4.666   2.280  0.2299 -0.5291  0.1282
 7061TIP3    H142674   2.744   4.722   2.208  1.8053  0.0570 -0.0996
 7061TIP3    H242675   2.723   4.585   2.269 -0.5953  0.0749 -0.7635
 7062TIP3   OH242676   1.144   0.810  13.662 -0.6967  0.1743 -0.3023
 7062TIP3    H142677   1.137   0.797  13.757  1.7751  3.1178  0.4293
 7062TIP3    H242678   1.145   0.721  13.626 -0.0843 -1.1094  2.6029
 7063TIP3   OH242679   2.848   6.734  16.049 -0.0796 -0.1753  0.5233
 7063TIP3    H142680   2.910   6.679  16.096  0.3838  0.3973  0.5941
 7063TIP3    H242681   2.790   6.672  16.005 -0.9881 -0.7499  2.4100
 7064TIP3   OH242682   6.548   2.631  15.358 -0.5438 -0.3025  0.3137
 7064TIP3    H142683   6.632   2.639  15.402 -0.4935  0.5852  0.0711
 7064TIP3    H242684   6.491   2.589  15.422 -0.0243 -0.5561  0.6177
 7065TIP3   OH242685   6.766   4.875   2.828 -0.3136 -0.3186  0.2554
 7065TIP3    H142686   6.795   4.834   2.910  0.3208  1.8929  1.2143
 7065TIP3    H242687   6.755   4.967   2.850 -1.0644  0.1781 -1.9488
 7066TIP3   OH242688   5.604   5.556  16.513  0.1255 -0.5964 -0.3994
 7066TIP3    H142689   5.681   5.544  16.459  0.2589  1.8003 -0.8362
 7066TIP3    H242690   5.638   5.581  16.599 -0.1449  0.1465 -0.5031
 7067TIP3   OH242691   1.898   3.408   0.644 -0.2365  0.5223  0.0448
 7067TIP3    H142692   1.979   3.459   0.649 -1.1054  2.3917 -2.5563
 7067TIP3    H242693   1.926   3.318   0.627  1.2964  0.7877  0.9955
 7068TIP3   OH242694   5.590   3.714   0.404 -0.5002 -0.2582 -0.2814
 7068TIP3    H142695   5.609   3.628   0.365  2.0256  0.6662 -1.2645
 7068TIP3    H242696   5.500   3.732   0.377 -1.1483 -2.5954  0.0265
 7069TIP3   OH242697   4.113   2.193   5.464 -0.4427 -0.3127  0.3680
 7069TIP3    H142698   4.163   2.264   5.424 -1.8061 -0.5530 -1.9864
 7069TIP3    H242699   4.165   2.166   5.539  0.7648  2.2900  0.5834
 7070TIP3   OH242700   6.025   0.581   5.921  0.4554  0.3374 -0.1376
 7070TIP3    H142701   5.980   0.501   5.948  0.9462  0.2419  0.4090
 7070TIP3    H242702   6.117   0.556   5.914  0.2899  0.1009 -2.8173
 7071TIP3   OH242703   4.289   6.238   0.155  0.4844  0.2683  0.5908
 7071TIP3    H142704   4.358   6.302   0.171  0.1935  1.4200 -2.1455
 7071TIP3    H242705   4.334   6.154   0.150  1.5286  0.8410  0.1249
 7072TIP3   OH242706   1.347   3.218   0.017 -0.6501 -0.1499  0.5345
 7072TIP3    H142707   1.270   3.163   0.027 -2.0935  1.6618 -0.0920
 7072TIP3    H242708   1.378   3.233   0.106  0.1165 -2.3359  0.7003
 7073TIP3   OH242709   2.662   3.535   5.861 -0.2514  0.5703  0.2814
 7073TIP3    H142710   2.584   3.576   5.898 -1.7583 -1.3503 -0.6453
 7073TIP3    H242711   2.652   3.544   5.766  2.0379  2.6629  0.1162
 7074TIP3   OH242712   3.141   1.368  14.592  0.3883 -0.2297 -0.0020
 7074TIP3    H142713   3.078   1.424  14.637 -0.4140 -0.4782 -0.7757
 7074TIP3    H242714   3.222   1.419  14.590  0.3933 -0.1436  1.5283
 7075TIP3   OH242715   4.705   5.924   4.631  0.1230  1.3359  0.5000
 7075TIP3    H142716   4.647   5.870   4.578  2.1477  0.9604 -1.4671
 7075TIP3    H242717   4.715   5.874   4.713 -1.3088  0.8181  0.3860
 7076TIP3   OH242718   0.493   3.124   2.887  0.2691  0.4297  0.2803
 7076TIP3    H142719   0.579   3.136   2.928 -0.1952 -3.1577  2.8530
 7076TIP3    H242720   0.437   3.187   2.931  0.8985  0.3023  1.3099
 7077TIP3   OH242721   2.947   3.568  13.273 -0.7456 -0.6258  0.4656
 7077TIP3    H142722   3.038   3.576  13.301 -0.2772  2.4913 -1.4944
 7077TIP3    H242723   2.896   3.579  13.353  0.6001  2.6178  1.0058
 7078TIP3   OH242724   6.292   4.009   4.539 -0.0933 -0.3347  0.6741
 7078TIP3    H142725   6.356   4.058   4.487 -1.2805  0.2029 -0.3422
 7078TIP3    H242726   6.226   4.075   4.563 -0.6767 -1.0289  1.0127
 7079TIP3   OH242727   6.825   6.483  10.508 -0.1190  0.1414 -0.3396
 7079TIP3    H142728   6.781   6.438  10.436 -0.8926  1.4350 -0.7193
 7079TIP3    H242729   6.865   6.413  10.560  0.5109 -0.8197 -2.0442
 7080TIP3   OH242730   2.541   5.481   6.469 -0.2626 -0.2506  0.2883
 7080TIP3    H142731   2.557   5.411   6.407  0.5284  1.5336 -1.6462
 7080TIP3    H242732   2.446   5.482   6.482 -0.3326 -1.2795 -0.1077
 7081TIP3   OH242733   2.924   2.943  12.411  1.1024  0.0888 -0.1762
 7081TIP3    H142734   2.916   3.005  12.484  1.2552 -1.4241  1.1617
 7081TIP3    H242735   2.834   2.929  12.381  0.8540 -0.5188  0.8074
 7082TIP3   OH242736   4.264   3.488   6.107  0.8463  0.1871 -0.1612
 7082TIP3    H142737   4.340   3.446   6.066  2.2047  0.5394  1.8593
 7082TIP3    H242738   4.207   3.415   6.133  0.9123 -0.1297 -0.8785
 7083TIP3   OH242739   1.966   3.885  16.538 -0.6107  0.2284 -0.1044
 7083TIP3    H142740   1.949   3.974  16.509  0.0625  0.6618  0.7775
 7083TIP3    H242741   1.892   3.864  16.596 -0.2999  0.5623  0.4194
 7084TIP3   OH242742   1.857   2.516   3.376  0.2581  0.6333 -0.2715
 7084TIP3    H142743   1.849   2.487   3.285  0.4937  1.0688 -0.4358
 7084TIP3    H242744   1.901   2.601   3.370  1.6254 -0.0096  0.3574
 7085TIP3   OH242745   5.587   3.849   4.983  0.3609  0.3209 -0.7130
 7085TIP3    H142746   5.664   3.864   5.037  1.3159  1.2557 -2.2539
 7085TIP3    H242747   5.558   3.761   5.006 -0.4483  1.3014  2.6607
 7086TIP3   OH242748   5.565   3.181   3.753  0.3315 -0.0963  0.4333
 7086TIP3    H142749   5.529   3.224   3.675  2.0465  1.1812  0.2853
 7086TIP3    H242750   5.654   3.158   3.729  0.5032 -0.7944  1.6363
 7087TIP3   OH242751   4.004   6.833  12.772  0.3464 -0.1386  0.8002
 7087TIP3    H142752   4.036   6.836  12.682 -0.5630 -0.7788  0.4379
 7087TIP3    H242753   4.075   6.870  12.824  0.6310  0.8421 -0.2458
 7088TIP3   OH242754   2.847   3.744   5.829 -0.0174 -0.2003 -0.1290
 7088TIP3    H142755   2.839   3.816   5.892  1.3033 -0.0766 -0.0751
 7088TIP3    H242756   2.775   3.685   5.851  0.0951  0.1103  1.1592
 7089TIP3   OH242757   0.067   3.909   4.362  0.5420 -0.5098 -0.1987
 7089TIP3    H142758   0.144   3.949   4.321  0.3051 -1.5228 -1.7352
 7089TIP3    H242759   0.005   3.896   4.290 -1.1109  0.3228  1.0198
 7090TIP3   OH242760   1.262   0.605  14.477 -0.0898  0.3243  0.2067
 7090TIP3    H142761   1.357   0.614  14.471  0.2135  0.8918  3.6651
 7090TIP3    H242762   1.249   0.533  14.539 -1.9709 -0.1970 -0.7098
 7091TIP3   OH242763   4.268   2.498  16.508 -0.4264 -0.0367  0.3569
 7091TIP3    H142764   4.299   2.443  16.436 -1.6543  0.2335 -0.4057
 7091TIP3    H242765   4.276   2.442  16.585 -0.8346 -1.0111 -0.2768
 7092TIP3   OH242766   5.131   1.945   3.279 -0.0865  0.0083  0.4362
 7092TIP3    H142767   5.040   1.916   3.283 -0.7503  1.4984 -1.8761
 7092TIP3    H242768   5.181   1.865   3.260 -1.4707 -0.2832 -2.5025
 7093TIP3   OH242769   2.773   0.282  13.899 -0.1341  0.2354 -0.1153
 7093TIP3    H142770   2.852   0.234  13.876 -0.0910 -0.1000  0.6859
 7093TIP3    H242771   2.772   0.283  13.995  0.2334  2.4308 -0.0764
 7094TIP3   OH242772   0.844   1.160  17.058 -0.0738 -0.4013  0.3376
 7094TIP3    H142773   0.761   1.204  17.076  0.0183 -0.3368  0.6054
 7094TIP3    H242774   0.819   1.081  17.009 -0.3197 -0.5287  0.6643
 7095TIP3   OH242775   6.785   2.668  16.779  0.0114  0.0468  0.1259
 7095TIP3    H142776   6.797   2.713  16.696  0.0765 -0.8616 -0.3741
 7095TIP3    H242777   6.849   2.707  16.838 -0.7241  1.4071  0.0527
 7096TIP3   OH242778   5.140   1.504   3.547  0.1385  0.5756  0.2044
 7096TIP3    H142779   5.073   1.573   3.539  0.5265  1.2066  1.9036
 7096TIP3    H242780   5.191   1.530   3.624  1.1074 -0.9524  0.1072
 7097TIP3   OH242781   5.689   5.347   2.589 -0.1046 -0.2400  0.7633
 7097TIP3    H142782   5.756   5.414   2.598 -0.6260  0.2752  0.8644
 7097TIP3    H242783   5.628   5.383   2.524  0.6516 -1.4703 -0.6894
 7098TIP3   OH242784   4.614   4.783   2.488  0.0742 -0.8468  0.0916
 7098TIP3    H142785   4.694   4.733   2.474 -0.1015 -2.0032  2.7052
 7098TIP3    H242786   4.577   4.794   2.400  2.2517 -1.6417 -1.0026
 7099TIP3   OH242787   2.400   2.311  12.586 -0.3621  0.3552  0.2680
 7099TIP3    H142788   2.332   2.245  12.599 -1.1701  0.9059 -0.9515
 7099TIP3    H242789   2.419   2.344  12.674 -1.8004  0.3000  0.6153
 7100TIP3   OH242790   2.624   3.637  14.365  0.3756 -0.6008  0.0648
 7100TIP3    H142791   2.704   3.667  14.322 -0.1086  1.1777  0.2932
 7100TIP3    H242792   2.558   3.634  14.295 -0.1968  1.4520  0.4335
 7101TIP3   OH242793   1.437   1.746   1.946 -0.4097 -0.3806  0.1705
 7101TIP3    H142794   1.445   1.842   1.941 -1.1224 -0.3665 -1.3269
 7101TIP3    H242795   1.510   1.719   2.001 -0.1075  1.0166  0.5050
 7102TIP3   OH242796   3.966   0.055   4.182 -0.0523  0.2012  0.2778
 7102TIP3    H142797   4.024   0.011   4.120 -0.1249  0.4093  0.0634
 7102TIP3    H242798   3.878   0.043   4.147 -0.4011 -1.9428  1.6735
 7103TIP3   OH242799   3.513   2.845   2.394  0.1657 -0.4145  0.6261
 7103TIP3    H142800   3.424   2.863   2.425  0.4372 -1.4389  2.0864
 7103TIP3    H242801   3.511   2.868   2.301 -1.9727 -1.5748  0.3242
 7104TIP3   OH242802   1.396   3.495  12.614 -0.1571  0.3838 -0.5066
 7104TIP3    H142803   1.378   3.507  12.520 -0.0378  0.8692 -0.4706
 7104TIP3    H242804   1.395   3.584  12.650 -0.4065  0.1851 -0.0068
 7105TIP3   OH242805   2.066   6.611  15.431 -0.0098 -0.0898  0.2740
 7105TIP3    H142806   2.048   6.546  15.364 -0.2164 -0.2186  0.4531
 7105TIP3    H242807   2.122   6.676  15.388 -1.2313  0.5304 -0.4060
 7106TIP3   OH242808   1.370   3.312  14.246 -0.3117 -0.4645 -0.1184
 7106TIP3    H142809   1.439   3.363  14.288  1.3670 -2.0950 -0.7515
 7106TIP3    H242810   1.407   3.288  14.161 -2.4835  0.2930 -1.3685
 7107TIP3   OH242811   3.137   1.022  11.270 -0.6667  0.3439 -0.4900
 7107TIP3    H142812   3.183   1.088  11.218  0.2120  0.9633  1.0259
 7107TIP3    H242813   3.196   0.947  11.272 -0.2928  0.6605  0.3767
 7108TIP3   OH242814   4.387   1.050   5.422  0.3860  0.2803 -0.0641
 7108TIP3    H142815   4.365   1.064   5.514 -0.3026  1.4418 -0.3817
 7108TIP3    H242816   4.358   0.960   5.404 -0.7525  0.5132  0.5130
 7109TIP3   OH242817   6.664   4.363   0.184  0.1773  0.0950 -0.0221
 7109TIP3    H142818   6.698   4.450   0.205 -0.1028  0.0663  0.5723
 7109TIP3    H242819   6.570   4.376   0.170 -0.7622 -0.6643  4.1129
 7110TIP3   OH242820   4.763   2.619   5.722  0.4506 -0.4081  0.3598
 7110TIP3    H142821   4.730   2.687   5.780  0.7284 -0.4792  0.6031
 7110TIP3    H242822   4.764   2.659   5.635 -2.2650 -1.0276 -0.0571
 7111TIP3   OH242823   1.449   0.467   3.962  0.4753  0.0767  0.4289
 7111TIP3    H142824   1.357   0.448   3.979 -0.0251  1.5466 -0.4336
 7111TIP3    H242825   1.467   0.545   4.015  0.7022  0.8531 -0.7626
 7112TIP3   OH242826   4.893   3.317  14.888  0.0418 -0.5688 -0.4895
 7112TIP3    H142827   4.923   3.383  14.950 -1.8485  0.2548 -0.3671
 7112TIP3    H242828   4.920   3.350  14.802 -1.6293  0.9133 -0.5214
 7113TIP3   OH242829   0.613   1.941   4.132 -0.0714  0.1898 -0.0307
 7113TIP3    H142830   0.693   1.943   4.081 -0.4438  0.1606 -0.6199
 7113TIP3    H242831   0.565   1.865   4.100  0.0379 -0.2915  0.9061
 7114TIP3   OH242832   0.064   3.650  15.744  0.0555 -0.5041 -0.2638
 7114TIP3    H142833   0.092   3.649  15.835  0.2905 -0.4384 -0.3356
 7114TIP3    H242834   0.127   3.595  15.698  0.6431  0.4071 -0.5885
 7115TIP3   OH242835   1.372   6.765  14.515  0.1043  0.0273  0.4185
 7115TIP3    H142836   1.433   6.722  14.575  0.0061 -0.0208  0.4854
 7115TIP3    H242837   1.306   6.697  14.496 -0.8947  0.5999  1.7172
 7116TIP3   OH242838   3.853   4.916  14.445  0.2681 -0.1784 -0.6675
 7116TIP3    H142839   3.827   4.941  14.356 -1.5492  0.8400  0.0948
 7116TIP3    H242840   3.783   4.950  14.501  2.2260  0.8117  1.3453
 7117TIP3   OH242841   2.850   2.521  16.925 -0.4943 -0.1790 -0.2965
 7117TIP3    H142842   2.785   2.591  16.921 -0.6709 -0.3097  0.3096
 7117TIP3    H242843   2.799   2.442  16.939 -0.2128 -0.3052  0.0098
 7118TIP3   OH242844   6.381   5.337  13.501  0.3438 -0.3801  0.3430
 7118TIP3    H142845   6.438   5.373  13.569 -0.2216 -0.3170  0.7919
 7118TIP3    H242846   6.351   5.413  13.452 -0.8791 -0.1966  1.3129
 7119TIP3   OH242847   0.836   2.309   0.637 -0.4428  0.7651 -0.2926
 7119TIP3    H142848   0.917   2.360   0.645  0.1842 -0.3995  1.3319
 7119TIP3    H242849   0.769   2.364   0.677  0.0879  0.6629  0.7875
 7120TIP3   OH242850   5.033   6.402   0.839  0.1641 -0.2854 -0.2105
 7120TIP3    H142851   5.000   6.317   0.867  3.3653 -0.6235  3.4582
 7120TIP3    H242852   4.956   6.459   0.838 -1.7757 -2.7523 -1.0464
 7121TIP3   OH242853   5.645   0.187  15.798 -0.2132 -0.0593 -0.1340
 7121TIP3    H142854   5.632   0.130  15.722 -1.1709 -0.0806  0.0341
 7121TIP3    H242855   5.695   0.133  15.859 -1.1014 -0.7211  0.0175
 7122TIP3   OH242856   1.651   1.245  15.811 -0.6917 -0.2720 -0.0665
 7122TIP3    H142857   1.572   1.284  15.774 -0.4804 -0.2948 -0.5468
 7122TIP3    H242858   1.712   1.319  15.820 -0.0300 -0.5660 -1.6542
 7123TIP3   OH242859   1.308   6.622  13.359  0.4019 -0.0530 -0.0792
 7123TIP3    H142860   1.225   6.588  13.390 -0.7635  1.6801 -1.1473
 7123TIP3    H242861   1.364   6.625  13.437 -1.0435  0.2232  0.9754
 7124TIP3   OH242862   1.307   0.462   5.981  0.7159  0.2696  0.4122
 7124TIP3    H142863   1.279   0.458   6.073  0.7241 -0.4491  0.3931
 7124TIP3    H242864   1.317   0.370   5.956 -1.1815  0.3905 -0.8990
 7125TIP3   OH242865   2.014   5.730   0.716  0.2330 -0.2520  0.1915
 7125TIP3    H142866   2.095   5.747   0.667 -0.0207 -0.2367 -0.2298
 7125TIP3    H242867   1.991   5.640   0.693  0.3394 -0.3849  0.6139
 7126TIP3   OH242868   2.563   3.328  12.963  0.1203  0.2008  0.0722
 7126TIP3    H142869   2.559   3.244  12.918  1.0106  0.3809 -0.3656
 7126TIP3    H242870   2.475   3.364  12.954 -0.5656 -1.0946  1.1036
 7127TIP3   OH242871   2.992   3.484   5.899  0.1668 -0.3103  0.3506
 7127TIP3    H142872   2.927   3.436   5.950 -0.5503 -0.1131 -0.3578
 7127TIP3    H242873   2.952   3.570   5.884  0.9427  0.1079  0.6008
 7128TIP3   OH242874   1.338   3.639   2.901  0.2123  0.0205 -0.0068
 7128TIP3    H142875   1.294   3.723   2.890  2.4551  1.0458 -1.8609
 7128TIP3    H242876   1.373   3.641   2.990 -1.6805  0.0107  0.7857
 7129TIP3   OH242877   1.037   0.064   0.625  0.3218  0.1138  0.3028
 7129TIP3    H142878   1.073   0.146   0.592 -0.2949  0.1073 -0.3941
 7129TIP3    H242879   0.980   0.032   0.555  1.4467 -1.5064  0.0835
 7130TIP3   OH242880   5.670   5.213  13.329 -0.1283 -0.7974  0.1806
 7130TIP3    H142881   5.653   5.258  13.411 -0.6481 -1.6812  0.5703
 7130TIP3    H242882   5.744   5.260  13.290 -1.6284  1.4088 -0.2168
 7131TIP3   OH242883   5.494   3.631  16.369 -0.3819  0.3856 -0.5016
 7131TIP3    H142884   5.476   3.676  16.451 -0.3805 -0.1236 -0.2168
 7131TIP3    H242885   5.486   3.699  16.301  3.0158  1.6891  0.1721
 7132TIP3   OH242886   4.974   3.564  14.708 -0.3216  0.5446  0.1091
 7132TIP3    H142887   4.919   3.626  14.756  1.1097  1.4824  0.6199
 7132TIP3    H242888   4.939   3.564  14.619 -0.5632  1.8299  0.1912
 7133TIP3   OH242889   2.704   2.622   3.659  0.5111  0.2660 -0.3862
 7133TIP3    H142890   2.678   2.595   3.747  1.1763  1.9480  0.3751
 7133TIP3    H242891   2.703   2.717   3.662 -1.5026  0.4291 -2.8521
 7134TIP3   OH242892   1.304   3.247   4.724  0.4332 -0.6781 -0.7401
 7134TIP3    H142893   1.320   3.307   4.650  0.3127 -1.5674 -1.5097
 7134TIP3    H242894   1.228   3.196   4.697 -0.2840 -0.2927  0.4834
 7135TIP3   OH242895   3.048   6.521   1.359  0.4611  0.3988  0.0020
 7135TIP3    H142896   2.994   6.456   1.403 -0.8690  0.4593 -1.4447
 7135TIP3    H242897   3.022   6.605   1.398  0.3050  0.3222  0.0599
 7136TIP3   OH242898   1.338   1.851  14.934 -0.4938 -0.3598 -0.1581
 7136TIP3    H142899   1.429   1.824  14.945  0.3537  1.1136 -2.6226
 7136TIP3    H242900   1.333   1.935  14.981 -0.1097  0.2601 -1.1663
 7137TIP3   OH242901   2.226   1.964   5.094 -0.2848  0.0050  0.3889
 7137TIP3    H142902   2.187   2.050   5.080  0.7849  0.5856  0.8833
 7137TIP3    H242903   2.226   1.923   5.008 -0.4160  0.6583  0.0770
 7138TIP3   OH242904   3.134   2.533   1.141 -0.0913 -0.2254 -0.2076
 7138TIP3    H142905   3.178   2.489   1.068 -0.2753  0.4163 -0.7142
 7138TIP3    H242906   3.122   2.623   1.111 -0.9267 -0.1624  0.2867
 7139TIP3   OH242907   6.201   2.755  14.206  0.1459 -0.0469 -0.0132
 7139TIP3    H142908   6.110   2.779  14.188  0.1295 -0.8334 -1.0704
 7139TIP3    H242909   6.207   2.662  14.184  1.4214  0.2083 -0.8817
 7140TIP3   OH242910   5.402   3.494   0.510 -0.4101 -0.6099 -0.1403
 7140TIP3    H142911   5.354   3.447   0.442 -0.4887  0.7542 -1.0660
 7140TIP3    H242912   5.350   3.573   0.525  0.4076 -0.1705  0.4278
 7141TIP3   OH242913   3.638   1.210  11.940 -0.9003 -0.5927 -0.6546
 7141TIP3    H142914   3.609   1.210  11.848 -0.9411 -1.6326 -0.6511
 7141TIP3    H242915   3.680   1.296  11.951 -2.4287  0.2664 -1.1432
 7142TIP3   OH242916   3.476   1.344   0.244  0.1618  0.1187 -0.3949
 7142TIP3    H142917   3.471   1.421   0.300 -3.2677  2.1924 -3.1606
 7142TIP3    H242918   3.569   1.321   0.243  0.6155  0.5681  4.9468
 7143TIP3   OH242919   4.329   4.444  14.424 -0.1852 -0.0726 -0.1178
 7143TIP3    H142920   4.286   4.424  14.506 -0.0954  0.4666  0.0693
 7143TIP3    H242921   4.381   4.522  14.443  0.4596 -0.4102 -0.4759
 7144TIP3   OH242922   6.783   4.014   1.573  0.5084 -0.6883  0.1889
 7144TIP3    H142923   6.771   3.968   1.656  2.3895 -3.5918 -0.9716
 7144TIP3    H242924   6.850   3.963   1.527  3.7949  3.9281 -0.8558
 7145TIP3   OH242925   0.632   0.014  14.773 -0.3635 -0.1186 -0.3906
 7145TIP3    H142926   0.608   0.033  14.863 -0.3879 -1.9423  0.0293
 7145TIP3    H242927   0.694  -0.059  14.779 -0.3482 -0.2688 -1.8514
 7146TIP3   OH242928   0.410   0.129   0.898  0.0148  0.3576 -0.2033
 7146TIP3    H142929   0.438   0.179   0.975  0.4468  0.2118 -0.2632
 7146TIP3    H242930   0.316   0.117   0.910 -0.0815  1.0958 -0.1325
 7147TIP3   OH242931   1.961   4.852   6.224 -0.1932 -0.0413  0.5415
 7147TIP3    H142932   2.048   4.839   6.262  0.6454  2.1958 -0.3720
 7147TIP3    H242933   1.908   4.886   6.296 -0.0629 -0.5710  0.8917
 7148TIP3   OH242934   4.718   1.320   4.163  0.1347 -0.1502  0.6905
 7148TIP3    H142935   4.693   1.249   4.104 -1.6412 -0.8994  2.2407
 7148TIP3    H242936   4.647   1.383   4.157  1.4898  1.3506 -0.3477
 7149TIP3   OH242937   0.308   3.235   3.082 -0.1317 -0.1366  0.6146
 7149TIP3    H142938   0.310   3.322   3.123  1.5331 -0.3985  1.1733
 7149TIP3    H242939   0.344   3.176   3.150 -1.0493 -1.2363  0.1788
 7150TIP3   OH242940   3.307   6.556   3.254  0.4004  1.1026  0.4954
 7150TIP3    H142941   3.309   6.509   3.171 -2.3745  2.8610 -0.6734
 7150TIP3    H242942   3.248   6.505   3.309 -0.1993  1.5802  0.2971
 7151TIP3   OH242943   0.009   2.656  13.269 -0.3555 -0.5574 -0.3902
 7151TIP3    H142944  -0.038   2.676  13.188 -0.2924  0.2296 -0.2435
 7151TIP3    H242945   0.017   2.561  13.270 -0.9111 -0.6152 -0.9961
 7152TIP3   OH242946   6.293   3.503  12.950  0.4873 -0.0522 -0.2385
 7152TIP3    H142947   6.259   3.417  12.976 -0.2388  0.5523  0.9026
 7152TIP3    H242948   6.355   3.484  12.880  0.4841 -1.5236  0.1223
 7153TIP3   OH242949   5.958   1.784  14.232 -0.5992  0.4930 -0.1468
 7153TIP3    H142950   6.037   1.832  14.257 -0.3150 -0.0703  0.0798
 7153TIP3    H242951   5.983   1.738  14.152 -0.6939  0.3103 -0.0718
 7154TIP3   OH242952   6.102   2.641  15.417 -0.2391  0.0499  0.0800
 7154TIP3    H142953   6.039   2.615  15.484 -0.0175  0.2680  0.3709
 7154TIP3    H242954   6.047   2.670  15.343 -0.5177  2.6366  1.2138
 7155TIP3   OH242955   3.346   3.504  13.163  0.2697  0.1520 -0.3220
 7155TIP3    H142956   3.251   3.501  13.160  0.2630 -1.6127  0.5508
 7155TIP3    H242957   3.375   3.416  13.140  1.6780  0.5464 -0.1974
 7156TIP3   OH242958   5.856   2.544   1.492  0.1488  0.0539 -0.4565
 7156TIP3    H142959   5.885   2.518   1.405  1.0852 -1.6241  0.3190
 7156TIP3    H242960   5.763   2.521   1.494  0.5061 -1.4845 -0.4751
 7157TIP3   OH242961   3.507   1.677   4.197  0.1632 -0.3889 -0.0687
 7157TIP3    H142962   3.469   1.731   4.128  0.5570  0.4384  0.3430
 7157TIP3    H242963   3.513   1.736   4.272 -0.0177 -1.2021  0.5906
 7158TIP3   OH242964   6.055   4.423   2.075  0.1445 -0.2655  0.0483
 7158TIP3    H142965   6.075   4.447   1.984 -2.3490 -1.4635 -0.9200
 7158TIP3    H242966   6.133   4.378   2.105  0.9401 -0.0792 -1.6094
 7159TIP3   OH242967   6.230   2.491  14.162 -0.1280 -0.1966 -0.1160
 7159TIP3    H142968   6.256   2.430  14.231 -0.7743 -1.2700 -0.7868
 7159TIP3    H242969   6.195   2.435  14.092 -0.5393  0.9288 -0.8482
 7160TIP3   OH242970   1.563   5.479   0.354  0.4275 -0.0789 -0.3581
 7160TIP3    H142971   1.579   5.396   0.309  1.0025  0.6504 -1.5547
 7160TIP3    H242972   1.484   5.514   0.313  1.5378  1.0874 -1.6163
 7161TIP3   OH242973   1.953   2.499  16.406 -0.0572  0.0545 -0.3122
 7161TIP3    H142974   1.907   2.583  16.410  0.0268  0.0760  0.2573
 7161TIP3    H242975   2.042   2.522  16.381 -0.2875  0.0354 -1.1762
 7162TIP3   OH242976   6.401   0.468  12.409 -0.2029  0.0208  0.1438
 7162TIP3    H142977   6.353   0.449  12.329 -2.3642 -1.1767  1.6218
 7162TIP3    H242978   6.456   0.543  12.387 -1.7342  0.5918 -2.0649
 7163TIP3   OH242979   1.344   5.670   0.394  0.3685  0.1152  0.1397
 7163TIP3    H142980   1.261   5.715   0.411  0.5737  0.4873  0.1834
 7163TIP3    H242981   1.319   5.585   0.360 -0.0258  0.4116 -0.3174
 7164TIP3   OH242982   6.485   4.843   2.840  0.5862 -0.5799 -0.6040
 7164TIP3    H142983   6.458   4.842   2.932 -0.6304  1.3117 -0.8669
 7164TIP3    H242984   6.580   4.834   2.843  1.0538  2.8969  1.1910
 7165TIP3   OH242985   5.968   5.229   3.122 -0.4004  0.0686 -0.5193
 7165TIP3    H142986   6.026   5.164   3.084  1.7325  2.4943 -1.7622
 7165TIP3    H242987   5.928   5.274   3.047 -1.9423  0.1198  0.2890
 7166TIP3   OH242988   1.669   3.343   4.978 -0.7871 -0.4501  0.3016
 7166TIP3    H142989   1.686   3.407   5.047 -1.0787  0.7809 -0.7211
 7166TIP3    H242990   1.619   3.392   4.912  1.5892 -0.8306 -1.9460
 7167TIP3   OH242991   2.468   5.859   4.346 -0.2786  0.5788 -0.2277
 7167TIP3    H142992   2.387   5.812   4.368 -0.7288  0.8611 -1.2387
 7167TIP3    H242993   2.467   5.866   4.251  1.0798  0.3543 -0.2824
 7168TIP3   OH242994   0.142   4.423   4.717 -0.3441 -0.8096 -0.0415
 7168TIP3    H142995   0.177   4.443   4.630 -2.9185  2.6196 -0.5176
 7168TIP3    H242996   0.124   4.329   4.715  2.5985 -1.4676 -1.9739
 7169TIP3   OH242997   2.997   5.848   3.015  0.2550 -1.2660 -0.1636
 7169TIP3    H142998   3.029   5.806   2.935 -0.7929  0.4013 -1.5075
 7169TIP3    H242999   3.077   5.872   3.063  0.9934 -0.0169 -1.9333
 7170TIP3   OH243000   2.513   3.313  11.534 -0.1522  0.1334 -0.3439
 7170TIP3    H143001   2.506   3.342  11.625  0.2144 -0.9603  0.0485
 7170TIP3    H243002   2.440   3.252  11.522 -0.0923  0.1299 -0.7236
 7171TIP3   OH243003   0.623   1.483  11.358  0.6500  0.7587  0.6139
 7171TIP3    H143004   0.715   1.470  11.332  0.1288 -1.3118 -0.3900
 7171TIP3    H243005   0.627   1.498  11.452  2.0307  0.8227  0.5713
 7172TIP3   OH243006   2.800   5.296   1.665 -0.4570  0.1206 -0.1021
 7172TIP3    H143007   2.832   5.206   1.652 -0.6043 -0.1239  1.1355
 7172TIP3    H243008   2.880   5.349   1.671 -0.3080 -0.2435  1.2797
 7173TIP3   OH243009   0.432   3.590   0.474  0.6561 -0.2033 -0.8224
 7173TIP3    H143010   0.345   3.623   0.453  0.2492 -1.9325 -2.0270
 7173TIP3    H243011   0.457   3.638   0.554 -2.3093 -1.2187  0.8515
 7174TIP3   OH243012   0.948   3.340   0.365 -0.1536  0.3892 -0.1121
 7174TIP3    H143013   0.984   3.257   0.397  0.4865  0.2178 -1.1882
 7174TIP3    H243014   0.998   3.357   0.285 -2.1446  0.4117 -1.4115
 7175TIP3   OH243015   2.936   1.607   4.912 -0.2473 -0.3401  0.3574
 7175TIP3    H143016   2.891   1.524   4.897 -0.2327 -0.4079  0.6720
 7175TIP3    H243017   2.999   1.614   4.840 -0.5374 -0.3992  0.0954
 7176TIP3   OH243018   6.269   4.163  12.501 -0.2068  0.2660 -0.0789
 7176TIP3    H143019   6.309   4.077  12.513 -0.6922  0.2107  1.3417
 7176TIP3    H243020   6.250   4.193  12.590  0.6816  2.2076 -0.5092
 7177TIP3   OH243021   6.504   3.318   3.823 -0.0751 -0.1309 -0.5006
 7177TIP3    H143022   6.432   3.374   3.796  0.4623  1.5812  1.3896
 7177TIP3    H243023   6.566   3.321   3.750 -0.2940  1.3322 -0.6510
 7178TIP3   OH243024   3.946   5.647   4.804 -1.0197 -0.2231  0.4290
 7178TIP3    H143025   3.939   5.682   4.715  0.1055 -0.5984  0.1819
 7178TIP3    H243026   3.899   5.711   4.858 -0.1375  1.0056 -0.1880
 7179TIP3   OH243027   3.437   2.349  13.000 -0.1193 -0.4955 -0.0454
 7179TIP3    H143028   3.387   2.363  12.920  0.1025 -1.0286 -0.2874
 7179TIP3    H243029   3.525   2.382  12.980 -0.3343  0.3328  0.3389
 7180TIP3   OH243030   3.180   4.175   6.276  0.1146  0.1019  0.0630
 7180TIP3    H143031   3.123   4.211   6.344  0.8425 -0.2289  0.8644
 7180TIP3    H243032   3.196   4.085   6.303  0.7475  0.0924 -0.3259
 7181TIP3   OH243033   1.596   0.484   5.473  0.0563 -0.1125 -0.4815
 7181TIP3    H143034   1.586   0.522   5.386 -0.3952 -1.8321 -1.2171
 7181TIP3    H243035   1.690   0.466   5.480  0.2761  1.0773 -0.1243
 7182TIP3   OH243036   0.780   5.596   5.396 -0.1678  0.2304 -0.2310
 7182TIP3    H143037   0.849   5.610   5.462 -0.3268  1.9700 -0.3800
 7182TIP3    H243038   0.814   5.526   5.341  0.4557 -0.5247  1.0565
 7183TIP3   OH243039   5.845   5.889  16.316 -0.7096 -0.6703  0.1921
 7183TIP3    H143040   5.897   5.814  16.347 -2.2633 -1.6563  0.5159
 7183TIP3    H243041   5.756   5.871  16.348 -1.8777 -0.4315 -2.6658
 7184TIP3   OH243042   1.641   5.215  14.513 -0.2519 -0.0409 -0.3217
 7184TIP3    H143043   1.717   5.156  14.509  0.1599  0.5160 -3.3423
 7184TIP3    H243044   1.679   5.301  14.534 -0.3069 -0.0870 -0.0278
 7185TIP3   OH243045   2.186   5.037  14.454  0.1200 -0.1754 -0.8299
 7185TIP3    H143046   2.097   5.038  14.417 -0.1617  1.5244 -0.1596
 7185TIP3    H243047   2.180   5.092  14.532  1.9565  0.6300 -1.2208
 7186TIP3   OH243048   1.701   4.167  12.293 -0.3519  0.0407 -0.1433
 7186TIP3    H143049   1.661   4.203  12.373  3.6339 -0.1149  2.2134
 7186TIP3    H243050   1.692   4.072  12.302 -0.6655  0.0484 -0.3543
 7187TIP3   OH243051   1.578   1.676  15.714  0.1789 -0.2365  0.0081
 7187TIP3    H143052   1.533   1.613  15.769 -0.8120  0.3688 -0.0883
 7187TIP3    H243053   1.600   1.749  15.772  0.9524 -0.4748  0.0303
 7188TIP3   OH243054   1.059   3.629   2.706 -0.1265 -0.0015 -0.7515
 7188TIP3    H143055   1.060   3.679   2.624  0.8141 -1.4668 -1.6659
 7188TIP3    H243056   1.062   3.696   2.774  1.6362  1.1971 -1.9312
 7189TIP3   OH243057   0.593   6.398  17.156  0.1466  0.0696  0.3055
 7189TIP3    H143058   0.684   6.370  17.150 -0.1544 -0.8726 -0.0910
 7189TIP3    H243059   0.597   6.493  17.148  1.1619  0.1315  1.1804
 7190TIP3   OH243060   0.475   4.658   4.976 -0.9181 -0.5254 -0.0799
 7190TIP3    H143061   0.400   4.659   4.916 -0.8769 -0.1004 -0.1263
 7190TIP3    H243062   0.548   4.687   4.923 -0.9738  0.3209  0.3000
 7191TIP3   OH243063   4.448   5.956   4.039  0.3173 -0.4173  0.5967
 7191TIP3    H143064   4.493   5.877   4.010 -3.0556 -2.0202 -0.7822
 7191TIP3    H243065   4.492   6.027   3.990  2.9650 -1.4080  1.3572
 7192TIP3   OH243066   0.831   2.932  15.327  0.1115 -0.2242 -0.1702
 7192TIP3    H143067   0.755   2.945  15.271  0.5778  1.2666 -0.5114
 7192TIP3    H243068   0.807   2.973  15.410 -0.3265 -1.8421  0.5419
 7193TIP3   OH243069   2.279   0.502   2.418  0.3761 -0.4821 -0.1518
 7193TIP3    H143070   2.330   0.446   2.477  1.6093 -0.1457 -0.8502
 7193TIP3    H243071   2.216   0.443   2.377  0.0126 -0.8638  0.9187
 7194TIP3   OH243072   0.928   5.318  12.228  0.3067  0.3977  0.1467
 7194TIP3    H143073   0.939   5.284  12.317  1.2640  0.2556 -0.0136
 7194TIP3    H243074   0.834   5.323  12.215  0.0626 -2.8327 -0.0770
 7195TIP3   OH243075   3.893   3.863   0.938  0.0766 -0.3224 -0.0607
 7195TIP3    H143076   3.973   3.814   0.956  0.3653  0.8446  2.1461
 7195TIP3    H243077   3.906   3.900   0.850  1.9138 -0.2300  0.2259
 7196TIP3   OH243078   2.813   1.922   2.624  0.1465 -0.5154 -0.5439
 7196TIP3    H143079   2.804   1.831   2.653 -0.1291 -0.4646 -0.4692
 7196TIP3    H243080   2.878   1.960   2.683  0.8017 -0.8614 -1.0349
 7197TIP3   OH243081   3.822   6.502   5.961 -0.1766  0.1920 -0.0329
 7197TIP3    H143082   3.778   6.564   6.019 -0.2651 -0.1877  0.3098
 7197TIP3    H243083   3.910   6.493   5.998 -1.1031 -2.2824  1.8169
 7198TIP3   OH243084   5.871   3.128   2.085 -0.3697  0.2317 -0.1299
 7198TIP3    H143085   5.860   3.124   2.180  0.1947 -1.1370 -0.1001
 7198TIP3    H243086   5.960   3.096   2.070 -0.3123  0.8095 -1.1016
 7199TIP3   OH243087   2.030   5.387   2.416  0.2087 -0.0312  0.4997
 7199TIP3    H143088   2.010   5.393   2.509  0.5635  0.4469  0.5450
 7199TIP3    H243089   2.117   5.425   2.407  0.4307 -0.6170  0.0602
 7200TIP3   OH243090   5.703   2.931   6.618  0.0560 -0.2798 -0.0811
 7200TIP3    H143091   5.764   2.992   6.660 -1.3151  1.5479 -0.5874
 7200TIP3    H243092   5.745   2.909   6.535 -0.3333  1.7237 -0.8624
 7201TIP3   OH243093   4.639   2.231   4.128  0.2439  0.5747  0.4597
 7201TIP3    H143094   4.605   2.153   4.084  0.8237  2.6722 -4.4005
 7201TIP3    H243095   4.732   2.211   4.143  0.7099  0.6024 -1.9385
 7202TIP3   OH243096   2.989   6.775  12.609  0.0324  0.0897 -0.0764
 7202TIP3    H143097   2.903   6.736  12.596  0.2196  0.2751 -2.2654
 7202TIP3    H243098   3.044   6.703  12.640 -0.5330 -0.4225 -0.2484
 7203TIP3   OH243099   2.273   3.159   5.237  0.3681  0.3261  0.4751
 7203TIP3    H143100   2.177   3.168   5.231  0.5126  1.7932  0.0319
 7203TIP3    H243101   2.302   3.157   5.146  0.8426  1.1681  0.5948
 7204TIP3   OH243102   6.116   6.830   4.688  0.0857 -1.2538 -1.1921
 7204TIP3    H143103   6.149   6.749   4.727  1.6070  0.2737  0.9435
 7204TIP3    H243104   6.021   6.821   4.690  0.1463 -2.0432  1.2864
 7205TIP3   OH243105   0.791   4.791   4.982 -0.0150 -0.0849 -0.2171
 7205TIP3    H143106   0.836   4.846   5.046 -0.4242 -0.4901  0.4317
 7205TIP3    H243107   0.833   4.811   4.899  0.3016  0.6948  0.1268
 7206TIP3   OH243108   6.460   5.886  16.195  0.3850 -0.2570  0.3977
 7206TIP3    H143109   6.431   5.955  16.135  0.5747  0.2443  0.8749
 7206TIP3    H243110   6.414   5.808  16.165 -0.6793  0.3048  0.5169
 7207TIP3   OH243111   4.827   0.763  15.128 -0.0057  0.1679 -0.1280
 7207TIP3    H143112   4.865   0.790  15.044  1.1345 -0.0213  0.3034
 7207TIP3    H243113   4.901   0.764  15.189 -0.6214 -0.6303  0.6605
 7208TIP3   OH243114   0.034   2.963   3.940 -0.5099 -0.8568 -0.0868
 7208TIP3    H143115   0.097   2.922   3.882  0.3126 -0.4807  0.5185
 7208TIP3    H243116   0.019   3.049   3.903  1.8975  0.3637  1.5014
 7209TIP3   OH243117   5.688   2.259   0.758 -0.3385  0.6686 -0.9787
 7209TIP3    H143118   5.635   2.182   0.737 -0.3848  0.7891 -1.3186
 7209TIP3    H243119   5.778   2.230   0.747 -0.2542  0.0494  1.0080
 7210TIP3   OH243120   0.590   5.676  13.126  0.0195  0.1148  0.3063
 7210TIP3    H143121   0.627   5.650  13.210 -1.8783 -1.8686  0.5994
 7210TIP3    H243122   0.667   5.692  13.070  1.2953 -0.2281  1.8960
 7211TIP3   OH243123   5.540   4.601   2.778  0.2945 -0.9370  0.6410
 7211TIP3    H143124   5.596   4.660   2.827  1.1778 -1.1440 -0.0755
 7211TIP3    H243125   5.477   4.658   2.733  1.7527 -0.4092 -0.8335
 7212TIP3   OH243126   2.029   3.892  10.654 -0.2886  1.1590  0.2632
 7212TIP3    H143127   1.980   3.820  10.693 -1.6635  1.9969  0.1328
 7212TIP3    H243128   2.111   3.852  10.624 -0.9705 -0.3083  0.2921
 7213TIP3   OH243129   6.639   6.707   5.104 -0.8282  0.2972 -0.4092
 7213TIP3    H143130   6.654   6.801   5.101  2.1449 -0.0609  0.2278
 7213TIP3    H243131   6.695   6.671   5.035  1.5952 -1.2461  2.1430
 7214TIP3   OH243132   3.391   6.175   0.857  0.6344  0.0362 -1.3746
 7214TIP3    H143133   3.428   6.208   0.939 -1.4987 -1.6111  0.3874
 7214TIP3    H243134   3.327   6.241   0.830 -0.4043 -0.4968 -0.3171
 7215TIP3   OH243135   5.672   2.029  16.906  0.0685 -0.6412 -0.5193
 7215TIP3    H143136   5.610   2.045  16.834 -1.8898 -0.5628  1.1006
 7215TIP3    H243137   5.744   2.089  16.889 -1.1130  0.5420 -1.5575
 7216TIP3   OH243138   2.149   2.298  16.540 -0.5916  0.3502  0.1050
 7216TIP3    H143139   2.055   2.290  16.556 -0.6175  2.0272  1.0416
 7216TIP3    H243140   2.156   2.355  16.463 -0.3350 -2.1461 -1.8431
 7217TIP3   OH243141   4.641   4.472  16.742 -0.3791  0.5128  0.0902
 7217TIP3    H143142   4.589   4.439  16.669 -0.7696  0.7565  0.2592
 7217TIP3    H243143   4.719   4.417  16.743 -0.8706 -0.1896  0.1615
 7218TIP3   OH243144   6.427   6.319  13.198 -0.1658 -0.2174 -0.0362
 7218TIP3    H143145   6.353   6.356  13.150 -0.2406 -0.8860 -0.4524
 7218TIP3    H243146   6.414   6.348  13.289 -1.6964 -1.4308  0.1806
 7219TIP3   OH243147   4.482   6.601  11.555 -0.2568  0.3651  0.1464
 7219TIP3    H143148   4.452   6.655  11.628  0.7665  1.5527 -0.2812
 7219TIP3    H243149   4.409   6.601  11.493  0.0083  1.9445 -0.1971
 7220TIP3   OH243150   6.811   5.790   6.437 -0.4426  0.0951  0.5635
 7220TIP3    H143151   6.720   5.776   6.460 -0.5404 -1.1919 -0.5071
 7220TIP3    H243152   6.838   5.710   6.393  0.5131  1.3541 -1.3163
 7221TIP3   OH243153   6.282   4.260   2.870  0.2540 -0.3966  0.4282
 7221TIP3    H143154   6.351   4.238   2.932  1.7509 -0.4309 -1.1760
 7221TIP3    H243155   6.292   4.197   2.799  0.9702  1.7644 -1.5424
 7222TIP3   OH243156   0.272   4.064   3.107  0.3940  0.4480  0.6539
 7222TIP3    H143157   0.355   4.096   3.070  0.1743 -0.8016 -0.9849
 7222TIP3    H243158   0.298   3.995   3.168  0.5329 -0.6803 -0.6515
 7223TIP3   OH243159   0.987   6.582  10.917 -0.5742  0.0965 -0.0916
 7223TIP3    H143160   1.023   6.645  10.980 -1.3891 -0.1750  0.6665
 7223TIP3    H243161   1.063   6.549  10.870 -0.1132  1.5703 -0.4356
 7224TIP3   OH243162   2.708   2.497  15.113 -0.4002 -0.1277 -0.0591
 7224TIP3    H143163   2.787   2.506  15.166  0.6277 -0.4849 -1.4905
 7224TIP3    H243164   2.685   2.404  15.120  0.1469 -0.3242 -0.7921
 7225TIP3   OH243165   3.297   5.518   2.183  0.2588  0.2558 -0.5943
 7225TIP3    H143166   3.238   5.584   2.146 -1.4866 -1.9607 -2.0930
 7225TIP3    H243167   3.298   5.448   2.117  0.4304 -2.0559  1.7202
 7226TIP3   OH243168   4.376   3.756   2.327 -0.5099 -0.1877 -0.2722
 7226TIP3    H143169   4.421   3.710   2.398 -0.8517  0.6403  0.5120
 7226TIP3    H243170   4.316   3.815   2.372 -2.6804 -1.5176 -1.2905
 7227TIP3   OH243171   4.966   1.837   4.030 -0.1259  0.4616 -0.2851
 7227TIP3    H143172   5.001   1.766   4.085 -1.0888  0.2688  0.1051
 7227TIP3    H243173   5.021   1.836   3.952 -0.5511 -1.2076 -0.6074
 7228TIP3   OH243174   1.772   5.555   4.212  0.3226  0.2362  0.0485
 7228TIP3    H143175   1.854   5.514   4.185  1.6347  1.6903  1.5992
 7228TIP3    H243176   1.787   5.581   4.303 -2.7536 -1.6183  1.2451
 7229TIP3   OH243177   3.862   5.225  11.837 -0.5194  0.2402  0.2614
 7229TIP3    H143178   3.786   5.279  11.816 -1.4987 -1.5485 -1.1201
 7229TIP3    H243179   3.834   5.135  11.819  2.3116 -0.4172 -1.6091
 7230TIP3   OH243180   0.869   4.523  16.855 -0.4097 -0.5137  0.3245
 7230TIP3    H143181   0.943   4.578  16.879  1.3365 -2.4057 -0.3792
 7230TIP3    H243182   0.852   4.543  16.762  0.8704 -1.7776 -0.2153
 7231TIP3   OH243183   6.682   1.751   2.835  0.4022 -0.2882  1.1362
 7231TIP3    H143184   6.741   1.810   2.881  0.0324  0.5399  0.5869
 7231TIP3    H243185   6.606   1.741   2.893  0.2489  0.1854  1.0222
 7232TIP3   OH243186   6.161   0.391  11.618 -0.1594  0.3068  0.1462
 7232TIP3    H143187   6.175   0.309  11.666  1.0740  0.0883 -0.5427
 7232TIP3    H243188   6.071   0.415  11.638  0.1795  0.0496  2.3105
 7233TIP3   OH243189   3.173   0.728  13.439  0.1802 -0.3104  0.5754
 7233TIP3    H143190   3.098   0.706  13.495  0.2256  2.3980  1.8958
 7233TIP3    H243191   3.147   0.699  13.352 -0.6636 -3.0487  1.6492
 7234TIP3   OH243192   2.415   5.528   4.508  0.3010 -0.9846  0.0332
 7234TIP3    H143193   2.446   5.581   4.581  2.5774 -0.0597 -1.4986
 7234TIP3    H243194   2.330   5.567   4.485  0.1396 -0.5012  1.3570
 7235TIP3   OH243195   1.399   2.818   1.087  0.0330 -0.1792  0.6670
 7235TIP3    H143196   1.319   2.863   1.116 -1.1493 -1.6820 -0.1161
 7235TIP3    H243197   1.424   2.763   1.161  2.1008  2.3827  2.0486
 7236TIP3   OH243198   2.153   3.586  14.606 -0.5053  0.5654 -0.4766
 7236TIP3    H143199   2.230   3.530  14.618 -1.5355 -0.7509  0.4157
 7236TIP3    H243200   2.183   3.674  14.627  0.6089 -0.0264  0.5210
 7237TIP3   OH243201   0.745   1.417   0.061 -0.3501  0.1272  0.5833
 7237TIP3    H143202   0.820   1.376   0.105 -0.2357 -1.1669 -0.7538
 7237TIP3    H243203   0.682   1.346   0.049 -0.8910  0.7316 -0.2359
 7238TIP3   OH243204   0.440   5.747   1.485 -0.1330 -0.1489 -0.0949
 7238TIP3    H143205   0.422   5.797   1.565 -0.0645  4.0218 -2.4170
 7238TIP3    H243206   0.357   5.745   1.439 -0.0210 -1.9696 -0.3005
 7239TIP3   OH243207   4.144   4.347   5.921  0.2101 -0.3382  0.4606
 7239TIP3    H143208   4.155   4.278   5.986  0.3845  0.1615  0.9589
 7239TIP3    H243209   4.186   4.312   5.842  0.5226 -0.6905  0.7830
 7240TIP3   OH243210   2.271   1.015  14.665  0.2813  0.0072  0.2337
 7240TIP3    H143211   2.205   0.971  14.612  0.4909 -0.4160  0.3225
 7240TIP3    H243212   2.245   1.108  14.664 -0.2096 -0.1293  0.1191
 7241TIP3   OH243213   4.112   6.423  12.605  0.5510  0.0906 -0.1695
 7241TIP3    H143214   4.114   6.332  12.634 -0.1709  0.1018 -0.0598
 7241TIP3    H243215   4.052   6.423  12.531  2.8367 -0.0498 -2.1165
 7242TIP3   OH243216   1.696   4.817  11.561  0.0486 -0.1576 -0.6313
 7242TIP3    H143217   1.705   4.908  11.588  2.2526 -0.1830 -1.0520
 7242TIP3    H243218   1.651   4.774  11.633  1.0233  0.8278  0.6112
 7243TIP3   OH243219   0.967   1.415  15.628  0.2377 -0.0366  0.2422
 7243TIP3    H143220   1.042   1.361  15.603  0.8534 -0.1319  2.1520
 7243TIP3    H243221   0.905   1.354  15.667 -1.5584 -0.2016 -2.5901
 7244TIP3   OH243222   1.813   0.701  15.058 -0.1982 -0.0565  0.2391
 7244TIP3    H143223   1.852   0.786  15.078  0.0631 -0.4533  1.5469
 7244TIP3    H243224   1.719   0.717  15.060 -0.1579  0.1343  0.8829
 7245TIP3   OH243225   4.285   3.405   0.938  0.2461  0.3397  0.4487
 7245TIP3    H143226   4.312   3.462   1.010 -0.8140  0.5260  0.7195
 7245TIP3    H243227   4.300   3.457   0.859  2.9675 -0.4571  0.3595
 7246TIP3   OH243228   6.718   1.091  16.599  0.6718 -0.1439 -0.0500
 7246TIP3    H143229   6.645   1.147  16.574 -0.4139 -1.0362  1.0057
 7246TIP3    H243230   6.751   1.057  16.516  1.8287  2.5565 -0.7745
 7247TIP3   OH243231   0.322   3.061   3.296 -0.1981  0.3592 -0.0665
 7247TIP3    H143232   0.365   2.986   3.336 -0.6629  0.0290 -0.1831
 7247TIP3    H243233   0.232   3.057   3.328 -0.8713 -0.5352 -1.9850
 7248TIP3   OH243234   2.432   4.690   2.006  0.8871 -0.3056  0.4600
 7248TIP3    H143235   2.522   4.704   1.977  1.2234  3.8119  2.6696
 7248TIP3    H243236   2.379   4.733   1.938  0.9581  0.8453  1.1080
 7249TIP3   OH243237   6.456   4.708   1.316  0.1600  0.5539  0.0177
 7249TIP3    H143238   6.424   4.785   1.268 -0.2205  1.1631  1.2170
 7249TIP3    H243239   6.483   4.742   1.401  0.0801 -0.6236  0.5306
 7250TIP3   OH243240   1.598   5.274   2.373  0.0307  0.7452 -0.5213
 7250TIP3    H143241   1.610   5.297   2.465  1.9585  1.7674 -0.9757
 7250TIP3    H243242   1.662   5.327   2.326  0.1235 -0.8444 -2.3207
 7251TIP3   OH243243   1.015   0.631  12.755 -0.3811  0.1442  0.1910
 7251TIP3    H143244   1.022   0.650  12.662 -1.9303 -1.1087 -0.2309
 7251TIP3    H243245   0.973   0.709  12.792  0.9952  0.9975  0.0191
 7252TIP3   OH243246   2.980   5.585   3.862  0.8305 -0.0697 -0.9718
 7252TIP3    H143247   3.059   5.614   3.815  2.1801  1.1894  1.8126
 7252TIP3    H243248   2.943   5.666   3.898  0.9168 -1.0461  1.5234
 7253TIP3   OH243249   5.516   5.545  12.214  0.4241  0.8500  0.1759
 7253TIP3    H143250   5.486   5.620  12.265  0.6842  1.1893 -0.1611
 7253TIP3    H243251   5.533   5.581  12.127 -1.2132  0.0417 -0.5259
 7254TIP3   OH243252   0.915   6.477   2.070 -0.6781 -0.1757  0.5461
 7254TIP3    H143253   0.822   6.500   2.076 -1.2385 -1.6957 -1.3130
 7254TIP3    H243254   0.950   6.535   2.003 -1.0045 -1.5270 -0.8324
 7255TIP3   OH243255   4.076   0.353  11.818 -0.1603  0.0619  0.1332
 7255TIP3    H143256   4.100   0.296  11.745  0.5643 -0.3654  0.6903
 7255TIP3    H243257   4.045   0.293  11.886 -0.2295  0.4063  0.4075
 7256TIP3   OH243258   1.582   4.876   4.599  0.1293 -0.2479 -0.2136
 7256TIP3    H143259   1.513   4.939   4.580  0.3513  0.6252  1.6629
 7256TIP3    H243260   1.620   4.856   4.513 -0.5237  1.5069 -0.9646
 7257TIP3   OH243261   0.850   1.886  17.187 -0.2411  0.0536  0.5971
 7257TIP3    H143262   0.787   1.958  17.191 -0.0595  0.5326 -2.7593
 7257TIP3    H243263   0.827   1.838  17.108  0.7911 -2.5557  1.7626
 7258TIP3   OH243264   3.790   0.911   5.967 -0.6759  0.1720 -0.4951
 7258TIP3    H143265   3.752   0.958   6.041 -1.5166  0.7849 -1.2925
 7258TIP3    H243266   3.722   0.914   5.899 -0.8229 -2.2456 -0.5715
 7259TIP3   OH243267   0.547   0.222  16.295  0.3627 -0.1583 -0.2007
 7259TIP3    H143268   0.518   0.171  16.219 -1.5396  1.5577 -0.7255
 7259TIP3    H243269   0.594   0.296  16.259  1.7053 -0.6405  0.4762
 7260TIP3   OH243270   3.615   2.267  12.210  0.0640 -0.3659  0.0258
 7260TIP3    H143271   3.677   2.261  12.137 -0.3486 -0.7795 -0.2979
 7260TIP3    H243272   3.641   2.346  12.257  0.3158 -0.0725 -0.5901
 7261TIP3   OH243273   5.845   2.574  14.404  0.1658 -0.3255  0.1233
 7261TIP3    H143274   5.886   2.647  14.357 -2.5131  1.4616  0.3677
 7261TIP3    H243275   5.851   2.599  14.496 -0.1604 -0.7793  0.2713
 7262TIP3   OH243276   3.224   4.588  12.726  0.0007  0.4259  0.1459
 7262TIP3    H143277   3.178   4.529  12.667  0.5746  0.6833 -0.5799
 7262TIP3    H243278   3.242   4.536  12.804 -0.0677 -0.1614 -0.2256
 7263TIP3   OH243279   3.356   4.754  14.136  0.0385  0.5242 -0.0433
 7263TIP3    H143280   3.339   4.669  14.096  0.5797 -0.0585  0.9292
 7263TIP3    H243281   3.451   4.765  14.130  0.8879 -1.5567  4.6982
 7264TIP3   OH243282   3.861   5.504  15.075  0.3459 -0.0965 -0.5253
 7264TIP3    H143283   3.787   5.464  15.120  1.2143 -0.4782  0.6091
 7264TIP3    H243284   3.933   5.442  15.088  1.2622  1.0016 -0.2590
 7265TIP3   OH243285   6.444   2.945  11.573 -0.5314  0.2937  0.2101
 7265TIP3    H143286   6.538   2.954  11.588 -0.2381 -0.2900 -1.1216
 7265TIP3    H243287   6.404   2.987  11.649  0.7969 -0.5429  1.4278
 7266TIP3   OH243288   6.645   3.709   4.048 -0.5967  0.2726 -0.1861
 7266TIP3    H143289   6.586   3.636   4.066  0.6457 -1.3044 -2.0696
 7266TIP3    H243290   6.614   3.745   3.965  1.3904 -1.0562 -1.5970
 7267TIP3   OH243291   5.496   5.662   4.231  0.0174 -0.0304  0.1248
 7267TIP3    H143292   5.427   5.596   4.229  1.7377 -1.8807 -0.6543
 7267TIP3    H243293   5.557   5.631   4.298  0.8309  0.8153 -0.2099
 7268TIP3   OH243294   3.653   4.651   0.440 -0.3239 -0.0214 -0.5074
 7268TIP3    H143295   3.609   4.631   0.358 -1.4497 -0.8382  0.2714
 7268TIP3    H243296   3.709   4.727   0.419 -0.9496  0.0967 -1.8835
 7269TIP3   OH243297   6.051   0.547   4.268 -0.4876 -0.4934 -0.8917
 7269TIP3    H143298   5.980   0.484   4.261  0.4305 -1.7151  0.2548
 7269TIP3    H243299   6.122   0.509   4.216 -0.8305  1.0098 -2.5327
 7270TIP3   OH243300   4.874   0.150  12.598 -0.8579  0.1001  0.2588
 7270TIP3    H143301   4.781   0.170  12.602 -0.7922  0.2839  0.9688
 7270TIP3    H243302   4.898   0.167  12.507 -1.4652  0.2753  0.1246
 7271TIP3   OH243303   1.830   4.265   1.606  0.2988  0.7034 -0.5860
 7271TIP3    H143304   1.785   4.239   1.526 -2.8200  0.8003  0.9464
 7271TIP3    H243305   1.769   4.326   1.648  2.0749  1.1108  1.5709
 7272TIP3   OH243306   1.539   2.814   3.850 -0.4867  0.4414 -0.9100
 7272TIP3    H143307   1.559   2.753   3.921 -0.8434  1.2447 -0.1013
 7272TIP3    H243308   1.506   2.893   3.894 -2.1603  0.4176 -2.0277
 7273TIP3   OH243309   3.656   5.742  14.970 -0.4061  0.0826 -0.7164
 7273TIP3    H143310   3.597   5.817  14.968 -1.3652 -0.5996  0.7702
 7273TIP3    H243311   3.687   5.738  15.060 -0.8341 -1.6560 -0.6164
 7274TIP3   OH243312   5.075   0.411  11.236 -0.0896 -0.0094  0.2374
 7274TIP3    H143313   5.040   0.478  11.178  0.8710  0.1197 -0.2210
 7274TIP3    H243314   5.010   0.402  11.306 -0.1249  1.5525  0.4269
 7275TIP3   OH243315   6.053   0.776  17.140 -0.4612 -0.2857  0.2207
 7275TIP3    H143316   6.115   0.744  17.075 -0.3113  1.8337 -0.7787
 7275TIP3    H243317   5.972   0.729  17.122 -0.1374 -0.4579 -0.8584
 7276TIP3   OH243318   1.243   1.498  16.521  0.3740 -0.1735  0.3670
 7276TIP3    H143319   1.278   1.579  16.482  2.9979 -0.6038  1.6719
 7276TIP3    H243320   1.149   1.516  16.531  0.4640  1.8000 -1.5247
 7277TIP3   OH243321   1.676   4.795  15.836  0.4045  0.3719 -0.3492
 7277TIP3    H143322   1.734   4.867  15.811 -0.3468  0.7612 -1.0290
 7277TIP3    H243323   1.734   4.719  15.845  1.0268  0.7698 -0.9065
 7278TIP3   OH243324   6.209   2.712  16.130  0.2934  0.3793  0.5867
 7278TIP3    H143325   6.162   2.638  16.091 -0.0985  0.2360  1.3146
 7278TIP3    H243326   6.301   2.696  16.110  0.3784 -1.0733  1.9388
 7279TIP3   OH243327   1.128   1.215  12.676 -0.3708  0.3331 -0.2090
 7279TIP3    H143328   1.132   1.204  12.581 -2.2245 -0.6656 -0.2108
 7279TIP3    H243329   1.036   1.233  12.694 -0.0485  0.4885  1.4179
 7280TIP3   OH243330   0.551   2.327   0.489 -0.7255 -0.1451 -0.8320
 7280TIP3    H143331   0.522   2.238   0.510  0.2936  0.2104  2.6752
 7280TIP3    H243332   0.601   2.355   0.565 -0.3672  3.2109 -2.1216
 7281TIP3   OH243333   3.244   4.841  11.526  0.1159  0.4977  0.2508
 7281TIP3    H143334   3.268   4.921  11.573 -1.5277  0.4992  1.1447
 7281TIP3    H243335   3.328   4.801  11.502  1.0283  0.7653  2.7406
 7282TIP3   OH243336   4.411   3.636  12.815 -0.0620 -0.1019 -0.0689
 7282TIP3    H143337   4.350   3.563  12.807  0.5995 -0.5767 -0.9351
 7282TIP3    H243338   4.490   3.607  12.771  0.5287  0.8072  0.3454
 7283TIP3   OH243339   1.010   3.466   3.391  0.0969 -0.4459  0.5410
 7283TIP3    H143340   1.039   3.393   3.336 -0.9782 -0.2764 -0.2905
 7283TIP3    H243341   1.051   3.543   3.351 -0.2568 -0.3865  0.2848
 7284TIP3   OH243342   6.131   5.737   5.862  0.4182 -0.2224  0.3329
 7284TIP3    H143343   6.111   5.675   5.792  3.5257 -2.0314  0.8952
 7284TIP3    H243344   6.169   5.684   5.932  0.5386  1.9664  2.0481
 7285TIP3   OH243345   1.390   5.487  14.657  0.2399 -0.4796 -0.1015
 7285TIP3    H143346   1.473   5.535  14.659 -0.6151  0.9987  0.3631
 7285TIP3    H243347   1.322   5.553  14.665 -0.9870 -1.7732  0.7076
 7286TIP3   OH243348   3.282   6.326   3.953  0.1986 -0.4896 -0.3852
 7286TIP3    H143349   3.304   6.255   4.013 -0.1432 -0.4361 -0.1928
 7286TIP3    H243350   3.315   6.405   3.997 -0.2513 -0.4245 -0.1571
 7287TIP3   OH243351   0.093   6.184  11.573 -0.0138 -0.2240  0.1095
 7287TIP3    H143352   0.081   6.096  11.608  1.5801 -0.5921 -0.1823
 7287TIP3    H243353   0.174   6.215  11.614  1.6335 -0.4492 -2.6535
 7288TIP3   OH243354   1.610   2.868   0.467  0.2014  0.3710  0.4251
 7288TIP3    H143355   1.623   2.876   0.372 -1.0817 -0.3602  0.1673
 7288TIP3    H243356   1.644   2.781   0.488 -0.5165  0.0792  0.4247
 7289TIP3   OH243357   4.799   5.106  15.396  0.2741  0.6423  0.2547
 7289TIP3    H143358   4.810   5.051  15.318  0.1278 -0.0952  0.7419
 7289TIP3    H243359   4.836   5.054  15.467 -0.3266  0.9534  0.8108
 7290TIP3   OH243360   5.090   3.320   1.327 -0.2231 -0.0623 -0.3663
 7290TIP3    H143361   5.151   3.353   1.393 -1.0584  1.7223 -0.4080
 7290TIP3    H243362   5.018   3.283   1.377 -0.8550  1.2875 -0.2285
 7291TIP3   OH243363   2.968   1.276  13.547 -0.3770 -0.0957  0.2062
 7291TIP3    H143364   2.877   1.247  13.547 -0.0100 -1.4560  1.8565
 7291TIP3    H243365   2.964   1.370  13.530 -2.2969  0.3012  2.3730
 7292TIP3   OH243366   5.972   0.625   4.872  0.2294  0.5342  0.0797
 7292TIP3    H143367   6.001   0.570   4.799  0.2890  2.7099 -1.6617
 7292TIP3    H243368   5.877   0.618   4.871  0.3009 -1.1049  1.2345
 7293TIP3   OH243369   0.832   4.383  14.033 -0.4876 -0.0263  0.2288
 7293TIP3    H143370   0.761   4.447  14.044 -1.1516 -0.5419 -0.9624
 7293TIP3    H243371   0.873   4.378  14.120 -0.2115  2.2429  0.2944
 7294TIP3   OH243372   2.155   1.932  14.621 -0.2771  0.0716 -0.6791
 7294TIP3    H143373   2.149   2.006  14.680 -1.3170  0.9386 -1.8220
 7294TIP3    H243374   2.138   1.968  14.534 -1.1724 -1.5419 -1.2277
 7295TIP3   OH243375   5.488   6.726  10.932 -0.6680  0.0688  0.0495
 7295TIP3    H143376   5.402   6.700  10.899 -0.1669 -0.6108 -0.7462
 7295TIP3    H243377   5.549   6.699  10.864  0.4689 -1.9480  1.7541
 7296TIP3   OH243378   0.162   2.231  12.782 -0.1689 -0.2277  0.8234
 7296TIP3    H143379   0.137   2.169  12.713  0.3223 -0.0318  0.4710
 7296TIP3    H243380   0.185   2.311  12.736  2.0382 -0.6759  1.0463
 7297TIP3   OH243381   2.329   2.176  16.700 -0.2308 -0.0130  0.0172
 7297TIP3    H143382   2.403   2.159  16.642  0.5520 -0.1756  1.0377
 7297TIP3    H243383   2.258   2.202  16.642  0.8448  0.8823 -0.9281
 7298TIP3   OH243384   0.806   0.886   1.053  0.1937 -0.7322  0.1263
 7298TIP3    H143385   0.857   0.964   1.074 -3.5414  1.7249  1.0434
 7298TIP3    H243386   0.823   0.870   0.960  3.6945 -1.1008  0.6987
 7299TIP3   OH243387   4.872   1.983   6.619  0.3556 -0.0261  0.1032
 7299TIP3    H143388   4.938   1.981   6.550  1.6367 -0.1881  1.2786
 7299TIP3    H243389   4.884   2.069   6.660  2.1374 -1.2518  2.3973
 7300TIP3   OH243390   5.269   6.798  12.418  0.1852 -0.8568 -0.1476
 7300TIP3    H143391   5.293   6.855  12.490  0.8419 -0.3621 -0.7398
 7300TIP3    H243392   5.174   6.790  12.424 -0.2305  2.1063 -1.3215
 7301TIP3   OH243393   5.925   0.233   3.754  0.8915  0.3305  0.3572
 7301TIP3    H143394   5.913   0.138   3.749  0.3443  0.4415 -0.7208
 7301TIP3    H243395   5.991   0.245   3.822 -0.7218 -0.6735  2.1729
 7302TIP3   OH243396   0.907   1.560  13.472 -0.1381  0.2777 -0.3559
 7302TIP3    H143397   0.998   1.552  13.502 -0.8448  1.0664  2.2360
 7302TIP3    H243398   0.854   1.527  13.545 -2.0101  2.2711 -0.7134
 7303TIP3   OH243399   0.332   3.658   2.792 -0.3892 -0.7997 -0.5125
 7303TIP3    H143400   0.266   3.719   2.826  1.4370  0.4464  0.9513
 7303TIP3    H243401   0.328   3.583   2.850  2.2346  1.0276  2.3238
 7304TIP3   OH243402   2.528   3.450  14.096 -0.0530 -0.9680 -0.2755
 7304TIP3    H143403   2.467   3.401  14.042  0.6954  0.0532 -2.1237
 7304TIP3    H243404   2.593   3.485  14.035  1.0631 -0.0753  1.3267
 7305TIP3   OH243405   2.147   2.290  12.743 -0.5825 -0.5751  0.1054
 7305TIP3    H143406   2.183   2.378  12.736  0.0613 -0.6369  2.1621
 7305TIP3    H243407   2.096   2.292  12.824 -0.4543 -2.1326  0.2404
 7306TIP3   OH243408   6.216   5.170   1.712 -0.1340 -0.4940  0.1258
 7306TIP3    H143409   6.163   5.248   1.730  1.8729  0.8649  0.4868
 7306TIP3    H243410   6.221   5.166   1.617  0.0402  0.0481  0.1066
 7307TIP3   OH243411   5.637   5.999   0.230 -0.8502 -0.0371 -0.3528
 7307TIP3    H143412   5.714   6.052   0.250 -1.5837  0.0297  2.9882
 7307TIP3    H243413   5.574   6.061   0.194 -1.2054  1.2448  2.1990
 7308TIP3   OH243414   6.730   2.043   4.873  0.2794 -0.5907  0.0048
 7308TIP3    H143415   6.825   2.034   4.871  0.2083 -1.2718 -0.6240
 7308TIP3    H243416   6.713   2.100   4.948  1.1297 -1.0951  0.5973
 7309TIP3   OH243417   3.844   4.751   3.861  0.2126  0.6285 -0.3077
 7309TIP3    H143418   3.798   4.827   3.826 -0.1991  0.1778 -0.7749
 7309TIP3    H243419   3.899   4.786   3.931  2.4299  1.8730 -2.5201
 7310TIP3   OH243420   2.227   3.121  14.878  0.4117  0.1024  0.0558
 7310TIP3    H143421   2.196   3.136  14.789  2.8068 -0.5106 -0.9514
 7310TIP3    H243422   2.173   3.179  14.932 -0.5365  1.1117 -1.8646
 7311TIP3   OH243423   6.381   1.719  12.654  0.2025  0.3582 -0.2076
 7311TIP3    H143424   6.350   1.743  12.567 -1.6473  2.4566  0.9232
 7311TIP3    H243425   6.345   1.786  12.712 -0.1644 -1.9193  2.4482
 7312TIP3   OH243426   2.842   4.324  17.004 -0.2183 -0.4467 -0.0013
 7312TIP3    H143427   2.909   4.276  17.052  0.7818 -0.1895 -1.1031
 7312TIP3    H243428   2.763   4.315  17.058  0.2762 -2.1555  0.5143
 7313TIP3   OH243429   0.276   6.252  11.766 -0.8991  0.7174 -0.4111
 7313TIP3    H143430   0.345   6.315  11.787 -1.3312  1.4229 -1.0385
 7313TIP3    H243431   0.311   6.168  11.792 -0.3943  1.2498  0.6630
 7314TIP3   OH243432   4.189   2.229  12.194 -0.3647 -0.4185 -0.3313
 7314TIP3    H143433   4.268   2.189  12.230 -0.2163 -1.1365 -1.4131
 7314TIP3    H243434   4.141   2.260  12.270 -0.1592 -2.0713  0.5126
 7315TIP3   OH243435   1.547   1.050   1.534  0.8265 -0.4492 -0.0985
 7315TIP3    H143436   1.473   1.012   1.486  0.9424 -3.1010  1.6436
 7315TIP3    H243437   1.589   1.108   1.470 -1.1322 -0.9688 -1.9997
 7316TIP3   OH243438   5.156   4.452   0.872 -0.2179 -0.3760 -0.0463
 7316TIP3    H143439   5.192   4.391   0.935 -0.2949 -1.3828 -0.9502
 7316TIP3    H243440   5.229   4.510   0.849 -0.5227  0.8943  1.9441
 7317TIP3   OH243441   4.922   4.605   3.863  0.4601  0.4129 -0.1509
 7317TIP3    H143442   4.855   4.621   3.797 -0.9208 -0.2242  1.0552
 7317TIP3    H243443   4.999   4.653   3.831 -0.5635  1.1925 -1.5394
 7318TIP3   OH243444   0.442   0.958   5.958 -0.1387  0.0454 -0.2177
 7318TIP3    H143445   0.411   0.868   5.961 -1.7874  0.4627 -2.2622
 7318TIP3    H243446   0.395   1.002   6.029 -2.1483 -0.0054 -1.4104
 7319TIP3   OH243447   3.180   3.305   4.398 -0.4199  0.2919 -0.8128
 7319TIP3    H143448   3.131   3.228   4.371 -0.8047  0.2161  0.0414
 7319TIP3    H243449   3.182   3.361   4.321 -1.6064  0.1622 -0.9614
 7320TIP3   OH243450   5.930   2.236   4.632 -0.4123  0.0512 -0.1522
 7320TIP3    H143451   5.864   2.208   4.569 -1.0819 -1.0744  1.0101
 7320TIP3    H243452   6.009   2.188   4.608 -0.3050  0.5688 -0.8722
 7321TIP3   OH243453   1.633   4.482  10.778 -0.3112 -0.1291  0.2335
 7321TIP3    H143454   1.620   4.515  10.690  0.1221  0.6292  0.4482
 7321TIP3    H243455   1.655   4.559  10.830  2.0270 -0.8925  0.5035
 7322TIP3   OH243456   4.730   5.433  13.689 -0.0036  0.2116 -0.0973
 7322TIP3    H143457   4.798   5.375  13.654  0.1938  0.5765 -0.3188
 7322TIP3    H243458   4.649   5.382  13.681  0.1746 -0.0451 -0.2686
 7323TIP3   OH243459   5.103   4.064  15.847 -0.3696  0.0397 -0.4328
 7323TIP3    H143460   5.100   3.972  15.874  2.0633  0.0084 -0.0567
 7323TIP3    H243461   5.012   4.093  15.852 -1.1722 -2.2590 -0.3097
 7324TIP3   OH243462   5.162   4.253  13.819  0.5375 -0.2502 -0.0470
 7324TIP3    H143463   5.175   4.161  13.841 -3.2185 -1.1741 -0.9638
 7324TIP3    H243464   5.080   4.277  13.861 -0.3116  1.6559 -2.5111
 7325TIP3   OH243465   6.386   3.944   0.919 -0.0776  0.9978  0.3077
 7325TIP3    H143466   6.366   3.988   1.001 -0.2393  1.7320 -0.1180
 7325TIP3    H243467   6.426   4.011   0.864 -0.6978  0.7341 -0.4991
 7326TIP3   OH243468   3.812   6.814  11.444 -0.4297  0.3586 -0.0204
 7326TIP3    H143469   3.904   6.797  11.425 -0.4741  0.5538 -0.4054
 7326TIP3    H243470   3.764   6.774  11.372 -0.6514  0.2446  0.1869
 7327TIP3   OH243471   5.423   5.500  16.183  0.2111 -0.7810 -0.0861
 7327TIP3    H143472   5.475   5.555  16.241 -1.4865  0.9918 -0.1190
 7327TIP3    H243473   5.345   5.479  16.234 -0.3185 -1.0218 -0.9801
 7328TIP3   OH243474   3.068   6.690  11.823  0.5579  0.4216 -0.0083
 7328TIP3    H143475   3.003   6.631  11.786  0.4028  1.1475 -0.9192
 7328TIP3    H243476   3.017   6.751  11.876  0.6471  0.1556  0.3879
 7329TIP3   OH243477   0.418   0.952  11.710 -0.1251  0.0003 -0.0774
 7329TIP3    H143478   0.364   0.913  11.779  0.2897  1.2579  1.0056
 7329TIP3    H243479   0.497   0.983  11.756 -0.0184  1.2436 -1.0414
 7330TIP3   OH243480   4.845   2.366  14.592  0.3118 -0.2557  0.2868
 7330TIP3    H143481   4.928   2.333  14.628  0.2232 -0.4824  0.2860
 7330TIP3    H243482   4.870   2.410  14.511  0.3970 -0.6101  0.1137
 7331TIP3   OH243483   3.284   4.658   4.809  0.1801  0.5475  0.3874
 7331TIP3    H143484   3.330   4.741   4.792  1.3945 -0.1150  0.3411
 7331TIP3    H243485   3.274   4.655   4.904  0.9260  0.3455  0.4650
 7332TIP3   OH243486   0.223   5.324   3.310 -0.1011 -0.0106 -0.0014
 7332TIP3    H143487   0.186   5.257   3.367  0.4453 -0.5406 -0.2580
 7332TIP3    H243488   0.164   5.327   3.235  0.2525 -0.7123 -0.3175
 7333TIP3   OH243489   5.976   5.010   0.452 -0.2070  0.4125 -0.1848
 7333TIP3    H143490   5.936   4.991   0.367 -0.8911  1.6128 -0.1575
 7333TIP3    H243491   6.018   5.096   0.440  1.7317 -0.4572  0.0227
 7334TIP3   OH243492   4.832   0.107  15.611  0.1269  0.0962 -0.3307
 7334TIP3    H143493   4.837   0.186  15.558  0.2055  0.5499  0.3377
 7334TIP3    H243494   4.782   0.045  15.558  0.8421  0.2890 -1.2315
 7335TIP3   OH243495   5.814   0.240   5.580  0.4162 -0.3062  0.0156
 7335TIP3    H143496   5.869   0.185   5.635  0.3517  1.4481  1.9718
 7335TIP3    H243497   5.843   0.329   5.598  1.0155  0.3615 -3.5801
 7336TIP3   OH243498   3.031   0.046   2.707  0.2708  0.8674  0.2121
 7336TIP3    H143499   3.068   0.132   2.729  0.7890  0.0660  2.8788
 7336TIP3    H243500   3.107  -0.011   2.700 -0.0497  0.6471 -1.9219
 7337TIP3   OH243501   1.839   5.566  15.281 -0.0761 -0.0989  0.2407
 7337TIP3    H143502   1.903   5.536  15.346 -0.9068 -1.3962  0.4903
 7337TIP3    H243503   1.854   5.508  15.206 -0.0827  0.4634 -0.1992
 7338TIP3   OH243504   0.044   0.826   0.004  0.0309  0.1988 -0.0102
 7338TIP3    H143505  -0.037   0.793   0.042  0.7617 -0.6896  0.8652
 7338TIP3    H243506   0.072   0.757  -0.057  0.5579  0.0947  0.3391
 7339TIP3   OH243507   3.844   4.483  14.092 -0.0789  0.6812  0.0233
 7339TIP3    H143508   3.907   4.505  14.023 -1.4038  1.7785 -0.9011
 7339TIP3    H243509   3.836   4.562  14.144  0.5117  0.0261  1.1409
 7340TIP3   OH243510   3.496   3.183   3.419 -0.1000  0.3545  0.1171
 7340TIP3    H143511   3.568   3.200   3.358  1.4599  1.5209  2.1700
 7340TIP3    H243512   3.485   3.088   3.417  2.5426 -0.0460  0.8171
 7341TIP3   OH243513   5.596   5.030  17.163  0.4943  0.4960 -0.2791
 7341TIP3    H143514   5.592   5.125  17.169 -1.4736  0.6886 -2.8719
 7341TIP3    H243515   5.537   4.999  17.232  2.4143  1.0034  1.6822
 7342TIP3   OH243516   6.467   4.181  16.754  0.0854  0.0516  0.3124
 7342TIP3    H143517   6.430   4.113  16.699  1.7552  0.4887 -1.4646
 7342TIP3    H243518   6.399   4.248  16.759  0.0059  0.1615 -1.5946
 7343TIP3   OH243519   6.767   3.233  11.632 -0.4368 -0.0230 -0.7965
 7343TIP3    H143520   6.780   3.218  11.725 -0.2522 -1.5054 -1.0283
 7343TIP3    H243521   6.706   3.306  11.627 -1.0807 -0.4423  0.4936
 7344TIP3   OH243522   5.697   3.602   0.642  0.3651  0.0303 -0.1167
 7344TIP3    H143523   5.745   3.520   0.642 -1.2332 -0.9673 -1.2669
 7344TIP3    H243524   5.675   3.617   0.550  0.9405  1.9601  0.0186
 7345TIP3   OH243525   6.262   6.402  15.513 -0.3012  0.1643 -0.1237
 7345TIP3    H143526   6.314   6.322  15.515  0.2841  0.4920 -1.3706
 7345TIP3    H243527   6.308   6.463  15.572  1.3900  0.8159 -2.0255
 7346TIP3   OH243528   3.068   1.378  11.422 -0.2145  0.5126 -0.1172
 7346TIP3    H143529   3.159   1.404  11.440  0.0798 -0.6384  0.1098
 7346TIP3    H243530   3.016   1.439  11.473  0.4724  0.4696  0.6582
 7347TIP3   OH243531   2.391   5.645  15.130  0.4208  0.2929 -0.1895
 7347TIP3    H143532   2.436   5.728  15.149 -0.4568  0.4711  1.2693
 7347TIP3    H243533   2.364   5.612  15.216 -1.4090 -0.2728 -0.9289
 7348TIP3   OH243534   6.304   4.377  13.243 -0.9974  0.0938 -0.2976
 7348TIP3    H143535   6.333   4.461  13.207  1.1082 -0.5814 -0.3583
 7348TIP3    H243536   6.300   4.319  13.167  3.5368 -1.3608  0.2435
 7349TIP3   OH243537   3.742   3.304   1.682  0.4247 -0.6495  0.0462
 7349TIP3    H143538   3.659   3.302   1.729  1.2383  0.2974  1.6366
 7349TIP3    H243539   3.726   3.255   1.602 -1.2543 -1.7003  0.9642
 7350TIP3   OH243540   4.694   2.380  13.847  0.1103  0.4983 -0.0292
 7350TIP3    H143541   4.629   2.312  13.864 -0.4850  0.7533 -1.1957
 7350TIP3    H243542   4.738   2.351  13.768  2.4290 -0.3800  1.4800
 7351TIP3   OH243543   2.530   6.520   3.115 -0.5046 -0.2285 -0.5975
 7351TIP3    H143544   2.587   6.596   3.121  0.0334 -0.6145 -0.7526
 7351TIP3    H243545   2.568   6.467   3.045 -1.4411 -0.1669 -1.1719
 7352TIP3   OH243546   6.211   6.755  13.689 -0.1474 -0.3229  0.0962
 7352TIP3    H143547   6.179   6.750  13.779 -0.8611 -0.8573 -0.1814
 7352TIP3    H243548   6.294   6.803  13.696 -0.2139 -0.3246  1.0296
 7353TIP3   OH243549   4.620   1.998   0.935 -0.2582  0.0049 -0.0603
 7353TIP3    H143550   4.557   2.057   0.976  0.2120  0.3949  0.1178
 7353TIP3    H243551   4.673   1.967   1.008 -0.1470 -0.1982 -0.2289
 7354TIP3   OH243552   4.298   4.852   3.035  0.3441  0.0869 -0.2337
 7354TIP3    H143553   4.234   4.914   3.070  0.2750  0.6974 -1.3901
 7354TIP3    H243554   4.259   4.819   2.954  0.1790 -1.8395  0.5707
 7355TIP3   OH243555   1.253   0.355  13.315 -0.3180  0.5892 -0.3834
 7355TIP3    H143556   1.164   0.382  13.294  0.0223  2.0105 -0.1401
 7355TIP3    H243557   1.305   0.386  13.241  0.0362  0.1526 -0.3218
 7356TIP3   OH243558   4.756   6.358   3.644  0.2112 -0.3905 -0.2592
 7356TIP3    H143559   4.769   6.449   3.616 -1.6289 -0.2161 -0.6749
 7356TIP3    H243560   4.706   6.364   3.725  2.0750 -1.0128  0.9915
 7357TIP3   OH243561   2.548   3.945   4.946  0.0240 -0.8750 -0.0839
 7357TIP3    H143562   2.499   4.015   4.902 -0.2331 -0.3751  0.9853
 7357TIP3    H243563   2.600   3.905   4.876 -0.9046 -0.5535 -0.9860
 7358TIP3   OH243564   0.545   4.442   2.044 -0.3404  0.5618 -0.4717
 7358TIP3    H143565   0.628   4.396   2.033  0.3551  1.8998 -0.9711
 7358TIP3    H243566   0.561   4.530   2.011 -2.6619  0.1834 -3.0199
 7359TIP3   OH243567   4.013   4.356  11.921  0.6694  0.0052  0.4803
 7359TIP3    H143568   4.070   4.290  11.881  1.4554  0.8974  0.0891
 7359TIP3    H243569   3.929   4.311  11.932 -0.1012  0.0544 -3.5403
 7360TIP3   OH243570   1.616   2.209  13.293 -0.3592  0.3224 -0.4539
 7360TIP3    H143571   1.703   2.203  13.333  1.0223 -1.4005 -3.3693
 7360TIP3    H243572   1.630   2.263  13.215 -1.1383 -2.2399 -2.5076
 7361TIP3   OH243573   3.750   4.792  15.434  0.0250  0.0337 -0.1826
 7361TIP3    H143574   3.748   4.722  15.369  1.9106 -0.4495  0.2195
 7361TIP3    H243575   3.721   4.750  15.515  0.6307 -0.1636 -0.0615
 7362TIP3   OH243576   3.817   4.935  15.014  0.9243 -0.2290 -0.1762
 7362TIP3    H143577   3.878   4.872  15.051 -0.4070 -2.2617 -1.2477
 7362TIP3    H243578   3.807   4.908  14.922  2.1938  3.0763 -1.4625
 7363TIP3   OH243579   5.961   4.509   2.322  0.2278 -0.2301 -0.0863
 7363TIP3    H143580   5.976   4.476   2.234  1.0457  0.3684 -0.1869
 7363TIP3    H243581   6.036   4.566   2.339 -0.5314  0.6154  0.5329
 7364TIP3   OH243582   4.898   2.615   3.047  0.4077  0.4253  0.0476
 7364TIP3    H143583   4.913   2.616   3.142  0.9265 -0.4274 -0.0125
 7364TIP3    H243584   4.969   2.560   3.012 -0.1304  0.2254 -0.7645
 7365TIP3   OH243585   5.834   2.626  16.981 -0.1031 -0.3658  0.5417
 7365TIP3    H143586   5.859   2.597  17.069 -0.8529  0.4642  1.0410
 7365TIP3    H243587   5.877   2.710  16.970  0.2790 -0.6285 -0.0432
 7366TIP3   OH243588   2.398   0.049   0.461 -0.3499 -0.1368  0.3329
 7366TIP3    H143589   2.314   0.059   0.417  0.1742  1.7374 -0.3307
 7366TIP3    H243590   2.399   0.118   0.527  0.4278 -0.5487  0.7760
 7367TIP3   OH243591   1.378   5.785   0.763 -0.0464 -0.2031  0.2284
 7367TIP3    H143592   1.429   5.789   0.844 -0.5522 -2.3227  0.7076
 7367TIP3    H243593   1.408   5.706   0.719 -1.8563 -0.7015 -0.2084
 7368TIP3   OH243594   1.224   0.996  14.311  0.4652  0.2807  0.2382
 7368TIP3    H143595   1.128   0.996  14.317  0.4507 -2.8376  1.5623
 7368TIP3    H243596   1.250   1.081  14.346 -1.7567  0.5486  1.4072
 7369TIP3   OH243597   1.250   3.602  11.491 -0.4712 -0.3761 -0.4812
 7369TIP3    H143598   1.249   3.521  11.440  1.9843 -1.6109  1.2577
 7369TIP3    H243599   1.290   3.667  11.432  1.7442 -1.6177 -0.4620
 7370TIP3   OH243600   1.886   4.395   2.352 -0.3278 -0.0648  0.1314
 7370TIP3    H143601   1.826   4.331   2.314 -0.2559  0.7667 -1.4699
 7370TIP3    H243602   1.926   4.438   2.277  0.4245  1.1196  1.1649
 7371TIP3   OH243603   2.575   5.428   1.796  0.1278 -0.4479  0.3048
 7371TIP3    H143604   2.556   5.338   1.768  0.5095 -0.1632 -0.9502
 7371TIP3    H243605   2.489   5.470   1.801  0.0563 -0.4130 -0.8670
 7372TIP3   OH243606   6.483   3.477   0.815 -0.0111 -0.8844 -0.2566
 7372TIP3    H143607   6.575   3.453   0.804  0.6205  1.2588 -0.0722
 7372TIP3    H243608   6.469   3.478   0.910 -0.1682 -0.9531 -0.2774
 7373TIP3   OH243609   0.818   6.803  16.348 -0.2198 -0.2543  0.5661
 7373TIP3    H143610   0.848   6.772  16.434 -1.0646  1.1006  1.3855
 7373TIP3    H243611   0.836   6.897  16.349 -1.0380 -0.0738 -0.3882
 7374TIP3   OH243612   1.011   3.144  12.010  0.1259 -0.0989  0.4143
 7374TIP3    H143613   1.015   3.229  12.054  2.6494 -0.1805  0.4918
 7374TIP3    H243614   1.083   3.094  12.048 -0.1474 -1.6109 -0.9592
 7375TIP3   OH243615   5.141   6.469  16.114 -0.7448  0.0747  0.4673
 7375TIP3    H143616   5.203   6.500  16.048 -0.3448  1.2827  1.3701
 7375TIP3    H243617   5.188   6.478  16.197 -1.3614 -1.0784  0.9665
 7376TIP3   OH243618   6.541   0.717  11.412 -0.4263  0.5070 -0.2516
 7376TIP3    H143619   6.617   0.661  11.393 -0.8405 -0.1006 -0.1193
 7376TIP3    H243620   6.485   0.663  11.467 -1.9984  0.1468 -2.1107
 7377TIP3   OH243621   4.427   2.082  14.258  0.4596  0.4478  0.2067
 7377TIP3    H143622   4.483   2.004  14.254 -0.8622 -0.5507  0.5669
 7377TIP3    H243623   4.388   2.079  14.345 -0.9539  0.5233 -0.3985
 7378TIP3   OH243624   2.238   1.424  17.158  0.1345 -0.3472 -0.1764
 7378TIP3    H143625   2.180   1.356  17.192 -0.3381  0.5229  0.8436
 7378TIP3    H243626   2.183   1.503  17.155  1.4604  0.7446  1.7527
 7379TIP3   OH243627   5.762   4.660  15.239 -0.0313 -0.0846  0.3639
 7379TIP3    H143628   5.822   4.586  15.248 -0.3464 -0.4170 -0.2159
 7379TIP3    H243629   5.760   4.678  15.145  0.4069  0.9723  0.5433
 7380TIP3   OH243630   3.937   1.767  14.031  0.4048 -0.0440 -0.5932
 7380TIP3    H143631   3.863   1.810  13.988 -3.1235 -2.8920  2.0105
 7380TIP3    H243632   3.981   1.836  14.079 -1.7432  1.5420 -0.7654
 7381TIP3   OH243633   0.260   6.836  11.371  0.1928  0.1825  0.2384
 7381TIP3    H143634   0.206   6.758  11.360 -1.1658  0.8112  1.8839
 7381TIP3    H243635   0.349   6.803  11.384  0.0510 -0.9391 -1.4424
 7382TIP3   OH243636   4.039   6.155   2.135 -0.2002  0.4369 -0.2971
 7382TIP3    H143637   4.097   6.201   2.195 -1.3948  0.8253  0.6028
 7382TIP3    H243638   4.097   6.098   2.084  1.0521  1.4083 -0.0043
 7383TIP3   OH243639   3.389   2.150   0.527 -0.4832 -0.1355  0.4397
 7383TIP3    H143640   3.320   2.188   0.580 -1.4983  1.0445 -1.6174
 7383TIP3    H243641   3.346   2.126   0.445  1.4098  0.0199 -0.6598
 7384TIP3   OH243642   5.197   1.135   2.560  0.1588 -0.2260  0.6709
 7384TIP3    H143643   5.180   1.103   2.648  1.5198  0.6893  1.3147
 7384TIP3    H243644   5.207   1.230   2.571 -2.9558  0.4288 -1.0207
 7385TIP3   OH243645   0.411   6.540  14.612 -0.9057 -0.3191 -0.2846
 7385TIP3    H143646   0.446   6.544  14.701  2.8061  1.6774 -1.6141
 7385TIP3    H243647   0.453   6.464  14.573 -0.7340  0.1098 -0.9545
 7386TIP3   OH243648   3.850   3.251  14.527  0.2803  0.0659  0.9612
 7386TIP3    H143649   3.894   3.337  14.532  2.2102 -0.8362  0.6308
 7386TIP3    H243650   3.784   3.254  14.596 -0.4138  2.1795  0.2984
 7387TIP3   OH243651   3.086   0.235   4.806 -0.2303 -0.6038 -0.1836
 7387TIP3    H143652   3.053   0.223   4.894 -1.4224 -0.4387 -0.5907
 7387TIP3    H243653   3.021   0.192   4.750  0.3609 -0.4603 -0.9979
 7388TIP3   OH243654   3.515   2.203  12.551  0.0455 -0.4713 -0.0712
 7388TIP3    H143655   3.586   2.139  12.548 -0.0470 -0.5494 -0.9168
 7388TIP3    H243656   3.470   2.194  12.467 -0.2696  0.3655 -0.0104
 7389TIP3   OH243657   1.545   1.647   2.271  0.0074 -0.4476  0.0865
 7389TIP3    H143658   1.603   1.721   2.254 -1.2983  0.2055 -1.8897
 7389TIP3    H243659   1.575   1.578   2.211  0.7880 -1.3396  1.4333
 7390TIP3   OH243660   6.302   4.634   0.379 -0.2346  0.0581  0.4016
 7390TIP3    H143661   6.339   4.685   0.451 -0.7574  0.6321  0.2675
 7390TIP3    H243662   6.371   4.635   0.312 -0.4116  0.9699  0.2240
 7391TIP3   OH243663   4.403   6.511   5.908  0.0793 -0.1042 -0.8216
 7391TIP3    H143664   4.405   6.451   5.982 -0.5727  1.0973  0.2191
 7391TIP3    H243665   4.326   6.566   5.923  0.4389  0.7619 -1.9212
 7392TIP3   OH243666   4.874   5.497  16.789 -0.2307 -0.0204 -0.3092
 7392TIP3    H143667   4.847   5.432  16.854 -1.1606  0.6259 -0.0319
 7392TIP3    H243668   4.970   5.493  16.790 -0.2709 -1.5217 -0.4497
 7393TIP3   OH243669   2.834   3.794  15.279  0.2134 -0.0954  0.0623
 7393TIP3    H143670   2.897   3.802  15.351  1.2134 -0.2541 -0.7622
 7393TIP3    H243671   2.888   3.778  15.202 -0.6343  2.3146 -1.1337
 7394TIP3   OH243672   0.347   0.689  14.025  0.0119 -0.1130  0.3603
 7394TIP3    H143673   0.273   0.737  13.987  0.5770 -1.4257 -2.7533
 7394TIP3    H243674   0.423   0.745  14.006  0.3877 -1.0959 -1.1930
 7395TIP3   OH243675   6.408   4.476  14.044 -0.4912 -0.0768 -0.0522
 7395TIP3    H143676   6.322   4.467  14.085 -0.1696 -2.4669  0.2372
 7395TIP3    H243677   6.469   4.436  14.106  0.0637 -3.5743 -2.5358
 7396TIP3   OH243678   0.317   6.788   3.067 -0.3931 -0.1499 -0.3908
 7396TIP3    H143679   0.382   6.818   3.131 -1.2021 -0.6238  0.6737
 7396TIP3    H243680   0.334   6.843   2.990  1.2337 -0.2362 -0.1395
 7397TIP3   OH243681   5.560   4.947  13.325  0.0607 -0.1240  0.0375
 7397TIP3    H143682   5.567   5.026  13.378 -0.0475  1.7455 -2.5390
 7397TIP3    H243683   5.642   4.944  13.276 -0.6218 -0.6742 -1.1032
 7398TIP3   OH243684   4.233   3.644  12.493 -0.3318  0.1293 -0.0720
 7398TIP3    H143685   4.150   3.648  12.541 -0.7514 -1.6153 -0.5566
 7398TIP3    H243686   4.207   3.657  12.401 -0.3789 -2.1220 -0.4397
 7399TIP3   OH243687   2.596   2.919  13.313 -0.2468 -0.2342 -0.6999
 7399TIP3    H143688   2.628   2.912  13.223 -0.3520  0.1115 -0.7633
 7399TIP3    H243689   2.511   2.961  13.306 -0.9166 -1.5117 -0.5678
 7400TIP3   OH243690   4.899   5.777   2.635  0.0624  0.1257  0.6202
 7400TIP3    H143691   4.844   5.813   2.566  0.8922 -0.6284 -0.4747
 7400TIP3    H243692   4.844   5.713   2.679 -0.1908 -0.0644  0.0356
 7401TIP3   OH243693   1.838   0.591  11.501  0.3536 -0.2460 -0.3338
 7401TIP3    H143694   1.811   0.672  11.544  0.2446  0.0148 -0.8826
 7401TIP3    H243695   1.814   0.522  11.563 -0.4871  0.0674 -0.2965
 7402TIP3   OH243696   6.137   6.480   1.026  0.2165  0.3556 -0.7361
 7402TIP3    H143697   6.066   6.541   1.007 -1.1799 -0.7525  0.6871
 7402TIP3    H243698   6.204   6.534   1.069 -0.5485  1.0832 -0.4380
 7403TIP3   OH243699   0.026   2.522   3.746  0.4360 -0.2905 -0.2755
 7403TIP3    H143700   0.048   2.432   3.772  0.1114  0.2156  1.9823
 7403TIP3    H243701   0.007   2.566   3.829  1.1911  2.0317 -1.2710
 7404TIP3   OH243702   4.456   6.687  14.722 -0.2964 -0.5796  0.6183
 7404TIP3    H143703   4.517   6.760  14.738 -1.3131  0.2753  0.6697
 7404TIP3    H243704   4.370   6.724  14.738 -1.0142 -1.1770 -1.5299
 7405TIP3   OH243705   3.406   6.750  12.028  0.6027  0.0731 -0.8116
 7405TIP3    H143706   3.413   6.711  11.941 -0.3911  2.3443 -2.0160
 7405TIP3    H243707   3.315   6.779  12.033  1.3121  2.4357 -0.2023
 7406TIP3   OH243708   1.383   1.651   1.693  0.2814  0.5109 -0.4426
 7406TIP3    H143709   1.391   1.702   1.774  3.1351  1.9957 -1.5120
 7406TIP3    H243710   1.293   1.665   1.665 -1.0213 -0.6552  2.7675
 7407TIP3   OH243711   3.750   1.389   3.398 -0.0012 -0.0872  0.2376
 7407TIP3    H143712   3.703   1.455   3.347 -0.2671 -1.6811 -1.6723
 7407TIP3    H243713   3.692   1.313   3.399  0.4138 -0.4430  2.1802
 7408TIP3   OH243714   2.227   5.656   4.358 -0.5486  0.1615 -0.6642
 7408TIP3    H143715   2.158   5.591   4.368 -1.6470  1.4386  0.3934
 7408TIP3    H243716   2.194   5.717   4.292 -0.8881  1.2924  0.5077
 7409TIP3   OH243717   1.633   3.930   6.018  0.2238  0.1393 -0.3854
 7409TIP3    H143718   1.622   3.954   6.110  2.1759 -1.4123  0.3304
 7409TIP3    H243719   1.553   3.882   5.996 -2.2228  4.0094 -0.8695
 7410TIP3   OH243720   6.622   5.714  15.604 -0.0985  0.0271 -0.3248
 7410TIP3    H143721   6.569   5.753  15.673  0.1512  1.0896 -0.7078
 7410TIP3    H243722   6.701   5.683  15.649  0.0436  0.6724 -0.1102
 7411TIP3   OH243723   0.912   4.118  15.966 -0.6901  0.3309 -0.6183
 7411TIP3    H143724   0.914   4.194  15.908 -0.2126  0.7724 -0.0302
 7411TIP3    H243725   0.851   4.143  16.036 -0.7058  0.0873 -0.5458
 7412TIP3   OH243726   4.455   3.252  13.323 -0.0942 -0.0968 -0.3849
 7412TIP3    H143727   4.451   3.309  13.400  1.4362 -1.5062  0.8189
 7412TIP3    H243728   4.473   3.312  13.250  0.1105  1.1001  0.6096
 7413TIP3   OH243729   0.342   4.537  16.553  0.0798 -0.0118  0.5994
 7413TIP3    H143730   0.384   4.595  16.617 -0.8293 -0.6543  1.8003
 7413TIP3    H243731   0.281   4.594  16.505 -0.2358  0.1871  1.2368
 7414TIP3   OH243732   3.479   5.000  15.247  0.1488 -0.2263  0.4074
 7414TIP3    H143733   3.426   4.928  15.213  1.5960 -0.7086 -0.9457
 7414TIP3    H243734   3.541   4.959  15.306 -1.3690  0.4312  2.6067
 7415TIP3   OH243735   4.449   2.430  12.070  0.7824 -0.5618 -0.0147
 7415TIP3    H143736   4.442   2.359  12.133  0.0092 -1.7619 -1.4031
 7415TIP3    H243737   4.532   2.416  12.026  2.2821  1.3805  1.9148
 7416TIP3   OH243738   1.959   6.005  11.603  0.1152  0.0518  0.6528
 7416TIP3    H143739   1.898   6.072  11.635  2.1953  2.5239 -0.1529
 7416TIP3    H243740   1.964   6.021  11.509 -0.6810 -2.5321  0.0933
 7417TIP3   OH243741   3.146   1.530  16.985 -0.1661 -0.0896  0.2078
 7417TIP3    H143742   3.129   1.446  16.940  0.2369  0.4935 -1.0909
 7417TIP3    H243743   3.156   1.593  16.913 -1.3945  1.2641  1.1710
 7418TIP3   OH243744   4.085   1.261  15.650  0.4388  0.3393 -0.0100
 7418TIP3    H143745   4.077   1.308  15.566 -1.9016  2.8678  1.4704
 7418TIP3    H243746   4.179   1.252  15.663  0.9304  2.0959 -1.7982
 7419TIP3   OH243747   3.702   1.426   1.398 -0.0703  0.1678 -0.4650
 7419TIP3    H143748   3.788   1.400   1.431  0.4952  0.8372 -1.3616
 7419TIP3    H243749   3.691   1.374   1.318 -0.3471  0.3478 -0.5425
 7420TIP3   OH243750   6.599   1.712   0.374  0.2709 -0.0788  0.1562
 7420TIP3    H143751   6.582   1.631   0.422 -0.3423 -0.6245 -0.9285
 7420TIP3    H243752   6.517   1.729   0.327  1.1934 -0.2440 -1.6120
 7421TIP3   OH243753   0.209   3.464  13.750 -0.0662 -0.1062 -0.0252
 7421TIP3    H143754   0.133   3.437  13.699  0.1922 -0.8725 -0.0289
 7421TIP3    H243755   0.265   3.386  13.751  0.4122  0.2400  0.5289
 7422TIP3   OH243756   1.519   6.754   3.038 -0.1617  0.1343 -0.2972
 7422TIP3    H143757   1.569   6.712   3.109 -0.4179  0.8661  0.3310
 7422TIP3    H243758   1.506   6.684   2.974 -0.4829 -0.7408  0.6745
 7423TIP3   OH243759   6.745   2.589   0.069  0.1147  0.2068 -0.5440
 7423TIP3    H143760   6.697   2.510   0.095 -1.0556  0.8452 -0.6791
 7423TIP3    H243761   6.687   2.633   0.007  1.4975  0.3137 -1.8277
 7424TIP3   OH243762   0.452   3.025  14.612  0.3143 -0.0050  0.2433
 7424TIP3    H143763   0.513   2.954  14.591  0.6435 -0.3052  1.9810
 7424TIP3    H243764   0.414   3.050  14.528  0.3432 -2.1017 -0.4665
 7425TIP3   OH243765   2.069   3.470   4.469  0.3998  0.6882 -0.1612
 7425TIP3    H143766   2.123   3.484   4.391  3.3290 -2.0924  1.1724
 7425TIP3    H243767   2.095   3.539   4.529  1.0523  0.5241 -0.2470
 7426TIP3   OH243768   5.787   1.979   2.748  0.3730  0.3518 -0.0224
 7426TIP3    H143769   5.728   1.946   2.681  1.8843  0.6946 -1.5822
 7426TIP3    H243770   5.852   2.030   2.700  1.0681  1.2594  1.7917
 7427TIP3   OH243771   5.265   1.213   4.681 -0.3246  0.4569 -0.4162
 7427TIP3    H143772   5.212   1.288   4.709 -0.5448  0.4592 -0.8271
 7427TIP3    H243773   5.318   1.247   4.609 -2.3677 -0.4126 -2.4592
 7428TIP3   OH243774   1.553   0.980  16.974  0.4312 -0.0036  0.5452
 7428TIP3    H143775   1.587   0.918  16.909  0.9035  0.0784  0.7053
 7428TIP3    H243776   1.632   1.016  17.016  0.1593  0.5885  0.5636
 7429TIP3   OH243777   1.894   6.339   1.621 -0.1581 -0.5478 -0.2155
 7429TIP3    H143778   1.831   6.396   1.667 -0.7135 -0.7467 -0.7269
 7429TIP3    H243779   1.855   6.323   1.536  0.9983  0.0459 -0.8889
 7430TIP3   OH243780   0.952   0.864  10.451 -0.0204 -0.9537  0.6696
 7430TIP3    H143781   0.861   0.846  10.426 -0.0833  0.9940 -0.7400
 7430TIP3    H243782   1.004   0.832  10.378  0.0809  1.3868 -0.3642
 7431TIP3   OH243783   5.096   1.898   3.756 -0.2596  0.5774 -0.5888
 7431TIP3    H143784   5.016   1.937   3.720 -1.2814 -0.4483  0.5103
 7431TIP3    H243785   5.090   1.805   3.735 -0.1986  0.1986  0.9716
 7432TIP3   OH243786   0.206   6.150  15.661  0.5164  0.3948 -0.2932
 7432TIP3    H143787   0.265   6.171  15.733 -1.5114  0.5206  1.4566
 7432TIP3    H243788   0.164   6.234  15.640 -0.7774 -0.0968  0.2208
 7433TIP3   OH243789   2.045   6.694  11.100 -0.3560 -0.0884  0.8725
 7433TIP3    H143790   2.008   6.703  11.188 -0.7410 -0.3334  0.7339
 7433TIP3    H243791   2.013   6.770  11.053  0.2950  0.3383  1.0958
 7434TIP3   OH243792   3.688   2.638   2.481 -0.0166 -0.1662 -0.3726
 7434TIP3    H143793   3.631   2.715   2.471  0.6841  0.4564  0.2584
 7434TIP3    H243794   3.638   2.566   2.442 -0.8831  0.5182 -0.5715
 7435TIP3   OH243795   0.570   6.666   2.595  0.2392 -0.3849 -0.3160
 7435TIP3    H143796   0.622   6.697   2.669  0.3784 -2.4482  0.5228
 7435TIP3    H243797   0.601   6.718   2.521  1.8037  0.1111  0.6308
 7436TIP3   OH243798   3.235   6.396   2.299 -0.1406 -0.3024  0.2978
 7436TIP3    H143799   3.329   6.401   2.316  0.1772  0.6245 -1.5228
 7436TIP3    H243800   3.225   6.320   2.242 -0.5552 -0.5920  0.7493
 7437TIP3   OH243801   5.672   3.796   0.043  0.2834 -0.3558 -0.2999
 7437TIP3    H143802   5.762   3.781   0.072  0.4207 -1.3499 -1.1807
 7437TIP3    H243803   5.641   3.710   0.013 -0.2471  0.3628 -1.9475
 7438TIP3   OH243804   3.598   6.006  14.716  0.1383 -0.2020  0.1173
 7438TIP3    H143805   3.615   6.080  14.659  0.8820 -0.6768 -0.2930
 7438TIP3    H243806   3.684   5.968  14.732 -0.1221 -0.4180  1.0937
 7439TIP3   OH243807   1.406   1.981   4.897 -0.8593  0.4849  0.2979
 7439TIP3    H143808   1.480   2.030   4.935 -0.0181  0.1492 -0.8483
 7439TIP3    H243809   1.427   1.974   4.804 -2.6828  0.9406 -0.1876
 7440TIP3   OH243810   4.716   4.654   5.659 -0.3852  0.3888  0.2910
 7440TIP3    H143811   4.689   4.746   5.650 -0.7604  0.2511 -0.0193
 7440TIP3    H243812   4.642   4.612   5.702 -0.0618  0.3054  0.7664
 7441TIP3   OH243813   6.818   4.194  16.130  0.4894  0.1221 -0.2641
 7441TIP3    H143814   6.872   4.117  16.116 -1.1612 -0.8412 -1.7996
 7441TIP3    H243815   6.804   4.197  16.225  1.3876 -0.8789 -0.0826
 7442TIP3   OH243816   4.131   3.839   1.234  0.1839 -0.5207  0.1837
 7442TIP3    H143817   4.223   3.833   1.259  0.1729 -0.6874  0.1889
 7442TIP3    H243818   4.131   3.831   1.138  0.2191  0.0299  0.1353
 7443TIP3   OH243819   4.399   0.940   3.559  0.0693  0.3796 -0.0346
 7443TIP3    H143820   4.325   0.887   3.531 -0.3231  0.7135  0.3608
 7443TIP3    H243821   4.360   1.018   3.598  0.6316  1.4035 -1.4216
 7444TIP3   OH243822   2.028   2.031   4.286  0.1915  0.3515 -0.6241
 7444TIP3    H143823   2.013   1.980   4.366 -0.5800  1.5879  0.0534
 7444TIP3    H243824   2.113   2.073   4.299 -0.7988  2.1424  0.4872
 7445TIP3   OH243825   3.747   2.384  12.585  0.0709  0.4811  0.4962
 7445TIP3    H143826   3.657   2.354  12.577 -0.1771  1.3150  0.0016
 7445TIP3    H243827   3.789   2.356  12.503 -0.1556  1.4184  0.0427
 7446TIP3   OH243828   4.830   6.602  14.398 -0.2530 -0.2410 -0.9596
 7446TIP3    H143829   4.888   6.642  14.463 -0.0830 -1.7154 -0.1726
 7446TIP3    H243830   4.746   6.647  14.410 -0.5763 -1.3202  1.1483
 7447TIP3   OH243831   6.013   3.177   0.080  0.4310  1.0839  0.5404
 7447TIP3    H143832   6.037   3.184  -0.012 -0.7970 -1.4598 -0.0479
 7447TIP3    H243833   6.078   3.118   0.117 -0.5741  0.0155  0.6517
 7448TIP3   OH243834   2.360   1.047   0.232 -0.2597 -0.0861  0.4475
 7448TIP3    H143835   2.354   0.952   0.220  0.7247 -0.1305  0.1542
 7448TIP3    H243836   2.413   1.076   0.158 -0.9678  0.7672  0.2650
 7449TIP3   OH243837   4.794   3.216  13.351  0.4435 -0.2584  0.6105
 7449TIP3    H143838   4.862   3.208  13.419  1.0452 -0.5253 -0.0105
 7449TIP3    H243839   4.724   3.157  13.380  1.5270 -1.9041  0.0291
 7450TIP3   OH243840   6.071   4.716  16.747 -0.2927  0.1127 -0.0817
 7450TIP3    H143841   6.118   4.790  16.711 -0.4192 -0.5829 -1.7536
 7450TIP3    H243842   6.114   4.639  16.710 -0.7674 -0.6312  0.8526
 7451TIP3   OH243843   6.739   0.349   3.869  0.2002  0.4899 -0.1686
 7451TIP3    H143844   6.794   0.355   3.790 -0.7872  1.5686 -0.8161
 7451TIP3    H243845   6.688   0.429   3.868  0.3712  0.6733  1.7697
 7452TIP3   OH243846   1.278   5.235   2.677  0.5173 -0.3786 -0.0099
 7452TIP3    H143847   1.255   5.324   2.703  1.0142 -0.5217  0.9832
 7452TIP3    H243848   1.220   5.215   2.604 -0.4603  0.3072  0.5599
 7453TIP3   OH243849   4.799   5.509  13.947  0.5083  0.0026 -0.3726
 7453TIP3    H143850   4.878   5.555  13.919  0.8470 -0.4628 -0.1817
 7453TIP3    H243851   4.756   5.484  13.865  0.6723  0.0549 -0.4751
 7454TIP3   OH243852   5.546   4.691   4.993  0.4721 -0.0838 -0.2301
 7454TIP3    H143853   5.573   4.778   5.023  3.1590 -0.7136 -0.5200
 7454TIP3    H243854   5.595   4.631   5.049  0.1424 -1.3750 -1.2827
 7455TIP3   OH243855   3.049   5.692  14.698 -0.1584  0.3096  0.7150
 7455TIP3    H143856   3.001   5.712  14.779  0.4593 -0.8754  1.4040
 7455TIP3    H243857   3.022   5.603  14.676  2.3596 -0.7708  1.6468
 7456TIP3   OH243858   4.820   1.824   2.778  0.3592  0.0231  0.0190
 7456TIP3    H143859   4.780   1.903   2.813 -1.6249 -1.7382  1.9943
 7456TIP3    H243860   4.914   1.838   2.790  0.0638  2.0540  0.3006
 7457TIP3   OH243861   1.899   0.210   2.492 -0.0619  0.3393 -0.4924
 7457TIP3    H143862   1.822   0.265   2.507 -0.3975 -0.2996  0.2424
 7457TIP3    H243863   1.959   0.235   2.562 -0.6221 -0.8997  0.4843
 7458TIP3   OH243864   2.845   6.364   0.582 -0.0030 -0.0438  0.3962
 7458TIP3    H143865   2.890   6.417   0.649  0.9126 -0.5131  0.1741
 7458TIP3    H243866   2.833   6.279   0.622  2.3456 -0.9622 -0.6553
 7459TIP3   OH243867   1.500   3.077  15.406  0.2553 -0.5403 -0.0687
 7459TIP3    H143868   1.585   3.101  15.444  0.0121 -1.2282  0.9598
 7459TIP3    H243869   1.509   3.095  15.313  1.7505 -1.1774 -0.0734
 7460TIP3   OH243870   4.756   2.656   4.112 -0.5196 -0.5455  0.1274
 7460TIP3    H143871   4.783   2.573   4.073 -0.3166 -1.0394  1.2867
 7460TIP3    H243872   4.663   2.644   4.131 -0.8923  0.0851 -1.1370
 7461TIP3   OH243873   0.456   5.697  15.856 -0.1934  0.2140 -0.9279
 7461TIP3    H143874   0.545   5.707  15.824 -0.5817  0.8138 -1.8788
 7461TIP3    H243875   0.402   5.697  15.777 -1.0286 -0.2410 -0.3723
 7462TIP3   OH243876   5.781   5.941  15.754 -0.7571 -0.2578  0.1676
 7462TIP3    H143877   5.815   5.973  15.838 -0.3983  0.6720 -0.3272
 7462TIP3    H243878   5.850   5.961  15.691 -1.3249 -0.3167 -0.4781
 7463TIP3   OH243879   6.381   1.574  16.108 -0.3233  0.6504 -0.3807
 7463TIP3    H143880   6.387   1.557  16.014  1.2328 -4.2356  0.3293
 7463TIP3    H243881   6.472   1.581  16.137 -0.6285 -0.8549  1.0797
 7464TIP3   OH243882   4.342   5.090  13.629 -0.2268  0.7241  0.1528
 7464TIP3    H143883   4.324   5.156  13.696 -0.5008  2.1441 -1.2811
 7464TIP3    H243884   4.292   5.118  13.553 -0.3680 -1.1633 -0.5096
 7465TIP3   OH243885   2.967   2.123  17.101 -0.4984  0.1896 -0.0843
 7465TIP3    H143886   2.901   2.054  17.093 -0.3066  0.0754 -0.7941
 7465TIP3    H243887   3.031   2.102  17.033  1.1761 -0.6611  1.6953
 7466TIP3   OH243888   4.919   5.263  11.832  0.5327 -0.4690  0.5369
 7466TIP3    H143889   4.855   5.311  11.780  1.1286 -0.9365 -0.6715
 7466TIP3    H243890   4.935   5.319  11.908  0.5819  0.8462 -0.4098
 7467TIP3   OH243891   5.352   4.933  13.125  0.4120 -0.2843 -0.4284
 7467TIP3    H143892   5.439   4.922  13.086  0.1865  1.4937 -1.5847
 7467TIP3    H243893   5.292   4.930  13.050 -0.4057 -0.2624  0.2081
 7468TIP3   OH243894   6.600   4.982  12.205  0.0499  0.1244 -0.0739
 7468TIP3    H143895   6.654   4.904  12.211 -1.5738 -0.9626  1.7630
 7468TIP3    H243896   6.661   5.053  12.188  1.6573 -1.4180 -1.0894
 7469TIP3   OH243897   1.099   6.330  14.379 -0.4255  0.1700  0.9397
 7469TIP3    H143898   1.125   6.238  14.374  0.1299  0.1929  2.6787
 7469TIP3    H243899   1.006   6.328  14.401 -0.7330  0.0493 -0.3200
 7470TIP3   OH243900   5.288   0.256   0.302 -0.1450  0.3358 -0.7903
 7470TIP3    H143901   5.293   0.349   0.324 -1.5552  0.6029 -1.4922
 7470TIP3    H243902   5.371   0.220   0.334 -0.3418  1.4634  1.1481
 7471TIP3   OH243903   1.315   1.322   5.006 -0.0757  0.4415  0.1029
 7471TIP3    H143904   1.405   1.301   4.978 -0.3175 -1.1308  0.4253
 7471TIP3    H243905   1.271   1.350   4.925  0.0808 -1.0743 -0.5535
 7472TIP3   OH243906   3.687   5.872   3.597 -0.8433 -0.3833 -0.5819
 7472TIP3    H143907   3.636   5.793   3.616  1.2386 -1.6891 -0.1241
 7472TIP3    H243908   3.643   5.910   3.520 -0.7502 -3.1244 -2.1244
 7473TIP3   OH243909   1.003   5.231  14.417 -0.1072 -0.0290  0.2929
 7473TIP3    H143910   1.081   5.231  14.473 -0.5943  1.2941  1.0301
 7473TIP3    H243911   0.998   5.142  14.383  1.8765 -0.0821 -0.0003
 7474TIP3   OH243912   4.738   3.311   5.480  0.0782 -0.7380  0.0040
 7474TIP3    H143913   4.801   3.295   5.409 -1.0802 -0.5741 -1.0868
 7474TIP3    H243914   4.780   3.379   5.534  1.3617 -1.4889  0.0112
 7475TIP3   OH243915   0.785   6.758  11.319  0.2986 -0.4142 -0.3907
 7475TIP3    H143916   0.852   6.765  11.387 -1.3928 -2.5397  1.6898
 7475TIP3    H243917   0.810   6.679  11.270 -1.3209 -2.1203  1.3515
 7476TIP3   OH243918   2.828   5.256   0.563 -0.3351  0.1923  0.1564
 7476TIP3    H143919   2.830   5.350   0.547  0.1815  0.0794 -0.5050
 7476TIP3    H243920   2.783   5.220   0.486 -1.2078 -0.0367  0.7655
 7477TIP3   OH243921   3.834   2.986   1.562 -0.1234  0.1157 -0.2506
 7477TIP3    H143922   3.800   3.056   1.507  0.5513 -0.9193 -2.0742
 7477TIP3    H243923   3.929   3.001   1.565  0.0680 -0.8955 -0.9462
 7478TIP3   OH243924   3.917   4.318  11.385  0.7613  0.0606  0.3328
 7478TIP3    H143925   3.848   4.289  11.326  1.4840  0.8351 -0.9516
 7478TIP3    H243926   3.914   4.257  11.458 -2.7410  1.3615  1.4707
 7479TIP3   OH243927   0.534   6.550   4.378  0.3279 -0.0084  0.8319
 7479TIP3    H143928   0.627   6.570   4.369  0.3573  0.0479  1.2252
 7479TIP3    H243929   0.499   6.620   4.434 -0.3198  0.9615 -0.7200
 7480TIP3   OH243930   4.208   0.348  13.156 -0.2568 -0.3486  0.5634
 7480TIP3    H143931   4.253   0.265  13.174 -2.6838 -1.6034  1.1813
 7480TIP3    H243932   4.197   0.389  13.242 -0.8650 -0.3746  0.5012
 7481TIP3   OH243933   0.509   5.050   2.794  0.2039  0.2134 -1.1028
 7481TIP3    H143934   0.437   4.991   2.773 -0.5210  0.9006 -0.5795
 7481TIP3    H243935   0.467   5.133   2.815  1.0234  0.1786  0.8412
 7482TIP3   OH243936   1.624   3.448   1.158  0.2113  0.5695 -0.1385
 7482TIP3    H143937   1.589   3.410   1.239  1.2937 -1.3726 -0.5057
 7482TIP3    H243938   1.719   3.437   1.166  0.5907  3.1547 -0.3750
 7483TIP3   OH243939   5.478   1.143   3.306 -0.1006  0.6137 -0.2387
 7483TIP3    H143940   5.472   1.234   3.278 -0.2304  0.1687 -1.7626
 7483TIP3    H243941   5.558   1.110   3.265  0.4420  0.2892  1.0583
 7484TIP3   OH243942   2.425   6.105  11.904  0.4310 -0.6842 -0.3113
 7484TIP3    H143943   2.384   6.187  11.931 -0.7618 -0.2012 -3.1947
 7484TIP3    H243944   2.364   6.068  11.840  0.3951 -4.4143  1.5813
 7485TIP3   OH243945   4.747   0.174   4.122 -0.4216  0.0604 -0.3320
 7485TIP3    H143946   4.815   0.118   4.160  0.4741  0.8755 -0.6931
 7485TIP3    H243947   4.736   0.142   4.032 -0.5632 -0.1040 -0.2578
 7486TIP3   OH243948   4.465   5.080   4.575  0.3596 -0.5797 -0.2208
 7486TIP3    H143949   4.521   5.152   4.545 -0.3413  0.7150  1.4164
 7486TIP3    H243950   4.521   5.002   4.569  1.1140  0.0463 -2.1178
 7487TIP3   OH243951   6.108   2.284  15.666 -0.3505  0.8058 -0.5014
 7487TIP3    H143952   6.077   2.214  15.723 -1.8254  2.7044  1.1629
 7487TIP3    H243953   6.076   2.261  15.579  0.7906 -1.4715 -0.3833
 7488TIP3   OH243954   1.165   4.965   6.207  0.6095  0.0642 -0.1711
 7488TIP3    H143955   1.101   4.894   6.194  0.1046  0.2069  1.3286
 7488TIP3    H243956   1.232   4.926   6.263 -0.6960  1.2614  2.4033
 7489TIP3   OH243957   1.178   6.141   5.771 -0.2800 -0.2245 -0.0032
 7489TIP3    H143958   1.163   6.133   5.865 -0.2596  1.4022  0.1746
 7489TIP3    H243959   1.197   6.234   5.758 -0.6452 -0.3562 -1.6690
 7490TIP3   OH243960   6.042   3.266   4.687  0.2964  0.3544  0.3553
 7490TIP3    H143961   6.073   3.347   4.647 -1.4043  0.6773 -0.4026
 7490TIP3    H243962   6.006   3.293   4.772 -1.1380  0.5946 -0.2951
 7491TIP3   OH243963   5.156   4.861  16.980  0.4990 -0.2010 -0.4023
 7491TIP3    H143964   5.167   4.791  16.916  1.1825 -0.0112 -0.5110
 7491TIP3    H243965   5.183   4.940  16.933 -0.6227  0.1916 -0.3984
 7492TIP3   OH243966   5.257   0.110  16.735  0.2771 -0.3722  0.3255
 7492TIP3    H143967   5.242   0.037  16.675  0.9577  0.7355 -1.2818
 7492TIP3    H243968   5.190   0.174  16.711  2.8085  1.6743 -2.0408
 7493TIP3   OH243969   6.134   3.052   0.560 -0.6725 -0.1426 -0.2679
 7493TIP3    H143970   6.147   3.093   0.646 -1.5688 -0.3693 -0.0143
 7493TIP3    H243971   6.219   3.014   0.539 -0.6764 -0.8528  0.9270
 7494TIP3   OH243972   1.317   4.006   4.396  0.1716 -0.0305  0.4741
 7494TIP3    H143973   1.250   4.027   4.462 -1.8073  0.7680 -1.6276
 7494TIP3    H243974   1.342   4.091   4.360  0.6416 -0.4863 -0.2980
 7495TIP3   OH243975   2.831   1.259  14.775 -0.1047  0.3315  0.0063
 7495TIP3    H143976   2.798   1.171  14.757 -1.2554  0.3520  1.7132
 7495TIP3    H243977   2.881   1.249  14.857 -0.1685  1.2519  0.1646
 7496TIP3   OH243978   5.284   1.623  13.611  0.8686  0.6347 -0.0560
 7496TIP3    H143979   5.278   1.549  13.672 -2.3104 -0.2464 -1.2712
 7496TIP3    H243980   5.306   1.584  13.527 -2.3718  0.7336 -1.0564
 7497TIP3   OH243981   2.884   1.942   5.772 -0.0359 -0.2057 -0.1624
 7497TIP3    H143982   2.949   1.895   5.720  1.3499 -0.3501  1.5801
 7497TIP3    H243983   2.843   1.874   5.826  0.8393  0.3028  1.2060
 7498TIP3   OH243984   1.384   3.783  11.898 -0.2846 -0.1713  0.2966
 7498TIP3    H143985   1.292   3.805  11.889  0.2745  2.5935  0.6079
 7498TIP3    H243986   1.418   3.781  11.809 -0.1954  1.0683  0.2933
 7499TIP3   OH243987   2.319   5.870   5.946 -0.7481  0.0687  0.4363
 7499TIP3    H143988   2.293   5.855   6.037  1.3540  2.1091  1.4957
 7499TIP3    H243989   2.414   5.881   5.949 -0.7830  1.7788 -1.7385
 7500TIP3   OH243990   5.438   1.182   3.984 -0.1559  0.5178  0.2088
 7500TIP3    H143991   5.424   1.241   4.058 -1.9594  1.3341 -0.7160
 7500TIP3    H243992   5.488   1.233   3.921 -0.3468  0.5262  0.0617
 7501TIP3   OH243993   0.798   0.493  16.609 -0.2801  0.3646 -0.3600
 7501TIP3    H143994   0.884   0.469  16.645 -0.2945  1.2351  0.2942
 7501TIP3    H243995   0.814   0.502  16.515  0.5314  1.2204 -0.1644
 7502TIP3   OH243996   4.801   2.319  13.523 -0.3333 -0.2847 -0.1483
 7502TIP3    H143997   4.727   2.348  13.469 -0.8532  0.9365  1.1481
 7502TIP3    H243998   4.878   2.359  13.482 -0.8251  1.3729  0.4858
 7503TIP3   OH243999   2.127   6.342   4.241 -0.0236 -0.2961 -0.2257
 7503TIP3    H144000   2.043   6.308   4.213 -0.4591  1.1166 -0.7210
 7503TIP3    H244001   2.112   6.374   4.330  0.1207 -0.4929 -0.1295
 7504TIP3   OH244002   2.379   0.954  15.955 -0.4256  0.3038 -0.3036
 7504TIP3    H144003   2.448   0.933  15.892  1.2311  0.2775  1.4196
 7504TIP3    H244004   2.394   1.046  15.977  0.3396 -0.1946  1.4862
 7505TIP3   OH244005   5.563   0.745  17.208 -0.2382  0.0942  0.2325
 7505TIP3    H144006   5.617   0.697  17.145 -0.0093 -2.1323  2.0181
 7505TIP3    H244007   5.610   0.827  17.223  0.0442  0.3829 -1.9291
 7506TIP3   OH244008   1.999   2.642  15.154  0.3690  0.4333 -0.6157
 7506TIP3    H144009   1.972   2.554  15.125  1.2686 -0.0661 -0.0000
 7506TIP3    H244010   2.020   2.630  15.246 -2.1914  1.9236  0.2577
 7507TIP3   OH244011   0.679   4.869  13.433  0.2073 -0.3032 -0.2883
 7507TIP3    H144012   0.699   4.816  13.510 -2.0211  4.7614  4.4222
 7507TIP3    H244013   0.584   4.882  13.436  0.4161  2.5155 -2.0884
 7508TIP3   OH244014   1.309   1.223   2.933 -0.4490 -0.2803 -0.1071
 7508TIP3    H144015   1.301   1.310   2.894  0.8834  1.5758  3.3600
 7508TIP3    H244016   1.397   1.194   2.910  0.1963  0.6419  1.1186
 7509TIP3   OH244017   5.481   2.155  16.710 -0.0431  0.4666 -0.0824
 7509TIP3    H144018   5.538   2.226  16.681  2.3074 -0.2283  2.4396
 7509TIP3    H244019   5.425   2.194  16.778  0.8654  0.1110  0.9057
 7510TIP3   OH244020   6.284   5.536   5.357 -0.6532 -0.2733  0.1722
 7510TIP3    H144021   6.353   5.485   5.315 -1.6693 -1.8376  0.3327
 7510TIP3    H244022   6.330   5.595   5.416  0.5500 -1.3208  0.3085
 7511TIP3   OH244023   3.748   2.891   4.176 -0.5314 -0.4980  0.6548
 7511TIP3    H144024   3.703   2.809   4.193  1.8402 -2.4621 -1.7030
 7511TIP3    H244025   3.690   2.939   4.117 -0.2075 -2.4260 -1.3463
 7512TIP3   OH244026   2.740   5.781  11.289 -0.4717 -0.3020 -0.4588
 7512TIP3    H144027   2.806   5.805  11.223 -0.3869  2.1599  0.4329
 7512TIP3    H244028   2.683   5.858  11.295 -1.8764 -1.3815  0.6810
 7513TIP3   OH244029   6.826   4.005   3.288  0.6855  0.1602  0.2219
 7513TIP3    H144030   6.877   4.064   3.343 -0.3903  0.4358  0.9650
 7513TIP3    H244031   6.867   4.011   3.202  2.4332 -0.3252  0.9742
 7514TIP3   OH244032   3.159   1.933  13.393  0.4581  0.2314 -0.0123
 7514TIP3    H144033   3.202   2.017  13.410 -1.0224  1.5357 -2.2459
 7514TIP3    H244034   3.232   1.870  13.388  2.2754  2.2664 -3.2148
 7515TIP3   OH244035   1.260   3.549   0.557  0.9170  0.7809 -0.8214
 7515TIP3    H144036   1.276   3.549   0.462  0.1812  0.2550 -0.9524
 7515TIP3    H244037   1.273   3.458   0.583 -0.6699  0.5460 -0.7407
 7516TIP3   OH244038   3.795   1.640   4.264  0.1511 -0.2093  0.6016
 7516TIP3    H144039   3.826   1.557   4.300 -1.0573 -0.7356  0.4887
 7516TIP3    H244040   3.704   1.622   4.238  0.8449  0.2023 -2.4647
 7517TIP3   OH244041   2.067   0.895   1.697  0.4266 -0.4041 -0.5665
 7517TIP3    H144042   2.097   0.932   1.614  1.0664 -1.4554 -0.8199
 7517TIP3    H244043   2.095   0.958   1.764 -0.0999  0.4525 -1.1323
 7518TIP3   OH244044   3.718   2.078   3.722 -0.0757 -0.3839 -0.5179
 7518TIP3    H144045   3.791   2.135   3.698  0.0242  1.0715  2.7047
 7518TIP3    H244046   3.758   2.004   3.767 -0.4905  0.3589  1.1528
 7519TIP3   OH244047   6.014   3.512  17.033  0.1147  0.0332 -0.1828
 7519TIP3    H144048   6.065   3.592  17.048  0.8311 -0.5306  0.4814
 7519TIP3    H244049   5.937   3.541  16.984  0.8526  0.9828 -0.8115
 7520TIP3   OH244050   1.012   5.280   0.313  0.0979 -0.0068  0.1792
 7520TIP3    H144051   1.077   5.252   0.378  1.8327  1.0854 -0.9783
 7520TIP3    H244052   0.992   5.201   0.263  1.0584 -0.2450  0.1509
 7521TIP3   OH244053   3.978   2.325  13.254  0.1577  0.5824  0.1607
 7521TIP3    H144054   4.032   2.283  13.187  0.7609  0.7394  0.5397
 7521TIP3    H244055   4.034   2.394  13.290  0.1209  0.0124  1.3514
 7522TIP3   OH244056   1.004   6.314   0.950  0.1099  0.7688 -0.5386
 7522TIP3    H144057   1.047   6.254   1.011  1.2084 -0.2180 -2.2012
 7522TIP3    H244058   1.069   6.382   0.933 -0.5584  1.5959  0.1282
 7523TIP3   OH244059   6.256   5.233   4.888  0.4553 -0.4076 -0.4300
 7523TIP3    H144060   6.298   5.319   4.884 -0.5248  0.0411 -1.3602
 7523TIP3    H244061   6.175   5.243   4.838  0.5092 -1.9771 -0.8872
 7524TIP3   OH244062   5.595   4.039   6.012 -0.1472  0.3793 -0.2999
 7524TIP3    H144063   5.673   4.094   6.006  0.1124  0.0980  0.4035
 7524TIP3    H244064   5.628   3.953   6.037 -0.8028  0.6587  1.7194
 7525TIP3   OH244065   1.316   3.734  16.187 -0.1314 -0.4550 -0.4960
 7525TIP3    H144066   1.381   3.664  16.189  0.2994 -0.0600 -0.6837
 7525TIP3    H244067   1.321   3.768  16.098  0.0610  0.1939 -0.2393
 7526TIP3   OH244068   5.526   1.652  15.909  0.2846  0.4122  0.2225
 7526TIP3    H144069   5.523   1.572  15.962  1.4059  0.7174  0.7793
 7526TIP3    H244070   5.449   1.701  15.934  0.6273  0.3983  1.3384
 7527TIP3   OH244071   5.234   2.630   1.621  0.1473  0.4069  0.2410
 7527TIP3    H144072   5.152   2.666   1.587 -0.7985  0.3684  2.3437
 7527TIP3    H244073   5.292   2.706   1.630  0.8726  0.2647 -2.4652
 7528TIP3   OH244074   1.992   1.757  12.458 -0.1245  0.0450 -0.2324
 7528TIP3    H144075   1.970   1.670  12.424  0.4800  0.2388 -1.1660
 7528TIP3    H244076   2.083   1.749  12.486 -0.6516 -0.1527  1.5600
 7529TIP3   OH244077   3.605   0.952   0.869  0.2858 -0.1665 -0.1582
 7529TIP3    H144078   3.687   0.966   0.823 -0.0050  0.6859 -0.4338
 7529TIP3    H244079   3.539   0.945   0.799  0.1840 -1.3481  0.0338
 7530TIP3   OH244080   2.454   0.007  14.524 -0.0962  1.1595 -0.1402
 7530TIP3    H144081   2.525   0.027  14.464  0.2997  0.6643  0.1573
 7530TIP3    H244082   2.461   0.072  14.593  0.7512  0.4459  0.4599
 7531TIP3   OH244083   5.404   4.772  14.090  0.0417 -0.7115  0.1129
 7531TIP3    H144084   5.353   4.703  14.049  0.0520 -0.3468 -0.5213
 7531TIP3    H244085   5.467   4.799  14.023 -0.8953  0.8959 -0.1679
 7532TIP3   OH244086   6.331   6.376  11.452 -0.1914 -0.0139 -0.1626
 7532TIP3    H144087   6.405   6.422  11.492  1.7624 -2.0005 -1.2466
 7532TIP3    H244088   6.356   6.367  11.360 -1.6688 -1.0322 -0.4985
 7533TIP3   OH244089   6.610   5.460  12.395  0.0233 -0.5675  0.5512
 7533TIP3    H144090   6.605   5.490  12.304 -0.9821  0.1521  0.8290
 7533TIP3    H244091   6.695   5.492  12.426  0.1733 -0.4274  0.0113
 7534TIP3   OH244092   3.924   3.376   0.942 -0.4345 -0.2430 -0.0899
 7534TIP3    H144093   3.935   3.362   0.848  2.6912 -0.0267  0.1168
 7534TIP3    H244094   4.004   3.339   0.981 -0.2873  2.1607  2.1766
 7535TIP3   OH244095   0.337   4.796  11.074 -0.2370 -0.2316 -0.2130
 7535TIP3    H144096   0.401   4.732  11.044  1.2764  0.9355  0.3775
 7535TIP3    H244097   0.269   4.796  11.006  0.0776 -1.9284 -0.5597
 7536TIP3   OH244098   4.965   3.992   6.293  0.1616  0.3044  0.0820
 7536TIP3    H144099   5.011   4.064   6.336  0.5349 -0.2633  0.6540
 7536TIP3    H244100   4.935   4.029   6.210 -2.2453  1.9845  1.5782
 7537TIP3   OH244101   4.408   0.511   1.477 -0.0937 -0.2674 -0.6218
 7537TIP3    H144102   4.444   0.575   1.539 -2.0123  0.2666 -0.0031
 7537TIP3    H244103   4.457   0.525   1.396 -0.6167  2.1803 -0.5754
 7538TIP3   OH244104   2.786   0.003   6.038  0.1614 -0.3212 -0.0622
 7538TIP3    H144105   2.810   0.087   6.076  1.2135 -0.6820  0.1079
 7538TIP3    H244106   2.846  -0.059   6.078 -0.3016 -1.0858 -0.5332
 7539TIP3   OH244107   5.849   0.597  15.172  0.2822  0.3152 -0.0376
 7539TIP3    H144108   5.933   0.594  15.126 -0.9316  2.5746 -2.7400
 7539TIP3    H244109   5.859   0.667  15.236  0.5983  0.2241  0.0177
 7540TIP3   OH244110   4.865   4.876   2.010  0.0936  0.1509 -0.0856
 7540TIP3    H144111   4.930   4.935   2.049  1.3766 -0.7830 -0.7232
 7540TIP3    H244112   4.781   4.918   2.028  0.7820  0.9353  1.6139
 7541TIP3   OH244113   2.327   2.542  11.301  0.1384 -0.1687  0.6376
 7541TIP3    H144114   2.402   2.541  11.241 -0.6067 -3.1906 -0.4302
 7541TIP3    H244115   2.302   2.450  11.309 -3.5207  0.7022  0.8765
 7542TIP3   OH244116   5.317   0.824  16.783  0.2950  0.2645  0.2369
 7542TIP3    H144117   5.259   0.899  16.797 -0.6025 -0.3330 -0.1814
 7542TIP3    H244118   5.348   0.801  16.871 -0.1248  0.5817  0.4725
 7543TIP3   OH244119   4.352   6.212   1.726 -0.0932  0.1746 -0.4048
 7543TIP3    H144120   4.397   6.181   1.648  1.2614  0.3391  0.2850
 7543TIP3    H244121   4.275   6.258   1.693 -0.0477 -0.5684 -1.5931
 7544TIP3   OH244122   3.990   2.901  13.268  0.4165 -0.1536 -0.2160
 7544TIP3    H144123   3.896   2.886  13.269  0.7615 -2.6553  1.0468
 7544TIP3    H244124   4.005   2.965  13.338 -0.0006 -2.9195  2.5993
 7545TIP3   OH244125   3.626   4.347   2.558  0.3753 -0.0738 -0.7883
 7545TIP3    H144126   3.609   4.357   2.651 -0.6619  1.6135 -1.1080
 7545TIP3    H244127   3.574   4.271   2.532  0.5777 -0.4811 -0.0439
 7546TIP3   OH244128   0.369   0.619  13.481  0.5880 -0.4433 -0.0858
 7546TIP3    H144129   0.312   0.637  13.556  1.4736  3.8242 -0.1752
 7546TIP3    H244130   0.453   0.596  13.520  0.2946 -1.1133  0.1580
 7547TIP3   OH244131   6.400   2.179   4.036 -0.1129  0.0805  0.0406
 7547TIP3    H144132   6.350   2.221   4.106 -0.0866 -0.3758  0.3381
 7547TIP3    H244133   6.460   2.247   4.006 -0.1388  0.2895  0.4474
 7548TIP3   OH244134   1.865   5.142   0.222 -0.2638 -0.0211  0.2536
 7548TIP3    H144135   1.921   5.177   0.291 -2.0091  1.2354  1.1108
 7548TIP3    H244136   1.840   5.055   0.252  1.1326 -0.5889 -0.1256
 7549TIP3   OH244137   6.540   6.643   4.616 -0.0069 -0.4972  0.3438
 7549TIP3    H144138   6.485   6.579   4.572 -2.9031  1.2361  1.1814
 7549TIP3    H244139   6.485   6.678   4.686  1.9750  1.7628  0.9141
 7550TIP3   OH244140   4.153   4.342   2.708 -0.2676  0.3274  0.2502
 7550TIP3    H144141   4.067   4.305   2.692 -0.3379  1.2929 -1.9556
 7550TIP3    H244142   4.180   4.306   2.793 -1.9066 -1.6568 -0.0125
 7551TIP3   OH244143   5.277   5.801  15.651  0.1336 -0.7832 -0.9777
 7551TIP3    H144144   5.328   5.766  15.579 -0.1397 -0.9706 -1.0814
 7551TIP3    H244145   5.341   5.848  15.705  0.4732 -1.3126 -0.9146
 7552TIP3   OH244146   1.280   5.362   4.250 -0.1481  0.3671 -0.0398
 7552TIP3    H144147   1.281   5.288   4.189 -0.1345 -0.4304  0.9098
 7552TIP3    H244148   1.371   5.390   4.256  0.0189 -0.2724  0.4674
 7553TIP3   OH244149   2.241   1.304  14.333  0.3936  0.5520 -0.1311
 7553TIP3    H144150   2.277   1.368  14.394 -0.5434  1.8393 -0.8675
 7553TIP3    H244151   2.155   1.340  14.310 -0.0900 -0.9121 -0.6880
 7554TIP3   OH244152   0.112   2.204   6.284  0.4291  0.1654 -0.5352
 7554TIP3    H144153   0.066   2.268   6.338  2.2478 -0.0614  1.4154
 7554TIP3    H244154   0.162   2.257   6.222  1.5086  0.6688  0.7209
 7555TIP3   OH244155   2.386   2.822  12.107 -0.5068  0.4022  0.5449
 7555TIP3    H144156   2.433   2.803  12.026 -0.2207  0.4838  0.6915
 7555TIP3    H244157   2.436   2.776  12.175 -0.0372  1.3359  0.8516
 7556TIP3   OH244158   2.989   3.344   1.480 -0.0959 -0.2165  0.6087
 7556TIP3    H144159   3.054   3.338   1.550  0.6389 -1.1472 -0.1254
 7556TIP3    H244160   2.907   3.321   1.523  0.0142  1.0393  1.5684
 7557TIP3   OH244161   4.981   1.289   3.524  0.0490 -0.1847  0.0902
 7557TIP3    H144162   4.999   1.382   3.538 -0.6413  0.0736 -0.7120
 7557TIP3    H244163   5.022   1.269   3.440 -0.7633 -0.3310 -0.2753
 7558TIP3   OH244164   0.326   0.280   3.048 -0.1699  0.5008  0.1951
 7558TIP3    H144165   0.421   0.266   3.045  0.1331  2.4494 -0.7300
 7558TIP3    H244166   0.307   0.287   3.142  0.7854  1.0621  0.3690
 7559TIP3   OH244167   3.814   1.837  12.674 -0.0241  0.5496  0.0446
 7559TIP3    H144168   3.734   1.819  12.625 -0.1679  0.0337  0.4584
 7559TIP3    H244169   3.784   1.871  12.758  0.2073  0.9252 -0.0220
 7560TIP3   OH244170   2.474   6.180  16.953  0.5702  0.3201  0.0714
 7560TIP3    H144171   2.456   6.272  16.971  1.0678  0.3636  0.3773
 7560TIP3    H244172   2.388   6.140  16.941  0.1615  0.2402  2.8094
 7561TIP3   OH244173   1.932   2.822  14.952  0.0578 -0.1898  0.3861
 7561TIP3    H144174   1.945   2.792  15.042 -0.4323  1.9618  1.2228
 7561TIP3    H244175   1.838   2.815  14.937 -0.0609  0.8564  0.5851
 7562TIP3   OH244176   5.038   5.911   3.588 -0.2093  0.0738  0.2118
 7562TIP3    H144177   4.957   5.871   3.620  0.3214 -1.0844  0.1469
 7562TIP3    H244178   5.014   6.001   3.567 -1.7595 -0.5724 -0.9335
 7563TIP3   OH244179   2.150   5.145   2.659 -0.5119 -0.6390 -0.5002
 7563TIP3    H144180   2.176   5.099   2.738 -1.2636 -1.0778 -0.4972
 7563TIP3    H244181   2.177   5.087   2.587  1.4672  0.4020 -0.6561
 7564TIP3   OH244182   1.878   4.594   2.115  0.3350 -0.4588  0.6623
 7564TIP3    H144183   1.849   4.550   2.035 -0.2680 -0.1190  0.6908
 7564TIP3    H244184   1.929   4.669   2.084 -0.8625  0.3394  0.5626
 7565TIP3   OH244185   5.146   0.797   4.960  0.1028 -0.3377 -0.3193
 7565TIP3    H144186   5.207   0.817   5.031  2.9158 -2.3491 -1.9593
 7565TIP3    H244187   5.173   0.855   4.889 -1.1265 -0.0077 -0.5347
 7566TIP3   OH244188   3.666   5.087  13.549  0.1857  0.1681 -0.1514
 7566TIP3    H144189   3.714   5.156  13.504  1.4655 -0.7397 -0.2168
 7566TIP3    H244190   3.732   5.024  13.576 -0.9553 -1.1283 -0.2318
 7567TIP3   OH244191   2.582   3.586  13.409 -0.1130  0.0275 -0.2020
 7567TIP3    H144192   2.523   3.632  13.468 -2.7007 -0.9954 -1.8348
 7567TIP3    H244193   2.659   3.566  13.463 -1.8497  0.1463  2.4944
 7568TIP3   OH244194   3.403   1.645  15.529 -0.1516 -0.0217  0.2889
 7568TIP3    H144195   3.482   1.682  15.489  0.1300 -1.9974 -1.1184
 7568TIP3    H244196   3.435   1.595  15.604  0.0647 -1.3523 -0.6533
 7569TIP3   OH244197   0.462   5.551  10.533  0.0414 -0.0296 -0.2073
 7569TIP3    H144198   0.459   5.563  10.438  2.3674 -2.0135 -0.6310
 7569TIP3    H244199   0.385   5.499  10.554  0.9948 -2.0870 -1.5179
 7570TIP3   OH244200   1.702   4.392   3.958 -0.1982 -0.4564 -0.0291
 7570TIP3    H144201   1.726   4.370   4.048 -1.9090  0.0584  0.6057
 7570TIP3    H244202   1.780   4.374   3.907  1.4946  1.1398  1.8314
 7571TIP3   OH244203   3.293   4.746   1.430 -0.9625 -0.3146 -0.1925
 7571TIP3    H144204   3.269   4.701   1.349 -0.7965  0.6032 -0.7531
 7571TIP3    H244205   3.250   4.695   1.499 -4.3674  1.0828 -1.0959
 7572TIP3   OH244206   3.298   3.525  11.674  0.3069  0.3179 -0.5914
 7572TIP3    H144207   3.226   3.489  11.726  0.8646 -1.3747 -0.9400
 7572TIP3    H244208   3.285   3.490  11.586  2.5211 -1.5609 -0.2659
 7573TIP3   OH244209   2.169   5.826   4.170 -0.0908 -0.0611  0.4106
 7573TIP3    H144210   2.235   5.817   4.101  1.0064  0.9378  1.2776
 7573TIP3    H244211   2.086   5.831   4.123  0.5185 -0.4907 -0.7664
 7574TIP3   OH244212   6.363   2.966  14.659  0.0159 -0.4825  0.3957
 7574TIP3    H144213   6.325   2.905  14.595 -0.9559  0.2644  0.2411
 7574TIP3    H244214   6.454   2.938  14.667 -0.6273 -2.5821  1.0573
 7575TIP3   OH244215   1.429   4.440  12.376 -0.4272 -0.2258  0.4168
 7575TIP3    H144216   1.474   4.424  12.293 -4.5771 -2.5717 -1.7580
 7575TIP3    H244217   1.469   4.380  12.438 -0.2346 -1.9412 -1.2817
 7576TIP3   OH244218   4.655   1.066   3.725 -0.3559  0.2481 -0.1330
 7576TIP3    H144219   4.675   1.151   3.687 -0.2210  0.0338 -0.5516
 7576TIP3    H244220   4.624   1.013   3.651  0.2272 -0.2758 -0.0133
 7577TIP3   OH244221   5.913   4.395  12.658 -0.6793  0.4509  0.8558
 7577TIP3    H144222   5.899   4.489  12.654  1.4193  0.7660 -0.3924
 7577TIP3    H244223   5.957   4.373  12.576 -1.5152 -1.7221  0.8976
 7578TIP3   OH244224   5.241   0.172  13.174  0.2384  0.6267 -0.4019
 7578TIP3    H144225   5.216   0.125  13.094  0.1051 -0.2596  0.1437
 7578TIP3    H244226   5.218   0.112  13.245  0.4186  1.3723  0.3034
 7579TIP3   OH244227   2.776   5.909  14.011  0.1049 -0.1793 -0.1966
 7579TIP3    H144228   2.818   5.826  14.035  1.8722 -0.1686 -2.8795
 7579TIP3    H244229   2.829   5.976  14.053  1.0823 -0.2996 -1.1865
 7580TIP3   OH244230   4.092   3.281   6.247  0.4521  0.2677  0.9366
 7580TIP3    H144231   4.096   3.341   6.321 -0.7427  1.0723  0.3713
 7580TIP3    H244232   4.004   3.244   6.251  0.6417 -0.2662  0.3486
 7581TIP3   OH244233   0.635   4.693  12.592  0.4598 -0.0637 -0.4049
 7581TIP3    H144234   0.557   4.660  12.636  1.3395 -1.2599  0.2984
 7581TIP3    H244235   0.625   4.788  12.595 -0.8061 -0.1819 -0.0429
 7582TIP3   OH244236   5.308   2.838  14.801  0.2614  0.0362  0.0170
 7582TIP3    H144237   5.374   2.805  14.862  1.7713  0.5483 -1.2709
 7582TIP3    H244238   5.255   2.899  14.853  2.2221  1.3374  0.5855
 7583TIP3   OH244239   4.832   5.997  15.812 -0.1369 -0.0555 -0.4662
 7583TIP3    H144240   4.882   5.961  15.885 -0.1120 -1.2242 -1.0448
 7583TIP3    H244241   4.871   5.957  15.734  0.3607  1.7705 -1.2092
 7584TIP3   OH244242   2.738   5.884  12.385 -0.1018 -0.4775 -0.0000
 7584TIP3    H144243   2.821   5.897  12.339  0.0791 -1.2145  0.1055
 7584TIP3    H244244   2.691   5.819  12.332  0.1026 -1.3224  0.8271
 7585TIP3   OH244245   5.645   1.424   4.056 -0.3650  0.1582 -0.6893
 7585TIP3    H144246   5.670   1.451   3.968 -0.4320  0.8457 -0.4998
 7585TIP3    H244247   5.579   1.487   4.083 -2.1758 -1.4645 -1.0747
 7586TIP3   OH244248   2.092   1.347   0.285  0.0412 -0.1501 -0.1886
 7586TIP3    H144249   2.004   1.309   0.277 -0.4795  1.2561 -1.7941
 7586TIP3    H244250   2.076   1.437   0.315  1.0220 -0.2236  0.5981
 7587TIP3   OH244251   6.169   2.248  14.993 -0.3252  0.3880  1.0537
 7587TIP3    H144252   6.162   2.155  15.018 -1.4574 -0.0568 -0.7742
 7587TIP3    H244253   6.257   2.255  14.955 -1.5123 -0.9475 -2.3345
 7588TIP3   OH244254   5.357   6.832   5.787  0.1365  0.2153  0.2788
 7588TIP3    H144255   5.402   6.810   5.705 -0.3869 -1.2911  0.3719
 7588TIP3    H244256   5.419   6.805   5.855 -0.4481 -0.8919  0.3921
 7589TIP3   OH244257   3.152   3.299   3.611  0.5370  0.5950 -0.5681
 7589TIP3    H144258   3.060   3.280   3.629  0.7514 -1.4363 -1.4190
 7589TIP3    H244259   3.179   3.234   3.546  3.0563 -0.0642  0.9832
 7590TIP3   OH244260   1.940   5.114   1.432  0.0994  0.0946  0.1285
 7590TIP3    H144261   1.905   5.125   1.521 -0.3686 -2.7503  0.3748
 7590TIP3    H244262   2.032   5.093   1.445 -0.6118 -3.6557  0.3271
 7591TIP3   OH244263   6.032   4.841   3.512  0.0542 -0.4991  0.1482
 7591TIP3    H144264   6.088   4.919   3.508  0.0793 -0.2678  2.9548
 7591TIP3    H244265   6.092   4.768   3.503  0.5869 -0.2120  1.1247
 7592TIP3   OH244266   3.099   5.744   2.780  0.5518 -0.0063 -0.3405
 7592TIP3    H144267   3.160   5.816   2.763  0.5887  0.4314  1.4681
 7592TIP3    H244268   3.155   5.670   2.803  0.4793 -0.3588 -1.2721
 7593TIP3   OH244269   2.064   1.111   6.014 -0.3064 -0.5736  0.6847
 7593TIP3    H144270   1.992   1.098   6.075 -0.3996 -1.4868  0.3957
 7593TIP3    H244271   2.052   1.043   5.948  0.6774 -0.5832  0.5008
 7594TIP3   OH244272   2.808   1.446   4.307 -0.2171 -0.1071  0.3855
 7594TIP3    H144273   2.781   1.522   4.254  1.8603  1.1184  0.9775
 7594TIP3    H244274   2.748   1.446   4.381 -0.3123  0.9312  0.3290
 7595TIP3   OH244275   6.716   2.125   1.962 -0.6307 -0.0441  0.6896
 7595TIP3    H144276   6.645   2.093   1.906 -0.4504  0.8627 -0.0737
 7595TIP3    H244277   6.787   2.062   1.949 -1.2158 -0.8517  1.3131
 7596TIP3   OH244278   4.192   2.673   5.103  0.0292  0.1794 -0.5108
 7596TIP3    H144279   4.245   2.605   5.144  1.5644  1.4118 -0.3391
 7596TIP3    H244280   4.204   2.661   5.009  1.3292  0.9177 -0.4739
 7597TIP3   OH244281   4.467   1.766   1.416 -0.1910  0.8207  0.2684
 7597TIP3    H144282   4.379   1.798   1.399 -0.2044  0.0008 -1.3801
 7597TIP3    H244283   4.524   1.830   1.372  0.0822  1.5037  1.5628
 7598TIP3   OH244284   1.363   1.606   1.313  0.2692 -0.2768 -0.3651
 7598TIP3    H144285   1.414   1.621   1.234  1.3549  0.9806  0.5227
 7598TIP3    H244286   1.307   1.684   1.320 -0.3928 -0.7496 -0.3050
 7599TIP3   OH244287   3.956   2.815   2.601  0.7184 -1.4618  0.2019
 7599TIP3    H144288   3.958   2.760   2.522  1.4233  1.3452 -1.8774
 7599TIP3    H244289   3.903   2.891   2.575  1.8384  0.0290  2.0958
 7600TIP3   OH244290   1.176   4.377   3.544  0.3752  0.1208 -0.5132
 7600TIP3    H144291   1.193   4.467   3.572  1.7022 -0.6013  1.1996
 7600TIP3    H244292   1.091   4.355   3.582  1.5796 -0.4172  2.0984
 7601TIP3   OH244293   0.376   0.535   1.098  0.3995 -0.2779 -0.4054
 7601TIP3    H144294   0.391   0.440   1.108  1.0134 -0.0319  1.3719
 7601TIP3    H244295   0.429   0.559   1.021  0.2569 -1.3543 -0.8674
 7602TIP3   OH244296   4.130   6.035  13.418 -0.0369  0.5307  0.1916
 7602TIP3    H144297   4.187   6.008  13.347 -0.1909 -0.2243  0.3408
 7602TIP3    H244298   4.087   6.114  13.386 -1.8082 -1.0009 -1.5136
 7603TIP3   OH244299   4.580   1.479   4.435  0.2410  0.5348 -1.0344
 7603TIP3    H144300   4.518   1.548   4.415  0.8408  1.6084  0.6264
 7603TIP3    H244301   4.666   1.516   4.415  0.6923  0.8899  1.2861
 7604TIP3   OH244302   2.843   2.320   3.882 -0.2827  0.2413  0.2427
 7604TIP3    H144303   2.764   2.310   3.935  0.5506 -0.6262  1.3556
 7604TIP3    H244304   2.811   2.322   3.792 -1.7276  1.7391  0.7373
 7605TIP3   OH244305   2.892   4.521  13.646  0.1666 -0.3369  0.5968
 7605TIP3    H144306   2.947   4.461  13.596 -1.6583 -0.2882 -1.6742
 7605TIP3    H244307   2.855   4.580  13.580 -0.1975  1.5949  2.4174
 7606TIP3   OH244308   4.076   1.250   4.962 -0.2378 -0.0271  0.0319
 7606TIP3    H144309   4.037   1.177   5.011 -0.8463  0.5999  0.5008
 7606TIP3    H244310   4.021   1.260   4.885 -0.7581  0.5687  0.4689
 7607TIP3   OH244311   3.951   0.391   3.942 -0.0363  0.4035  0.5974
 7607TIP3    H144312   3.977   0.363   4.029 -0.0778  0.2702  0.5671
 7607TIP3    H244313   3.911   0.477   3.955  0.2468  0.5263  0.6674
 7608TIP3   OH244314   0.006   2.370   2.033 -0.0476  0.1151  0.1562
 7608TIP3    H144315  -0.050   2.409   2.100 -0.2936  0.5049 -0.2726
 7608TIP3    H244316  -0.039   2.289   2.008 -0.0574  0.0702  0.3201
 7609TIP3   OH244317   4.658   4.563  10.463 -0.1474 -0.5263 -0.3396
 7609TIP3    H144318   4.583   4.503  10.471  0.8335 -1.9196 -1.1725
 7609TIP3    H244319   4.734   4.506  10.465  1.0146  0.9569  1.7094
 7610TIP3   OH244320   1.853   3.333  15.317 -0.2921  0.1909 -0.5288
 7610TIP3    H144321   1.848   3.249  15.362  0.2888 -0.5632 -1.7886
 7610TIP3    H244322   1.857   3.310  15.224 -0.7930  1.6483 -0.9422
 7611TIP3   OH244323   6.823   0.182  16.684 -0.3624  0.7521  0.3405
 7611TIP3    H144324   6.767   0.105  16.694 -0.7013  0.8217 -0.8201
 7611TIP3    H244325   6.879   0.181  16.761  2.7508 -3.2041 -1.5855
 7612TIP3   OH244326   3.570   6.775  15.468  0.1993 -0.4816  0.0999
 7612TIP3    H144327   3.600   6.840  15.404 -1.3414  0.0102 -0.1651
 7612TIP3    H244328   3.628   6.787  15.543  0.6775  0.4128 -0.3947
 7613TIP3   OH244329   5.456   4.832  12.448 -0.3859 -0.2148  0.7369
 7613TIP3    H144330   5.397   4.786  12.388 -0.9068 -0.6567  1.5757
 7613TIP3    H244331   5.399   4.867  12.516  0.3173 -0.7509  1.6337
 7614TIP3   OH244332   2.621   1.333   3.888 -0.4849  0.2543  0.3326
 7614TIP3    H144333   2.550   1.292   3.839 -0.0867 -0.4597  0.3276
 7614TIP3    H244334   2.598   1.321   3.980  0.6748 -2.0086  0.4022
 7615TIP3   OH244335   4.703   6.738  14.844  0.2182 -0.2430 -0.6778
 7615TIP3    H144336   4.673   6.652  14.814 -0.0308 -0.3865 -0.0285
 7615TIP3    H244337   4.746   6.776  14.767  0.5283 -1.0351 -0.9108
 7616TIP3   OH244338   2.903   4.361  13.864  0.2098  0.9460 -0.0057
 7616TIP3    H144339   2.982   4.310  13.882  0.0071  0.7843  0.4306
 7616TIP3    H244340   2.936   4.443  13.825  0.5103  0.3233 -1.0936
 7617TIP3   OH244341   0.758   1.208   4.274  0.2089  0.1399 -1.5504
 7617TIP3    H144342   0.719   1.200   4.361 -0.3408  2.7167 -1.4741
 7617TIP3    H244343   0.812   1.129   4.265  1.5862  0.5068  1.8021
 7618TIP3   OH244344   0.749   6.017  14.120  0.3095  0.0897  0.4966
 7618TIP3    H144345   0.774   5.934  14.159  1.1431 -0.4968 -1.1995
 7618TIP3    H244346   0.831   6.065  14.111  0.2268  0.0056 -0.9375
 7619TIP3   OH244347   3.861   1.839   2.198  0.4707 -0.0090 -0.0747
 7619TIP3    H144348   3.887   1.748   2.181  2.0212  0.7263 -1.9423
 7619TIP3    H244349   3.810   1.864   2.121  0.6423  0.9062  0.0978
 7620TIP3   OH244350   4.879   4.348   3.103 -0.1765 -0.1348 -0.5287
 7620TIP3    H144351   4.863   4.442   3.097  0.2611  0.0177  0.5271
 7620TIP3    H244352   4.974   4.339   3.092 -0.1610 -0.4122 -0.1827
 7621TIP3   OH244353   5.177   1.084  15.837  0.2740 -0.1675  0.1454
 7621TIP3    H144354   5.266   1.069  15.804 -0.2026 -0.1128 -1.2275
 7621TIP3    H244355   5.125   1.101  15.759 -1.1445 -1.1302  0.8312
 7622TIP3   OH244356   6.740   0.310   1.225  0.2827 -0.2844 -0.0567
 7622TIP3    H144357   6.834   0.324   1.210  0.3038  0.7035  0.9248
 7622TIP3    H244358   6.733   0.290   1.318 -0.3793 -1.4068 -0.3314
 7623TIP3   OH244359   1.850   4.936   4.111  0.3091  0.2507  0.6711
 7623TIP3    H144360   1.941   4.937   4.140  0.3131  0.6403  0.6546
 7623TIP3    H244361   1.845   4.863   4.049  0.5308  0.0243  0.9187
 7624TIP3   OH244362   2.850   1.069   2.313  0.0068  0.2707 -0.1658
 7624TIP3    H144363   2.824   0.977   2.307  0.1520  0.3167 -2.5573
 7624TIP3    H244364   2.932   1.074   2.264  0.4163  1.5433  0.6010
 7625TIP3   OH244365   5.081   6.345   0.387  0.4735  0.0436  0.4168
 7625TIP3    H144366   5.146   6.391   0.440  0.1378  1.4486 -0.3450
 7625TIP3    H244367   5.053   6.410   0.322 -0.8920 -0.8720  0.0535
 7626TIP3   OH244368   2.917   0.982  16.771 -0.2724  0.1199  0.5303
 7626TIP3    H144369   2.847   1.006  16.711  0.1328 -0.0653 -0.0283
 7626TIP3    H244370   2.994   0.974  16.715 -0.3362 -2.3282  0.6864
 7627TIP3   OH244371   5.732   3.052   3.553 -0.1500 -0.6338 -0.4947
 7627TIP3    H144372   5.678   3.101   3.490 -0.5940 -0.2546  0.1742
 7627TIP3    H244373   5.681   2.973   3.572 -0.6018 -0.1569  0.3281
 7628TIP3   OH244374   1.463   0.130  13.890 -0.1055 -0.1103  0.6467
 7628TIP3    H144375   1.417   0.057  13.848  1.1615 -0.4594 -0.1865
 7628TIP3    H244376   1.402   0.203  13.885 -1.2198 -0.9826  1.0812
 7629TIP3   OH244377   6.614   5.169   5.653 -0.2551  0.2147 -0.6135
 7629TIP3    H144378   6.685   5.210   5.702  1.1429 -2.7464  0.0172
 7629TIP3    H244379   6.648   5.159   5.564 -0.0243 -0.7865 -0.4242
 7630TIP3   OH244380   3.725   2.776   1.682  0.3643 -0.6419  0.2578
 7630TIP3    H144381   3.756   2.776   1.773  0.6936 -0.4509  0.1462
 7630TIP3    H244382   3.744   2.864   1.650 -1.4495 -0.0896  0.5709
 7631TIP3   OH244383   6.319   2.102  16.012 -0.4204  0.5205 -0.0492
 7631TIP3    H144384   6.225   2.106  15.996 -0.4083  0.3449 -0.1587
 7631TIP3    H244385   6.359   2.133  15.931 -0.3053 -2.1769 -1.1220
 7632TIP3   OH244386   5.524   3.012  17.007  0.3015  0.3483  0.1597
 7632TIP3    H144387   5.584   3.075  16.967  0.7026 -0.2286 -0.1686
 7632TIP3    H244388   5.537   2.931  16.957  0.1363 -0.1303  0.8669
 7633TIP3   OH244389   1.012   1.719   4.801  0.0286  0.6623 -0.5825
 7633TIP3    H144390   1.065   1.773   4.860 -0.4354 -0.6611  1.1465
 7633TIP3    H244391   0.933   1.771   4.786 -0.6908  0.2867  1.5633
 7634TIP3   OH244392   5.867   0.209  13.018  0.6103  0.1877  0.2940
 7634TIP3    H144393   5.882   0.279  13.081 -0.0603  0.5377  0.0662
 7634TIP3    H244394   5.955   0.183  12.991  0.8573  1.3728 -0.0953
 7635TIP3   OH244395   6.729   0.821  11.122 -0.1744 -1.2939  0.0395
 7635TIP3    H144396   6.768   0.872  11.051 -0.9297 -2.0191 -0.9215
 7635TIP3    H244397   6.636   0.843  11.120  0.0163 -0.1083  1.8708
 7636TIP3   OH244398   3.333   0.217   3.339 -0.2577  0.4359  0.1606
 7636TIP3    H144399   3.417   0.222   3.293 -0.2936  1.2823  0.1595
 7636TIP3    H244400   3.323   0.125   3.361  0.2655  0.1914 -0.5868
 7637TIP3   OH244401   6.662   5.707   5.322  0.5116  0.3692 -0.5120
 7637TIP3    H144402   6.747   5.720   5.364  0.2136  0.4790  0.0570
 7637TIP3    H244403   6.602   5.684   5.393  0.2433 -0.5611 -1.0222
 7638TIP3   OH244404   0.211   5.585  13.813 -0.1739 -0.0018 -0.5418
 7638TIP3    H144405   0.117   5.571  13.811 -0.6855  2.5863  1.3392
 7638TIP3    H244406   0.235   5.574  13.905  1.2250  0.2723 -0.8482
 7639TIP3   OH244407   6.794   4.650  14.052  0.1270  0.8191  0.1035
 7639TIP3    H144408   6.767   4.663  13.961 -1.0553 -1.5671  0.0299
 7639TIP3    H244409   6.864   4.584  14.046 -2.3827 -2.1612  1.0266
 7640TIP3   OH244410   3.673   0.053  12.607  0.0337 -0.0349 -0.1900
 7640TIP3    H144411   3.719  -0.031  12.605  0.2784  0.0969 -0.1385
 7640TIP3    H244412   3.740   0.117  12.631 -0.5456 -0.1071  1.8988
 7641TIP3   OH244413   4.817   6.241   0.458  0.0340  0.1631 -0.1534
 7641TIP3    H144414   4.906   6.266   0.432  0.0050 -1.3322 -1.9724
 7641TIP3    H244415   4.768   6.323   0.460  1.0148  0.7985 -1.1392
 7642TIP3   OH244416   2.896   3.433   0.695 -0.5471  0.4488 -0.0200
 7642TIP3    H144417   2.985   3.408   0.670 -1.2085 -1.7104 -0.4800
 7642TIP3    H244418   2.841   3.365   0.656 -2.3046  1.1169  1.1698
 7643TIP3   OH244419   1.536   6.123  13.321  0.6428 -0.0428 -0.2964
 7643TIP3    H144420   1.595   6.059  13.360  2.6099  0.4053 -2.3503
 7643TIP3    H244421   1.455   6.074  13.305  1.3931 -1.4561  0.0449
 7644TIP3   OH244422   0.846   4.539   0.916 -0.2578 -0.2806  0.1596
 7644TIP3    H144423   0.910   4.600   0.952 -1.8167  1.6792 -0.1964
 7644TIP3    H244424   0.766   4.558   0.965 -0.5738 -2.8067  0.7400
 7645TIP3   OH244425   3.931   1.854  12.393  0.2035 -0.2224  0.5681
 7645TIP3    H144426   3.882   1.834  12.473 -1.5130  0.3512 -0.2891
 7645TIP3    H244427   4.011   1.897  12.425  0.6124 -1.9686  2.0468
 7646TIP3   OH244428   6.665   0.250  13.004  0.3527  0.5232 -0.4019
 7646TIP3    H144429   6.681   0.172  13.058  0.2816  1.0350  0.3762
 7646TIP3    H244430   6.697   0.323  13.057  2.1609  0.8798 -1.8891
 7647TIP3   OH244431   5.532   1.791  12.310  0.3821  0.5515 -0.8685
 7647TIP3    H144432   5.545   1.871  12.361 -0.2506  1.1952 -1.6720
 7647TIP3    H244433   5.475   1.818  12.238 -0.1930 -0.7331 -0.9177
 7648TIP3   OH244434   4.215   3.803   4.460  0.0436 -0.0821 -0.9988
 7648TIP3    H144435   4.177   3.820   4.546 -3.1750 -0.9329 -2.0926
 7648TIP3    H244436   4.203   3.885   4.412 -0.4030 -0.3297 -1.3223
 7649TIP3   OH244437   4.551   0.900  11.102  0.0982 -0.0558 -0.5792
 7649TIP3    H144438   4.514   0.812  11.109  1.8793 -0.7461  1.2327
 7649TIP3    H244439   4.484   0.957  11.141 -0.0778 -0.9446  0.4868
 7650TIP3   OH244440   5.436   3.916   6.424 -0.2787 -0.0416  0.4017
 7650TIP3    H144441   5.525   3.891   6.397 -1.0580 -2.6998 -0.0048
 7650TIP3    H244442   5.447   4.000   6.467  2.4641 -0.3371  0.4622
 7651TIP3   OH244443   1.404   2.744  11.235  0.1706 -0.4627  0.0607
 7651TIP3    H144444   1.445   2.791  11.162  3.2197 -1.1443  1.1633
 7651TIP3    H244445   1.370   2.664  11.197  2.3724 -1.1580 -0.6016
 7652TIP3   OH244446   0.183   2.916   2.303 -0.3033 -0.4398  0.2972
 7652TIP3    H144447   0.244   2.912   2.230 -0.1672  0.7841  0.3115
 7652TIP3    H244448   0.238   2.931   2.380 -0.5525 -0.2185  0.4349
 7653TIP3   OH244449   6.189   3.203  14.159  0.3967 -0.5188 -0.5429
 7653TIP3    H144450   6.196   3.250  14.076 -0.3717 -2.3152 -1.6850
 7653TIP3    H244451   6.120   3.249  14.207  1.2540  0.8996 -0.6043
 7654TIP3   OH244452   2.656   3.930  11.272  0.2793  0.7069  0.3209
 7654TIP3    H144453   2.719   4.001  11.281  0.0485  1.1189 -1.0666
 7654TIP3    H244454   2.709   3.850  11.267  0.7441  1.0705 -1.0819
 7655TIP3   OH244455   0.517   0.366  13.333 -0.4659  0.0247 -0.3106
 7655TIP3    H144456   0.514   0.420  13.254 -0.4584 -0.3823 -0.5974
 7655TIP3    H244457   0.523   0.276  13.300 -1.3906 -0.2187  0.1459
 7656TIP3   OH244458   6.252   4.495  13.620 -0.2792  0.1716 -0.2839
 7656TIP3    H144459   6.169   4.532  13.649 -0.2801  0.7276 -0.9730
 7656TIP3    H244460   6.318   4.553  13.657 -0.2947  1.1343 -1.6990
 7657TIP3   OH244461   0.544   3.211   2.166  0.3935 -0.1784 -0.4231
 7657TIP3    H144462   0.459   3.208   2.122 -0.9369 -0.2970  1.9467
 7657TIP3    H244463   0.607   3.229   2.096 -1.4880 -0.6737 -2.3614
 7658TIP3   OH244464   0.900   6.786   2.092 -0.0303 -0.3417 -0.1177
 7658TIP3    H144465   0.928   6.735   2.168  1.7751  0.6785 -0.0561
 7658TIP3    H244466   0.916   6.877   2.116 -2.6229  0.2912 -0.4683
 7659TIP3   OH244467   5.120   0.029  12.895  0.0847 -0.6952 -0.1102
 7659TIP3    H144468   5.101  -0.058  12.930 -0.7022 -0.7085 -0.5421
 7659TIP3    H244469   5.210   0.023  12.863 -0.3366 -1.7061 -1.1779
 7660TIP3   OH244470   6.781   6.281   2.531 -0.3995  0.1218  0.1139
 7660TIP3    H144471   6.844   6.309   2.464  0.2912 -2.8423 -0.6472
 7660TIP3    H244472   6.727   6.215   2.486  0.3769 -2.3350  2.4987
 7661TIP3   OH244473   6.141   4.475   6.534 -0.0725  0.4287  0.0860
 7661TIP3    H144474   6.060   4.470   6.585 -0.1560 -0.5877 -0.1209
 7661TIP3    H244475   6.207   4.436   6.592 -0.3559 -1.6651 -0.9084
 7662TIP3   OH244476   2.419   0.087  11.462  0.2311  0.0158  0.0034
 7662TIP3    H144477   2.398   0.173  11.427  1.0478  0.1383 -0.2070
 7662TIP3    H244478   2.410   0.097  11.557 -1.1923 -0.1005 -0.0961
 7663TIP3   OH244479   6.479   2.377  17.190 -0.4176  0.1040  0.0126
 7663TIP3    H144480   6.427   2.457  17.186 -1.3517 -0.5019 -0.2853
 7663TIP3    H244481   6.420   2.308  17.159  0.0638 -0.8533  1.1494
 7664TIP3   OH244482   6.494   6.655  13.841 -0.1483 -0.0756 -0.5963
 7664TIP3    H144483   6.530   6.675  13.755 -0.5313 -0.3424 -0.8170
 7664TIP3    H244484   6.468   6.740  13.877 -3.2099 -0.2204 -2.1559
 7665TIP3   OH244485   1.428   4.984   3.568  0.2867 -0.1945  0.1531
 7665TIP3    H144486   1.515   4.985   3.609 -0.1152  0.7564  1.0224
 7665TIP3    H244487   1.441   5.028   3.484  0.5312  0.5257  0.5536
 7666TIP3   OH244488   5.680   4.815  15.954  0.1284  0.2097 -0.4115
 7666TIP3    H144489   5.607   4.768  15.993  0.2661 -0.4981 -1.0068
 7666TIP3    H244490   5.671   4.905  15.987 -1.0613  0.1565 -0.5785
 7667TIP3   OH244491   0.492   3.101   0.709  0.7304 -0.4118  0.1299
 7667TIP3    H144492   0.486   3.067   0.799  1.0970 -0.3480  0.1808
 7667TIP3    H244493   0.402   3.098   0.676  0.8465 -2.0783 -0.1121
 7668TIP3   OH244494   3.242   3.144  16.116 -0.5338  0.0492  0.3331
 7668TIP3    H144495   3.169   3.146  16.054 -0.3019 -0.9511 -0.0048
 7668TIP3    H244496   3.201   3.128  16.201 -0.6976 -0.9600  0.0819
 7669TIP3   OH244497   2.967   2.905   5.994 -0.1434  0.3511 -0.8209
 7669TIP3    H144498   3.030   2.862   6.052  0.0729  1.5984 -0.0862
 7669TIP3    H244499   2.905   2.836   5.969  1.8207 -1.0724 -2.0502
 7670TIP3   OH244500   5.964   3.639  12.278  0.1149  0.0471  0.4160
 7670TIP3    H144501   6.050   3.672  12.305  0.2655  0.2915 -0.3578
 7670TIP3    H244502   5.912   3.640  12.359  0.5012  0.9739  0.6736
 7671TIP3   OH244503   4.901   4.326   0.802 -0.2298 -0.5992  0.0273
 7671TIP3    H144504   4.929   4.327   0.710 -2.3313  2.5346 -0.7258
 7671TIP3    H244505   4.971   4.371   0.849  0.0315 -0.6159 -0.3457
 7672TIP3   OH244506   2.974   3.048   1.620  0.7368 -0.1588  0.4838
 7672TIP3    H144507   3.022   3.126   1.594  1.3257  0.1256  2.2578
 7672TIP3    H244508   3.042   2.983   1.639  0.2942 -0.7580  0.0665
 7673TIP3   OH244509   2.688   6.301  16.796  0.0943 -0.1303  0.6714
 7673TIP3    H144510   2.684   6.261  16.883  0.0541 -1.3932  0.1153
 7673TIP3    H244511   2.732   6.236  16.742 -1.2623 -0.0471 -0.6038
 7674TIP3   OH244512   1.563   6.319  15.095  0.0171  0.5710  0.3926
 7674TIP3    H144513   1.595   6.409  15.089 -1.1823  0.9765 -0.4717
 7674TIP3    H244514   1.467   6.328  15.099 -0.1832 -0.6809 -0.7467
 7675TIP3   OH244515   6.270   0.679  12.208 -0.0757 -0.3130  0.6286
 7675TIP3    H144516   6.321   0.749  12.168 -0.3185  0.0341  0.9176
 7675TIP3    H244517   6.302   0.599  12.167 -1.8490  0.1820 -1.9800
 7676TIP3   OH244518   1.230   2.994  12.079  0.0794 -0.1413 -0.5376
 7676TIP3    H144519   1.209   2.923  12.018  0.1894 -0.1829 -0.5289
 7676TIP3    H244520   1.310   3.032  12.043  0.3214 -0.3705 -0.2462
 7677TIP3   OH244521   2.639   1.423  10.829  0.3097 -0.4846  0.6333
 7677TIP3    H144522   2.725   1.459  10.808  0.5988 -1.2168  0.5435
 7677TIP3    H244523   2.592   1.423  10.746  0.6250 -1.1518  0.4483
 7678TIP3   OH244524   0.407   3.775  11.545  0.2169 -0.2466  0.0797
 7678TIP3    H144525   0.365   3.791  11.461  1.8664  0.7230 -0.6248
 7678TIP3    H244526   0.348   3.813  11.610  0.1960  1.4958 -0.9006
 7679TIP3   OH244527   5.814   0.295   3.390  0.0137 -1.0474 -0.2123
 7679TIP3    H144528   5.896   0.260   3.426 -0.2733 -1.7500 -0.2435
 7679TIP3    H244529   5.777   0.347   3.462  1.3249  0.7400 -0.7398
 7680TIP3   OH244530   6.282   0.284  15.101 -0.3883  0.6927  0.2076
 7680TIP3    H144531   6.316   0.220  15.163 -2.6843 -0.9670 -0.1536
 7680TIP3    H244532   6.224   0.340  15.153 -0.7324  0.5811 -0.0533
 7681TIP3   OH244533   5.365   0.344  12.907 -0.2883  0.2396  0.1129
 7681TIP3    H144534   5.402   0.388  12.830 -0.2789  2.8076  1.4667
 7681TIP3    H244535   5.441   0.321  12.961 -0.4108  1.4186  0.8196
 7682TIP3   OH244536   5.185   6.376  12.489 -0.5451 -0.1678  0.5233
 7682TIP3    H144537   5.278   6.378  12.467 -0.4640 -2.7127  0.4033
 7682TIP3    H244538   5.149   6.453  12.445  1.5658  1.2308  1.0945
 7683TIP3   OH244539   2.792   5.982   3.445 -0.2530  0.2772 -0.5833
 7683TIP3    H144540   2.873   6.022   3.414 -0.0267  0.7293  0.5227
 7683TIP3    H244541   2.727   6.053   3.439  0.5130  1.5195  2.9769
 7684TIP3   OH244542   6.726   1.093   4.474 -0.2702  0.3901  0.5429
 7684TIP3    H144543   6.780   1.096   4.395 -0.9690 -1.2843 -0.0372
 7684TIP3    H244544   6.728   1.001   4.501 -1.3533  0.6421  1.5544
 7685TIP3   OH244545   0.107   5.901  14.872 -0.0241  0.6330 -0.2336
 7685TIP3    H144546   0.166   5.846  14.922 -0.7927 -1.3985 -1.4412
 7685TIP3    H244547   0.138   5.894  14.782 -0.9643  1.0635 -0.6074
 7686TIP3   OH244548   3.504   0.838   1.101 -0.1259  0.2596 -0.0546
 7686TIP3    H144549   3.511   0.879   1.015  1.1879  1.8580  0.7648
 7686TIP3    H244550   3.594   0.830   1.132 -0.2457 -3.3634 -0.1201
 7687TIP3   OH244551   4.111   1.883  11.988 -0.0020  0.5489 -0.1393
 7687TIP3    H144552   4.143   1.831  12.062 -1.6587 -1.3515 -0.6676
 7687TIP3    H244553   4.065   1.820  11.933 -0.7263  2.3282 -1.6664
 7688TIP3   OH244554   2.124   4.983   6.639  0.7569  0.3842 -0.0735
 7688TIP3    H144555   2.209   4.994   6.683  0.5096  0.9648  0.2725
 7688TIP3    H244556   2.094   4.897   6.667  0.9643  0.4232  0.2768
 7689TIP3   OH244557   5.661   0.097  14.360  0.3323  0.3178 -0.7471
 7689TIP3    H144558   5.614   0.072  14.280  0.1753  1.9259 -1.1893
 7689TIP3    H244559   5.650   0.022  14.418 -0.2812 -0.5377 -1.9166
 7690TIP3   OH244560   0.299   6.085  12.056  0.1219  0.0056 -0.0740
 7690TIP3    H144561   0.316   6.087  11.962 -0.5963 -1.5022 -0.2622
 7690TIP3    H244562   0.250   6.165  12.073  0.4512  0.4033 -0.9458
 7691TIP3   OH244563   3.250   0.444   4.248  0.5991 -0.4348 -0.4022
 7691TIP3    H144564   3.182   0.491   4.200  0.1201 -0.1282  0.5488
 7691TIP3    H244565   3.329   0.456   4.195  0.4926  1.4234 -0.2204
 7692TIP3   OH244566   6.541   2.883  15.614 -0.2888 -0.2302  0.3939
 7692TIP3    H144567   6.541   2.790  15.635  0.5420  0.1717  2.4513
 7692TIP3    H244568   6.613   2.894  15.553  0.1730 -0.8280  0.8140
 7693TIP3   OH244569   4.615   6.462   4.636 -0.0327 -0.0523  0.1974
 7693TIP3    H144570   4.689   6.490   4.582  0.1386 -0.9302 -0.0356
 7693TIP3    H244571   4.612   6.526   4.707  0.6997  0.2222 -0.0091
 7694TIP3   OH244572   0.635   5.144   2.368  0.0806 -0.6547 -0.2706
 7694TIP3    H144573   0.658   5.067   2.419  3.1243  0.4214  0.1488
 7694TIP3    H244574   0.717   5.192   2.358 -1.2354  1.3317 -2.5751
 7695TIP3   OH244575   2.538   4.980   2.394 -0.0281 -0.0742 -0.1323
 7695TIP3    H144576   2.507   4.993   2.483 -0.2276 -0.4369 -0.1486
 7695TIP3    H244577   2.633   4.972   2.403 -0.0914 -0.6339  0.1152
 7696TIP3   OH244578   6.135   3.279  17.075  0.3894  0.1663 -0.3892
 7696TIP3    H144579   6.139   3.210  17.009 -1.1044  0.0261 -0.3482
 7696TIP3    H244580   6.091   3.352  17.032  1.1802  0.8011 -0.1549
 7697TIP3   OH244581   0.969   6.212  14.109  0.0043 -0.3662 -0.8531
 7697TIP3    H144582   0.933   6.298  14.132 -1.4931 -0.5686 -2.2280
 7697TIP3    H244583   1.062   6.219  14.128  0.1604  2.0077 -2.1436
 7698TIP3   OH244584   0.626   1.542  14.317  0.5079  0.2922  0.4112
 7698TIP3    H144585   0.580   1.494  14.386  0.2767 -0.5928 -0.3292
 7698TIP3    H244586   0.715   1.507  14.319 -0.0458 -1.3661 -1.1414
 7699TIP3   OH244587   1.640   1.845  11.538 -0.7335 -0.1336 -0.4484
 7699TIP3    H144588   1.587   1.774  11.501 -0.5781 -1.1114  1.1269
 7699TIP3    H244589   1.630   1.836  11.632  1.0260  0.5895 -0.1481
 7700TIP3   OH244590   3.927   3.779  15.076  0.1730  0.0055  0.2616
 7700TIP3    H144591   3.921   3.806  15.168 -2.0296 -1.8697  0.7649
 7700TIP3    H244592   3.853   3.822  15.034 -0.7142 -1.5844  0.1163
 7701TIP3   OH244593   0.103   1.055   2.972 -0.0725 -0.1157 -0.3359
 7701TIP3    H144594   0.072   0.995   2.904  0.2641  0.8522 -1.3793
 7701TIP3    H244595   0.030   1.115   2.986 -0.4469 -0.7939  0.7792
 7702TIP3   OH244596   3.191   2.815  16.215 -0.1214 -0.1643  0.8913
 7702TIP3    H144597   3.167   2.833  16.124  0.2579  1.1947  1.0279
 7702TIP3    H244598   3.205   2.902  16.253 -0.0637 -0.7222  2.1913
 7703TIP3   OH244599   1.490   4.382  10.507 -0.0920 -0.3414 -0.2029
 7703TIP3    H144600   1.466   4.336  10.426  2.3381 -0.7560 -0.7673
 7703TIP3    H244601   1.582   4.361  10.520  0.5683  2.6331  0.7175
 7704TIP3   OH244602   5.646   5.101  16.908 -0.2773  0.6092  0.2171
 7704TIP3    H144603   5.639   5.053  16.991  0.1551  0.8230  0.3780
 7704TIP3    H244604   5.580   5.169  16.914 -1.3333 -0.3421 -0.2704
 7705TIP3   OH244605   4.821   1.721   2.285 -0.1729 -0.3954  0.1344
 7705TIP3    H144606   4.745   1.764   2.323 -0.0375 -1.6010  1.9199
 7705TIP3    H244607   4.784   1.654   2.228 -0.3985  0.6275 -0.9496
 7706TIP3   OH244608   2.345   1.672  13.230 -0.4010  0.7998 -0.2133
 7706TIP3    H144609   2.271   1.611  13.232  0.3884 -0.1661  0.9291
 7706TIP3    H244610   2.417   1.621  13.193 -0.2078  1.6298 -1.0043
 7707TIP3   OH244611   4.245   0.143   2.859 -0.2475 -0.5454  0.1884
 7707TIP3    H144612   4.213   0.137   2.948  0.3084 -0.1000  0.4223
 7707TIP3    H244613   4.318   0.205   2.863 -0.2885 -0.4327 -0.5912
 7708TIP3   OH244614   1.248   1.750  15.497  0.4979 -0.1261  0.3592
 7708TIP3    H144615   1.294   1.820  15.544  0.4515  1.1712 -1.4002
 7708TIP3    H244616   1.305   1.730  15.422 -0.0270 -1.1895  0.2269
 7709TIP3   OH244617   5.916   2.024  12.978 -0.1469 -0.1884 -0.1976
 7709TIP3    H144618   5.987   2.085  12.957  0.4114 -1.4597 -2.3267
 7709TIP3    H244619   5.953   1.937  12.963 -1.9174 -0.9249 -0.6406
 7710TIP3   OH244620   1.055   5.884  13.096  0.3490 -0.1431  0.1802
 7710TIP3    H144621   0.989   5.850  13.157  0.9355  0.3866  1.1291
 7710TIP3    H244622   1.068   5.975  13.123 -0.7408  0.7024 -1.9233
 7711TIP3   OH244623   0.996   6.220   3.451  0.5186  0.1132  0.4964
 7711TIP3    H144624   1.050   6.142   3.444  1.0785  0.5042  0.3999
 7711TIP3    H244625   1.058   6.291   3.470  0.4537  1.1079 -2.5693
 7712TIP3   OH244626   0.583   4.790  17.160 -0.4653 -0.5573 -0.0171
 7712TIP3    H144627   0.623   4.704  17.172 -0.9278 -0.5303  1.9594
 7712TIP3    H244628   0.648   4.840  17.111 -0.1194 -1.9536 -1.0562
 7713TIP3   OH244629   3.513   5.559  13.959 -0.1334  0.2751  0.0999
 7713TIP3    H144630   3.552   5.597  13.880 -1.3025 -0.8374 -1.0631
 7713TIP3    H244631   3.488   5.635  14.012  1.4312  1.0289 -0.1722
 7714TIP3   OH244632   0.645   0.521  13.968  0.0301 -0.0882  0.3293
 7714TIP3    H144633   0.652   0.615  13.952 -0.4452 -0.0049  0.5861
 7714TIP3    H244634   0.662   0.481  13.883  0.9758  0.1961  0.3794
 7715TIP3   OH244635   0.809   2.411  13.054  0.2875 -0.0397 -0.5857
 7715TIP3    H144636   0.761   2.454  12.983  0.6722  1.0638 -0.2111
 7715TIP3    H244637   0.887   2.466  13.066  0.9681 -1.0480 -0.2977
 7716TIP3   OH244638   6.480   6.700   2.288 -0.0487  0.0349  0.8000
 7716TIP3    H144639   6.542   6.760   2.331  0.5536 -0.9238  1.3317
 7716TIP3    H244640   6.442   6.650   2.361 -1.3459  0.5027  0.4592
 7717TIP3   OH244641   2.666   6.614   0.560  0.0603 -0.3814  0.2301
 7717TIP3    H144642   2.693   6.533   0.517  1.2745  0.8997 -1.5359
 7717TIP3    H244643   2.593   6.588   0.616  0.8925 -2.8158  0.3060
 7718TIP3   OH244644   3.232   5.673   3.762 -0.9129  0.1451  0.0880
 7718TIP3    H144645   3.323   5.646   3.772 -0.3721  1.8050 -0.0233
 7718TIP3    H244646   3.218   5.680   3.668 -2.0908 -2.9216 -0.0667
 7719TIP3   OH244647   2.634   2.441  11.346 -0.6174 -0.8473 -0.1447
 7719TIP3    H144648   2.611   2.530  11.320 -1.1178 -0.7070  0.7485
 7719TIP3    H244649   2.659   2.398  11.264 -0.5903  0.0420 -0.6156
 7720TIP3   OH244650   6.005   1.209   6.147  0.1704  0.2336 -0.1166
 7720TIP3    H144651   5.971   1.251   6.227  0.1730  0.5877 -0.2966
 7720TIP3    H244652   6.088   1.254   6.130  1.1945 -1.2308  0.8140
 7721TIP3   OH244653   5.705   2.191   5.648  0.4818 -0.4546  0.1292
 7721TIP3    H144654   5.689   2.097   5.661  0.7250 -0.7917 -1.7454
 7721TIP3    H244655   5.656   2.233   5.719 -0.6908 -1.9320  0.2654
 7722TIP3   OH244656   2.606   3.756  15.690  0.4486  0.3387  0.0834
 7722TIP3    H144657   2.611   3.815  15.765  1.0010  2.2539 -1.3685
 7722TIP3    H244658   2.629   3.811  15.615  0.9143 -1.7355 -1.3776
 7723TIP3   OH244659   4.337   1.390   6.171 -0.3067  0.4139 -0.2456
 7723TIP3    H144660   4.322   1.334   6.248  0.1288 -1.5008 -1.4926
 7723TIP3    H244661   4.393   1.460   6.203 -0.6389  0.0100  1.3166
 7724TIP3   OH244662   2.538   6.633  13.041  0.5908  0.2413 -0.5369
 7724TIP3    H144663   2.598   6.604  13.110  0.6887  0.5920 -0.4707
 7724TIP3    H244664   2.594   6.681  12.980  0.6711 -0.8684 -1.3562
 7725TIP3   OH244665   2.878   1.131  15.054 -0.5001  0.4497  0.0191
 7725TIP3    H144666   2.880   1.037  15.038  1.1809  0.5098 -0.3421
 7725TIP3    H244667   2.786   1.151  15.072 -0.6610 -1.5216  1.7689
 7726TIP3   OH244668   3.746   4.283   1.277 -0.4645 -0.1616  0.1077
 7726TIP3    H144669   3.829   4.286   1.231 -0.2866 -2.7337  0.1122
 7726TIP3    H244670   3.690   4.228   1.223 -1.7766  0.5082  0.7258
 7727TIP3   OH244671   3.161   6.290  16.579 -0.4670 -0.2777 -0.1178
 7727TIP3    H144672   3.180   6.327  16.665 -1.5219 -2.6342  1.2515
 7727TIP3    H244673   3.244   6.295  16.531  0.7630 -0.8576  1.8390
 7728TIP3   OH244674   5.149   5.029  10.353 -0.2883  0.4465  0.0007
 7728TIP3    H144675   5.226   5.031  10.410 -1.0489  3.0966  1.1095
 7728TIP3    H244676   5.149   4.942  10.314  2.6733  0.0169  0.7575
 7729TIP3   OH244677   2.522   3.327  10.852  0.0314  0.4938  0.3870
 7729TIP3    H144678   2.617   3.338  10.847  0.6151 -3.1415  0.6071
 7729TIP3    H244679   2.487   3.416  10.852  3.3391  1.9533 -0.9832
 7730TIP3   OH244680   0.096   6.519  11.009 -0.1830 -0.3884  0.1041
 7730TIP3    H144681   0.008   6.543  11.035  0.2427  0.4060  0.8694
 7730TIP3    H244682   0.103   6.547  10.917 -0.4756  0.2386  0.2734
 7731TIP3   OH244683   2.386   0.433   0.396  0.2981 -0.2672  0.1641
 7731TIP3    H144684   2.381   0.375   0.320  3.7060 -0.9819  0.3252
 7731TIP3    H244685   2.385   0.374   0.472  1.2968  0.0477  0.4394
 7732TIP3   OH244686   0.053   1.891   2.961  0.5728  0.6020 -0.0651
 7732TIP3    H144687   0.003   1.864   3.037  0.2051  1.9382  0.1859
 7732TIP3    H244688   0.131   1.934   2.997  1.3229 -0.3681 -0.4575
 7733TIP3   OH244689   2.578   0.430  12.398  0.7756 -0.2377 -0.3297
 7733TIP3    H144690   2.570   0.524  12.415 -1.6948 -0.1142 -1.7278
 7733TIP3    H244691   2.635   0.398  12.468  0.7062  2.1042  0.8985
 7734TIP3   OH244692   2.987   0.371   3.767  0.0450  0.0864 -0.6366
 7734TIP3    H144693   3.022   0.447   3.813 -0.1075 -0.2172  0.0081
 7734TIP3    H244694   3.021   0.296   3.816 -1.1732 -0.2254 -0.2181
 7735TIP3   OH244695   3.720   5.829   1.923 -0.2786 -0.2308 -0.5220
 7735TIP3    H144696   3.813   5.806   1.923 -0.3093 -0.3681 -0.1671
 7735TIP3    H244697   3.688   5.798   2.008 -0.8135 -0.8368 -0.9366
 7736TIP3   OH244698   6.531   0.243  10.898  0.4125  0.3679 -0.8865
 7736TIP3    H144699   6.565   0.237  10.809  1.8891  2.0122 -0.4776
 7736TIP3    H244700   6.463   0.176  10.902  1.0240 -0.4404 -2.9189
 7737TIP3   OH244701   2.754   5.123   0.347  0.0579  0.2267  0.3279
 7737TIP3    H144702   2.746   5.029   0.359  0.1483  0.1797  0.0301
 7737TIP3    H244703   2.786   5.134   0.258 -1.9506  0.6026 -0.4037
 7738TIP3   OH244704   0.925   0.760  16.252 -0.0186 -0.4277 -0.0340
 7738TIP3    H144705   0.979   0.794  16.180  0.6577  0.2533  0.7647
 7738TIP3    H244706   0.867   0.833  16.275  1.3501  0.2015  1.6066
 7739TIP3   OH244707   2.822   2.297   0.530 -0.9485 -0.9966 -0.2350
 7739TIP3    H144708   2.733   2.305   0.497 -0.9365  0.3876  0.0172
 7739TIP3    H244709   2.818   2.226   0.594 -1.8535 -1.0149 -0.3044
 7740TIP3   OH244710   1.471   3.827   4.039 -0.2670 -0.8538 -0.5968
 7740TIP3    H144711   1.529   3.873   4.100 -1.6440 -1.4576  1.2743
 7740TIP3    H244712   1.449   3.892   3.973  0.1676  0.2847  0.3295
 7741TIP3   OH244713   1.424   6.531   1.097 -0.4344 -0.5960 -0.0601
 7741TIP3    H144714   1.389   6.591   1.031 -2.1223 -1.3069  0.1311
 7741TIP3    H244715   1.347   6.483   1.128  0.7953 -2.5914  0.0561
 7742TIP3   OH244716   0.335   3.719   6.271  0.7773  0.1532  0.0349
 7742TIP3    H144717   0.313   3.811   6.254  0.2431 -0.2669 -1.6899
 7742TIP3    H244718   0.285   3.697   6.350 -0.2026  0.9550 -0.3402
 7743TIP3   OH244719   1.497   2.920  14.402  0.0125  0.7575  0.5352
 7743TIP3    H144720   1.455   2.837  14.377 -0.7124  1.6363 -1.3662
 7743TIP3    H244721   1.562   2.935  14.333  0.3917  1.6147  1.0662
 7744TIP3   OH244722   1.071   1.523   1.788  0.3567  0.2502  0.0602
 7744TIP3    H144723   1.000   1.460   1.798  0.5360 -0.0340 -0.4240
 7744TIP3    H244724   1.110   1.502   1.703  2.4107 -1.0383  1.2365
 7745TIP3   OH244725   6.075   4.743   0.275  0.2411  0.7998  0.7624
 7745TIP3    H144726   6.149   4.690   0.304 -0.4077 -0.0393  0.9269
 7745TIP3    H244727   6.108   4.833   0.275  1.1880  0.4632  1.0390
 7746TIP3   OH244728   6.675   4.375   6.262 -0.1048 -0.2393  0.1394
 7746TIP3    H144729   6.631   4.422   6.332 -2.5173  1.2579 -2.1784
 7746TIP3    H244730   6.626   4.293   6.253 -1.7425  0.8262 -1.5337
 7747TIP3   OH244731   1.345   4.598  10.266  0.1037  0.2981 -0.3821
 7747TIP3    H144732   1.290   4.674  10.280 -0.9915 -0.6333  0.5657
 7747TIP3    H244733   1.292   4.524  10.296  1.9386 -0.6190  0.7659
 7748TIP3   OH244734   0.579   2.218   5.944 -0.2821  0.0067  0.5108
 7748TIP3    H144735   0.655   2.165   5.966 -1.1392 -1.3741  0.2946
 7748TIP3    H244736   0.565   2.274   6.020  1.0187  0.3808  0.4846
 7749TIP3   OH244737   4.590   6.698  12.655  0.1781  0.3168 -0.0110
 7749TIP3    H144738   4.569   6.761  12.723 -0.3852 -1.8092  1.8996
 7749TIP3    H244739   4.505   6.664  12.626  0.4937 -0.0664 -0.5252
 7750TIP3   OH244740   6.219   6.567   4.728  0.2687 -0.4294 -0.1990
 7750TIP3    H144741   6.303   6.550   4.685 -0.3043 -0.0180 -1.5287
 7750TIP3    H244742   6.198   6.485   4.772  0.7289 -0.9718 -0.9578
 7751TIP3   OH244743   3.569   4.858  16.551 -0.1412 -0.1352 -0.3859
 7751TIP3    H144744   3.610   4.865  16.638  1.9419  0.3319 -1.3504
 7751TIP3    H244745   3.481   4.895  16.563  0.2475  0.3090  1.4193
 7752TIP3   OH244746   3.120   2.755  15.207  0.0822  0.1432  0.0701
 7752TIP3    H144747   3.204   2.787  15.241  1.1389 -0.5371 -1.7360
 7752TIP3    H244748   3.068   2.834  15.194  0.8269  0.6796  0.2681
 7753TIP3   OH244749   5.503   5.190  13.099 -0.4839  0.0847 -0.1215
 7753TIP3    H144750   5.431   5.173  13.160  0.2807 -0.3870  0.6853
 7753TIP3    H244751   5.581   5.187  13.154  0.4708 -2.5695 -1.4524
 7754TIP3   OH244752   1.170   1.879   4.964  0.4530 -0.2383  0.3394
 7754TIP3    H144753   1.239   1.945   4.961 -0.7180  0.9962 -0.2147
 7754TIP3    H244754   1.167   1.852   5.056 -0.1134  1.6646  0.9271
 7755TIP3   OH244755   6.086   1.401   2.390 -0.1004  0.0470 -0.6927
 7755TIP3    H144756   6.078   1.495   2.375  0.7211  0.0331 -1.2809
 7755TIP3    H244757   6.092   1.363   2.302 -2.3303 -0.7663 -0.5636
 7756TIP3   OH244758   3.212   5.591  15.993 -0.1732  0.2144 -0.5776
 7756TIP3    H144759   3.296   5.603  16.036 -0.7107  0.2056  0.5106
 7756TIP3    H244760   3.230   5.529  15.922  0.2209 -2.0508  1.3739
 7757TIP3   OH244761   6.600   4.758   4.158  0.2228  0.5661 -0.1848
 7757TIP3    H144762   6.590   4.827   4.093 -0.5569  2.2348  1.6080
 7757TIP3    H244763   6.592   4.803   4.243  1.1332 -1.5076  1.0862
 7758TIP3   OH244764   3.224   5.570   4.813  0.9450  0.2332 -0.0882
 7758TIP3    H144765   3.308   5.532   4.790  0.0956 -2.3605  0.7882
 7758TIP3    H244766   3.170   5.560   4.735  1.0046  0.5391 -0.1702
 7759TIP3   OH244767   5.226   6.134  13.615 -0.6288  0.6128 -0.2215
 7759TIP3    H144768   5.301   6.192  13.602 -0.5468  0.9257  1.4392
 7759TIP3    H244769   5.183   6.168  13.693 -2.3450  0.2618 -0.9660
 7760TIP3   OH244770   1.163   5.565  12.728  0.4017  0.3165  0.0458
 7760TIP3    H144771   1.188   5.499  12.791 -0.1278 -0.7395 -0.8202
 7760TIP3    H244772   1.070   5.548  12.711  0.0703  1.7123  0.3067
 7761TIP3   OH244773   1.652   4.089  10.421  0.0853 -0.1426  0.2208
 7761TIP3    H144774   1.690   4.155  10.479 -4.0839  2.4467  0.4374
 7761TIP3    H244775   1.676   4.118  10.333 -0.0466  0.5234  0.3974
 7762TIP3   OH244776   3.484   3.553  14.824 -0.1548  0.1165 -0.4322
 7762TIP3    H144777   3.408   3.597  14.860 -0.5795 -0.8447 -0.1282
 7762TIP3    H244778   3.538   3.532  14.900  0.2899  0.5432 -0.6206
 7763TIP3   OH244779   3.668   5.468  12.785 -0.3209  0.4549  0.0264
 7763TIP3    H144780   3.682   5.480  12.879  1.5658  0.0396 -0.1525
 7763TIP3    H244781   3.753   5.439  12.752 -1.6225 -2.0736 -1.3932
 7764TIP3   OH244782   3.068   0.628  12.881  0.0395 -0.3899  0.4150
 7764TIP3    H144783   3.114   0.616  12.964 -1.9287 -1.1276  1.4506
 7764TIP3    H244784   3.049   0.721  12.877  0.0362 -0.3689  0.8552
 7765TIP3   OH244785   1.979   5.588   3.617 -0.4927 -0.3579 -0.2339
 7765TIP3    H144786   2.057   5.533   3.611 -0.4194 -0.5544  1.7673
 7765TIP3    H244787   1.985   5.646   3.541  0.9604 -1.1699 -0.7849
 7766TIP3   OH244788   3.859   1.331   0.277 -0.3935  0.5901 -0.0251
 7766TIP3    H144789   3.828   1.418   0.250 -0.2079  0.0686 -2.0627
 7766TIP3    H244790   3.916   1.302   0.206  0.6289 -0.6643  1.2434
 7767TIP3   OH244791   1.964   5.694  14.276 -0.1697  0.3578  0.5646
 7767TIP3    H144792   1.873   5.663  14.266 -0.6286  0.8854  2.6889
 7767TIP3    H244793   1.959   5.788  14.260  0.2154  0.2412 -0.3131
 7768TIP3   OH244794   1.341   0.462   0.233  0.5303  0.2095  0.4928
 7768TIP3    H144795   1.370   0.553   0.232  0.6903  0.1859  1.6588
 7768TIP3    H244796   1.405   0.418   0.290  0.9813 -0.8181 -0.7708
 7769TIP3   OH244797   5.336   0.820  16.052 -0.7621  0.0461 -0.6462
 7769TIP3    H144798   5.251   0.787  16.082  1.2551 -6.6661 -0.8305
 7769TIP3    H244799   5.391   0.816  16.130  0.6743 -1.6054 -1.6876
 7770TIP3   OH244800   1.910   1.132  12.115 -0.3377 -0.1216  0.5646
 7770TIP3    H144801   1.824   1.095  12.135 -0.8517  1.3612  1.2592
 7770TIP3    H244802   1.928   1.191  12.188  1.3871 -0.5688  0.5441
 7771TIP3   OH244803   4.792   0.318  14.092  0.1279  0.1691  0.4998
 7771TIP3    H144804   4.801   0.357  14.179  1.1930  0.9507  0.0573
 7771TIP3    H244805   4.802   0.391  14.032 -1.0355 -0.2894 -0.2931
 7772TIP3   OH244806   4.348   4.536  15.431  0.0643 -0.5409 -0.0834
 7772TIP3    H144807   4.385   4.607  15.379 -0.6266 -1.5043 -1.9673
 7772TIP3    H244808   4.253   4.546  15.421 -0.3525  1.0011  3.4735
 7773TIP3   OH244809   3.892   3.899  16.676 -0.2250 -0.1887 -0.4608
 7773TIP3    H144810   3.878   3.892  16.770 -1.2466  1.1969 -0.4877
 7773TIP3    H244811   3.980   3.936  16.667 -0.1878 -0.1799 -0.0574
 7774TIP3   OH244812   4.454   2.996  17.000  0.1978 -0.0534  0.4374
 7774TIP3    H144813   4.428   2.944  16.924  1.1201  0.3592 -0.1791
 7774TIP3    H244814   4.371   3.021  17.041 -0.2812 -1.9457  0.7226
 7775TIP3   OH244815   1.599   0.973   4.456 -0.4743  0.0535 -0.1400
 7775TIP3    H144816   1.664   0.904   4.444 -0.6123 -0.1577  0.2828
 7775TIP3    H244817   1.650   1.055   4.455 -0.4982  0.0817 -2.2232
 7776TIP3   OH244818   2.342   2.749   2.547  0.2000  0.0648  0.8206
 7776TIP3    H144819   2.393   2.669   2.538  0.4515  0.2272  0.8098
 7776TIP3    H244820   2.270   2.738   2.484  1.3429  0.7247 -0.6805
 7777TIP3   OH244821   6.014   2.547  15.169 -0.5727  0.3468  0.2870
 7777TIP3    H144822   6.071   2.560  15.093  0.3586 -1.2297  0.6691
 7777TIP3    H244823   5.941   2.497  15.135  0.6291 -1.7944  0.6682
 7778TIP3   OH244824   4.726   2.686  12.032  0.1323  0.0163 -0.2370
 7778TIP3    H144825   4.774   2.683  12.115  1.0601 -1.7874 -0.7924
 7778TIP3    H244826   4.761   2.763  11.988 -0.9126  1.4627  1.2930
 7779TIP3   OH244827   0.525   1.012  11.268 -0.1698 -0.1674  0.1496
 7779TIP3    H144828   0.563   0.991  11.353 -0.4789 -3.8959 -0.4906
 7779TIP3    H244829   0.431   1.019  11.285 -0.0828  0.7031  0.3329
 7780TIP3   OH244830   5.671   3.838  15.154 -0.7347 -0.6931 -0.2452
 7780TIP3    H144831   5.749   3.885  15.126 -0.2670 -0.1583  1.8554
 7780TIP3    H244832   5.667   3.761  15.096  0.5878 -0.0493 -1.2287
 7781TIP3   OH244833   4.954   3.379  14.415 -0.2367  0.5112 -0.4698
 7781TIP3    H144834   5.006   3.352  14.491 -2.0222 -0.6859  0.3718
 7781TIP3    H244835   5.004   3.348  14.339  0.1083 -0.9565  0.3312
 7782TIP3   OH244836   2.141   5.875  13.032 -0.1004 -0.4859  0.0339
 7782TIP3    H144837   2.192   5.794  13.037  0.6343 -0.1479 -1.3395
 7782TIP3    H244838   2.072   5.855  12.968  1.0615  0.4161 -1.5884
 7783TIP3   OH244839   4.708   3.689   4.086  0.4012 -0.0826  0.2766
 7783TIP3    H144840   4.628   3.653   4.048 -0.2229  2.1454 -0.6356
 7783TIP3    H244841   4.712   3.649   4.173 -1.2367 -0.8890  0.0276
 7784TIP3   OH244842   2.135   0.419  14.743  0.3362 -0.0513  0.1315
 7784TIP3    H144843   2.080   0.495  14.719  0.9863  0.2208 -0.5332
 7784TIP3    H244844   2.112   0.352  14.679  1.9215  0.6044 -1.1915
 7785TIP3   OH244845   1.044   3.052  15.219  0.7043  0.7628 -0.4946
 7785TIP3    H144846   0.960   3.025  15.257 -0.5409  2.0889 -2.1408
 7785TIP3    H244847   1.087   3.101  15.289  0.1632 -0.0390  0.4202
 7786TIP3   OH244848   6.586   4.986  13.953  0.0349 -0.4614  0.4030
 7786TIP3    H144849   6.632   4.955  14.031 -1.4288 -1.5336  0.8851
 7786TIP3    H244850   6.639   4.955  13.880  0.5741 -0.8586  0.9563
 7787TIP3   OH244851   3.576   4.993   5.990  0.3515 -0.0742  0.3568
 7787TIP3    H144852   3.503   5.054   5.989 -1.4887 -2.1509  0.9911
 7787TIP3    H244853   3.615   5.003   6.077 -0.2857 -0.1489  0.6577
 7788TIP3   OH244854   5.129   4.397   0.587  0.2428  0.3167  0.1827
 7788TIP3    H144855   5.150   4.417   0.678 -1.3703  1.6704  0.2990
 7788TIP3    H244856   5.101   4.480   0.549  0.9405 -0.2063 -1.5881
 7789TIP3   OH244857   6.767   1.585   4.761  0.2114  0.1067  0.7627
 7789TIP3    H144858   6.799   1.520   4.824 -0.9639 -0.1811  1.0988
 7789TIP3    H244859   6.846   1.622   4.722  0.9475 -2.0527  0.0172
 7790TIP3   OH244860   4.523   4.299   3.141 -0.1457  0.2028  0.4306
 7790TIP3    H144861   4.429   4.293   3.162 -0.1555 -1.6427  0.0468
 7790TIP3    H244862   4.525   4.322   3.049 -0.2533 -0.3832  0.2750
 7791TIP3   OH244863   0.804   4.067  12.775 -0.4206  0.0986  0.7658
 7791TIP3    H144864   0.814   4.060  12.870 -1.6112 -0.4318  0.8674
 7791TIP3    H244865   0.864   4.137  12.750  0.0111  0.1499  1.8929
 7792TIP3   OH244866   0.317   4.461   2.942  0.4424  0.1673 -0.6581
 7792TIP3    H144867   0.395   4.471   2.888 -0.4801 -0.2775 -2.1502
 7792TIP3    H244868   0.296   4.368   2.937 -0.9608  0.4934 -1.4789
 7793TIP3   OH244869   0.655   0.443   3.133  0.6923 -0.1014 -0.0307
 7793TIP3    H144870   0.603   0.368   3.103  0.3068 -0.2401  0.9680
 7793TIP3    H244871   0.731   0.443   3.075 -0.7083  0.5136 -2.0007
 7794TIP3   OH244872   2.287   2.505   4.927  0.5481  0.5432  0.1746
 7794TIP3    H144873   2.370   2.485   4.970 -0.3178 -0.3065  1.5343
 7794TIP3    H244874   2.252   2.420   4.901 -0.3069  0.7978  0.4524
 7795TIP3   OH244875   5.180   3.402   1.578  0.4694 -0.2439  0.1826
 7795TIP3    H144876   5.264   3.444   1.594 -0.4204  1.8999 -0.4970
 7795TIP3    H244877   5.161   3.356   1.660  0.7943  1.9629  1.5803
 7796TIP3   OH244878   0.332   6.534   1.608 -0.1344 -0.3230 -0.2075
 7796TIP3    H144879   0.357   6.522   1.516 -0.9353 -0.0048 -0.4725
 7796TIP3    H244880   0.240   6.510   1.611 -0.4169  0.7695  0.2807
 7797TIP3   OH244881   5.641   4.657  11.953 -0.1740  0.2930 -0.0554
 7797TIP3    H144882   5.717   4.600  11.949 -1.2860 -1.3204  0.4492
 7797TIP3    H244883   5.671   4.741  11.919  1.5521 -0.5733 -0.7769
 7798TIP3   OH244884   0.734   4.897   2.501  0.0595 -0.2105  0.8018
 7798TIP3    H144885   0.777   4.946   2.431  0.9991 -1.7362  0.2473
 7798TIP3    H244886   0.791   4.909   2.577  0.4754 -0.6870  0.5743
 7799TIP3   OH244887   2.338   1.866   0.887 -0.7342  0.1586  0.3570
 7799TIP3    H144888   2.316   1.945   0.839 -0.9248  0.7321  1.3633
 7799TIP3    H244889   2.259   1.844   0.936  0.0555  0.7594  1.9824
 7800TIP3   OH244890   6.672   5.679  14.518  0.5958  0.3615  0.1027
 7800TIP3    H144891   6.681   5.773  14.504  0.3424  0.1306 -2.0833
 7800TIP3    H244892   6.602   5.653  14.458  0.0338 -1.1040  1.3236
 7801TIP3   OH244893   2.437   5.011   0.251  0.2630 -0.2365 -0.4150
 7801TIP3    H144894   2.382   4.982   0.179 -1.9860  2.1612  0.1847
 7801TIP3    H244895   2.446   4.934   0.308 -2.5716 -0.7518 -0.5408
 7802TIP3   OH244896   1.236   2.979  16.899 -0.3806  0.0327 -0.2799
 7802TIP3    H144897   1.178   3.006  16.827  1.1735  0.0240 -1.6078
 7802TIP3    H244898   1.237   3.054  16.958 -2.4050 -0.3032  0.2635
 7803TIP3   OH244899   5.505   4.610  11.599 -0.9574 -0.3619 -0.0708
 7803TIP3    H144900   5.480   4.693  11.639 -0.1858  0.8045 -1.8674
 7803TIP3    H244901   5.584   4.630  11.549  1.5083 -3.0306  2.3817
 7804TIP3   OH244902   2.542   3.407   4.278  0.2908  0.1290 -0.4214
 7804TIP3    H144903   2.627   3.441   4.306  0.0712  0.4946 -0.1896
 7804TIP3    H244904   2.478   3.467   4.317 -0.1689 -1.1825  0.9407
 7805TIP3   OH244905   4.191   1.844  14.764  0.2072 -0.4150  0.1137
 7805TIP3    H144906   4.205   1.811  14.852 -0.4300 -0.1466  0.3203
 7805TIP3    H244907   4.226   1.775  14.707 -1.2305 -1.5380  0.5358
 7806TIP3   OH244908   3.025   1.665   4.468 -0.0328  0.7533  0.2899
 7806TIP3    H144909   2.939   1.705   4.453 -0.9395 -1.2864 -0.2685
 7806TIP3    H244910   3.041   1.613   4.389  0.5062 -0.9472  1.4623
 7807TIP3   OH244911   3.411   0.519   3.247  0.5968 -0.0237  0.2418
 7807TIP3    H144912   3.436   0.520   3.155 -0.1942  0.4924  0.0170
 7807TIP3    H244913   3.434   0.432   3.278 -1.1477 -0.9989 -1.0299
 7808TIP3   OH244914   5.476   5.761   6.169 -0.1811  0.7294  0.2144
 7808TIP3    H144915   5.436   5.838   6.210 -1.0582 -0.5183  1.8428
 7808TIP3    H244916   5.417   5.689   6.191  1.8848 -0.8489  0.9314
 7809TIP3   OH244917   3.171   0.164   5.977 -0.5111 -0.4329  0.0670
 7809TIP3    H144918   3.123   0.240   6.009 -1.5622 -0.2953 -1.6612
 7809TIP3    H244919   3.237   0.147   6.043 -0.0956  2.1211  0.4034
 7810TIP3   OH244920   0.842   2.279  15.104 -0.6104 -0.2098  0.1950
 7810TIP3    H144921   0.874   2.334  15.032 -1.3230  1.0138  0.7739
 7810TIP3    H244922   0.826   2.341  15.175 -2.1718 -1.0569  0.6267
 7811TIP3   OH244923   1.215   2.729  14.107  0.0354  0.2534  0.3202
 7811TIP3    H144924   1.163   2.666  14.057  1.6038  0.6758 -2.0350
 7811TIP3    H244925   1.196   2.709  14.199 -2.0129 -1.4524 -0.3908
 7812TIP3   OH244926   2.332   1.715  17.167 -0.7552 -0.7529  0.1304
 7812TIP3    H144927   2.359   1.637  17.120 -2.3354 -0.4121 -1.4568
 7812TIP3    H244928   2.391   1.784  17.137 -1.3462 -0.6795 -0.9085
 7813TIP3   OH244929   2.522   4.098   6.132  0.1129  0.5511 -0.4067
 7813TIP3    H144930   2.523   4.015   6.179 -1.1483  0.8988  0.2820
 7813TIP3    H244931   2.593   4.091   6.069  0.0802 -1.0148 -0.3039
 7814TIP3   OH244932   4.773   3.147   4.009 -0.2735 -0.1852  0.0168
 7814TIP3    H144933   4.829   3.199   3.951  0.2944  0.9909  1.5674
 7814TIP3    H244934   4.791   3.056   3.985  1.9829  0.1780  0.1625
 7815TIP3   OH244935   2.291   3.912   5.553  0.4783  0.4873  0.2292
 7815TIP3    H144936   2.330   3.828   5.574 -0.7539  0.1307  1.2017
 7815TIP3    H244937   2.229   3.893   5.482 -0.5670  0.3431  1.1472
 7816TIP3   OH244938   3.286   3.887   4.285  0.4189  0.2943  0.3844
 7816TIP3    H144939   3.380   3.871   4.292  0.3595 -0.4024 -0.3098
 7816TIP3    H244940   3.251   3.862   4.371  0.6476 -1.0862  0.0920
 7817TIP3   OH244941   1.190   0.271   0.460 -0.6134  0.1445  0.1367
 7817TIP3    H144942   1.267   0.325   0.477  0.0360 -0.6432 -0.3002
 7817TIP3    H244943   1.224   0.186   0.433 -1.5969  0.3416 -1.9506
 7818TIP3   OH244944   1.303   3.546   0.264 -0.6813  0.3190 -0.3570
 7818TIP3    H144945   1.396   3.554   0.245 -0.5023  0.5908  0.5686
 7818TIP3    H244946   1.277   3.635   0.289 -0.6492 -0.1955  1.6535
 7819TIP3   OH244947   0.661   1.407   4.069 -1.1039 -0.3710  0.0255
 7819TIP3    H144948   0.681   1.423   3.977 -1.0168  1.5318  0.3456
 7819TIP3    H244949   0.667   1.312   4.078  1.3356 -0.4318 -1.3688
 7820TIP3   OH244950   1.280   1.308  14.786 -0.4634 -0.0006  0.4520
 7820TIP3    H144951   1.305   1.299  14.694 -0.4521 -0.2952  0.4824
 7820TIP3    H244952   1.286   1.402  14.804 -3.6184  0.5429 -0.7447
 7821TIP3   OH244953   1.552   0.165  12.682  0.2155 -0.5494  0.3084
 7821TIP3    H144954   1.624   0.220  12.651  1.2172 -2.0485 -0.1380
 7821TIP3    H244955   1.542   0.187  12.775  0.7521  0.1991  0.1894
 7822TIP3   OH244956   5.704   4.169  13.919  0.8608  0.0475  0.5770
 7822TIP3    H144957   5.661   4.150  13.836 -0.8660  0.7367  1.2701
 7822TIP3    H244958   5.672   4.101  13.978 -0.5552  1.4531  1.5019
 7823TIP3   OH244959   5.287   2.491   3.400  0.5355  0.1981 -0.7799
 7823TIP3    H144960   5.378   2.497   3.372  0.9764 -1.0908  0.2714
 7823TIP3    H244961   5.289   2.511   3.494 -0.4988  1.6769 -1.0387
 7824TIP3   OH244962   0.440   6.383   2.181 -0.1562  0.3093  0.2681
 7824TIP3    H144963   0.489   6.313   2.138 -1.4358 -0.2182 -0.4109
 7824TIP3    H244964   0.457   6.371   2.274  1.5582  0.6082  0.0259
 7825TIP3   OH244965   0.083   4.441   6.327 -0.1404  0.3307  0.1815
 7825TIP3    H144966   0.004   4.392   6.305  0.1674 -0.8579  1.5768
 7825TIP3    H244967   0.065   4.479   6.413 -0.0772  2.0708 -0.5350
 7826TIP3   OH244968   2.095   1.307   1.668 -0.6105 -0.0536  0.1471
 7826TIP3    H144969   2.155   1.342   1.734 -1.2634  2.2558 -0.3911
 7826TIP3    H244970   2.148   1.245   1.618  1.0590  1.1066  0.3766
 7827TIP3   OH244971   2.210   1.724   1.919  0.2832  0.0735  0.0220
 7827TIP3    H144972   2.131   1.698   1.966 -1.1456  0.2468 -2.1487
 7827TIP3    H244973   2.179   1.749   1.832  2.9080 -1.3761 -1.4452
 7828TIP3   OH244974   4.260   5.935  12.887 -0.1166  0.0213 -0.0950
 7828TIP3    H144975   4.321   5.880  12.936  0.9885  0.5926 -0.7623
 7828TIP3    H244976   4.219   5.875  12.824 -0.0553 -0.3239  0.1907
 7829TIP3   OH244977   4.950   1.948   5.933  0.0698 -0.6416 -0.0769
 7829TIP3    H144978   4.898   1.926   6.010  0.3786  2.4571  1.1977
 7829TIP3    H244979   5.028   1.991   5.969  0.6782  0.0560 -2.0922
 7830TIP3   OH244980   3.257   4.851  12.779  0.9188  0.1964 -0.0997
 7830TIP3    H144981   3.264   4.756  12.766  1.5965  0.1749  0.3948
 7830TIP3    H244982   3.224   4.862  12.868 -1.5214  0.3973 -0.9585
 7831TIP3   OH244983   0.643   3.988   5.858  0.1450  0.0324 -0.3820
 7831TIP3    H144984   0.641   3.906   5.809  0.9903 -0.6169  0.6420
 7831TIP3    H244985   0.561   4.031   5.836  0.1251 -0.6282 -1.6980
 7832TIP3   OH244986   6.497   6.796  16.394  0.5025 -0.2259  0.0109
 7832TIP3    H144987   6.438   6.721  16.383  0.8340 -0.3220 -1.3646
 7832TIP3    H244988   6.556   6.791  16.319 -0.0285  1.9112 -0.6310
 7833TIP3   OH244989   3.258   3.782  15.673  0.2105  0.1891 -0.1371
 7833TIP3    H144990   3.204   3.851  15.712  1.6951  1.5608 -0.3585
 7833TIP3    H244991   3.337   3.828  15.645  0.4325 -1.2870 -2.0894
 7834TIP3   OH244992   2.938   5.933  15.160 -0.4461  0.4521  0.8896
 7834TIP3    H144993   2.987   5.944  15.241  2.3124  0.3026 -0.6321
 7834TIP3    H244994   2.908   6.022  15.138  0.5860  0.8595  1.0613
 7835TIP3   OH244995   1.895   1.445   4.248  0.3715 -0.0040 -0.2442
 7835TIP3    H144996   1.973   1.436   4.194  1.1545  0.6121  0.7534
 7835TIP3    H244997   1.822   1.443   4.186  1.2827  1.8845 -1.4505
 7836TIP3   OH244998   4.641   0.332   0.294  0.0546 -0.4140  0.0352
 7836TIP3    H144999   4.630   0.246   0.336  1.2159 -0.9454 -0.7115
 7836TIP3    H245000   4.702   0.316   0.222 -0.9662  0.7321 -1.1207
 7837TIP3   OH245001   0.915   1.160   1.372  0.6154  0.2041 -0.0504
 7837TIP3    H145002   0.890   1.089   1.431  1.4718  0.5199  0.7164
 7837TIP3    H245003   1.007   1.176   1.392  1.0543  0.0374 -1.7850
 7838TIP3   OH245004   0.941   2.719  11.739  0.0342  1.1654 -0.3626
 7838TIP3    H145005   0.966   2.768  11.661 -0.4923  0.5718 -0.9240
 7838TIP3    H245006   0.857   2.756  11.765  0.1368  1.2610 -0.1610
 7839TIP3   OH245007   2.505   2.388  14.215 -0.3123 -0.2367 -0.3257
 7839TIP3    H145008   2.569   2.337  14.166 -0.9786 -2.3122  0.8341
 7839TIP3    H245009   2.553   2.467  14.243  0.6446  0.0138 -2.4818
 7840TIP3   OH245010   0.682   6.266  16.037  0.3686 -0.1044  0.6363
 7840TIP3    H145011   0.612   6.323  16.068  0.8847 -0.2968  2.2865
 7840TIP3    H245012   0.642   6.179  16.031  0.8854 -0.6703  3.6993
 7841TIP3   OH245013   0.607   2.134  15.495 -0.5416 -0.1179 -0.5852
 7841TIP3    H145014   0.649   2.135  15.409  2.1625 -1.4075  0.6041
 7841TIP3    H245015   0.617   2.223  15.528 -0.1099 -0.0153 -0.9822
 7842TIP3   OH245016   1.870   0.810  14.730 -0.8816  0.5051  0.3567
 7842TIP3    H145017   1.805   0.748  14.762  0.4122 -1.1160 -0.0104
 7842TIP3    H245018   1.897   0.859  14.808 -1.7043  0.4137  0.7081
 7843TIP3   OH245019   1.057   2.147   5.780 -0.0188  0.2407 -0.1884
 7843TIP3    H145020   1.098   2.062   5.796 -0.0566  0.4082  0.8900
 7843TIP3    H245021   1.130   2.207   5.768  0.0463  0.3127  0.5064
 7844TIP3   OH245022   4.164   4.981  15.319 -0.0316 -0.3321  0.4695
 7844TIP3    H145023   4.202   5.016  15.239 -0.2301  0.5652  0.7540
 7844TIP3    H245024   4.106   4.911  15.290  1.4504 -1.4118 -0.0032
 7845TIP3   OH245025   5.574   6.500  13.495 -0.0673  0.1114  0.1478
 7845TIP3    H145026   5.556   6.528  13.405  0.5931  0.7662  0.2064
 7845TIP3    H245027   5.666   6.521  13.508 -0.4270  1.0105  1.3433
 7846TIP3   OH245028   2.637   3.618   6.220  0.4560  0.2862 -0.4316
 7846TIP3    H145029   2.728   3.608   6.247  1.0855 -3.9212 -3.1471
 7846TIP3    H245030   2.587   3.563   6.280  0.1558  0.2324 -0.7232
 7847TIP3   OH245031   2.271   0.286   3.994  0.1650  0.5358  0.2989
 7847TIP3    H145032   2.195   0.308   4.047  0.8370  1.5052  0.8927
 7847TIP3    H245033   2.344   0.329   4.038  1.0622 -0.3575 -0.2669
 7848TIP3   OH245034   3.477   3.864  13.121  0.2624  0.6728  0.2380
 7848TIP3    H145035   3.395   3.910  13.136 -0.0013  0.2937 -0.0298
 7848TIP3    H245036   3.468   3.827  13.033  0.5380  0.2427  0.3894
 7849TIP3   OH245037   3.227   6.073   5.906  0.4814 -0.7076  0.4509
 7849TIP3    H145038   3.187   6.082   5.992  0.5653  0.1136  0.4091
 7849TIP3    H245039   3.155   6.089   5.845  0.6363 -0.2871  0.3744
 7850TIP3   OH245040   2.881   5.194   5.784 -0.2862  0.3899  0.2938
 7850TIP3    H145041   2.893   5.288   5.766  0.4567  0.5294  1.3725
 7850TIP3    H245042   2.827   5.192   5.863 -2.1168 -0.1496 -0.9336
 7851TIP3   OH245043   0.147   6.229  16.951  0.2240  0.3084  0.2105
 7851TIP3    H145044   0.217   6.176  16.988  0.6940  0.5388 -0.3346
 7851TIP3    H245045   0.076   6.167  16.934  1.0289 -0.2952 -1.1048
 7852TIP3   OH245046   4.102   4.613  11.970 -0.2389  0.0744  0.1332
 7852TIP3    H145047   4.172   4.650  11.915  1.3706 -0.4959  1.6779
 7852TIP3    H245048   4.101   4.520  11.947  1.8992 -0.6246  2.3526
 7853TIP3   OH245049   3.359   6.311   1.889 -0.6536 -0.0502  0.2927
 7853TIP3    H145050   3.360   6.363   1.808 -0.0240  0.2123  0.4630
 7853TIP3    H245051   3.347   6.221   1.860 -0.6608  0.0694 -0.0791
 7854TIP3   OH245052   2.438   6.552  13.707 -0.1432 -0.4147 -0.0201
 7854TIP3    H145053   2.489   6.627  13.738  1.2792 -0.6668 -1.5390
 7854TIP3    H245054   2.475   6.533  13.620 -1.9327 -1.5181 -0.5966
 7855TIP3   OH245055   4.925   1.023  16.254  0.1546  0.0662 -0.1046
 7855TIP3    H145056   4.974   0.982  16.325 -1.4973 -3.0234 -0.5666
 7855TIP3    H245057   4.947   1.116  16.259  0.1618 -0.0024  4.3547
 7856TIP3   OH245058   6.785   6.534  12.488 -0.0420 -0.4026 -0.3979
 7856TIP3    H145059   6.752   6.614  12.445  0.1016  0.2272  0.6325
 7856TIP3    H245060   6.725   6.465  12.458 -1.6875  0.5314  0.5865
 7857TIP3   OH245061   5.024   6.396  11.553  0.2713  0.0965  0.4410
 7857TIP3    H145062   4.962   6.464  11.525  0.0077  0.0151  0.8265
 7857TIP3    H245063   5.024   6.401  11.648  1.1288  0.3318  0.4349
 7858TIP3   OH245064   1.404   0.976   4.729 -0.3430  0.1958 -0.3093
 7858TIP3    H145065   1.422   0.887   4.700 -2.4497 -0.8560  1.3456
 7858TIP3    H245066   1.319   0.971   4.772  0.0271  2.7744  0.9308
 7859TIP3   OH245067   4.246   2.757   5.651  0.1926 -0.1657  0.1598
 7859TIP3    H145068   4.280   2.697   5.717 -0.6960 -3.4507 -2.1147
 7859TIP3    H245069   4.152   2.762   5.669  0.0607 -0.5229 -0.3939
 7860TIP3   OH245070   2.331   1.897   1.363 -0.1353  0.0600 -0.0875
 7860TIP3    H145071   2.329   1.926   1.272  0.0098  0.8592  0.1555
 7860TIP3    H245072   2.309   1.804   1.359  0.2680 -0.0061 -0.9732
 7861TIP3   OH245073   1.151   0.188  15.135  0.9639  0.3572 -1.0455
 7861TIP3    H145074   1.230   0.242  15.130  0.3689  1.3194 -0.5736
 7861TIP3    H245075   1.143   0.166  15.228  1.2397 -0.6309 -1.2455
 7862TIP3   OH245076   5.051   6.465  12.219  0.6304  0.0022 -0.1781
 7862TIP3    H145077   5.054   6.512  12.302 -0.8150  0.4067 -0.3411
 7862TIP3    H245078   5.142   6.438  12.204  0.7393 -1.2530  2.1960
 7863TIP3   OH245079   1.201   4.928  15.508 -0.5922 -0.0924 -0.7555
 7863TIP3    H145080   1.283   4.927  15.558 -1.4738  2.5214  0.9915
 7863TIP3    H245081   1.228   4.914  15.417  1.7393  0.0837 -0.1544
 7864TIP3   OH245082   4.331   2.950  16.328 -0.1702  0.3590 -0.6342
 7864TIP3    H145083   4.421   2.980  16.316  0.1045  0.0608  0.5076
 7864TIP3    H245084   4.281   2.998  16.263  0.9701 -0.3294 -2.0741
 7865TIP3   OH245085   6.523   6.115   0.447 -0.5353  0.0124 -0.1540
 7865TIP3    H145086   6.491   6.027   0.428  1.2560 -1.4700  2.8870
 7865TIP3    H245087   6.609   6.119   0.405 -0.4650  0.1386 -0.0016
 7866TIP3   OH245088   1.673   1.455   2.069  0.0898 -0.2154  0.4781
 7866TIP3    H145089   1.673   1.360   2.065 -1.1459 -0.1884 -2.2957
 7866TIP3    H245090   1.653   1.483   1.980  1.2854  2.6727  0.9975
 7867TIP3   OH245091   4.954   3.553   2.815 -0.5876 -0.7613  0.3202
 7867TIP3    H145092   4.970   3.458   2.814  1.9792 -0.4239  0.8515
 7867TIP3    H245093   4.962   3.577   2.907 -2.0847 -0.1079  0.3051
 7868TIP3   OH245094   5.666   0.897   0.526  0.4804 -0.4753  0.5282
 7868TIP3    H145095   5.615   0.972   0.496 -0.7446 -2.2959 -2.3640
 7868TIP3    H245096   5.686   0.916   0.618 -1.1785  2.5666  0.3723
 7869TIP3   OH245097   5.930   3.548  14.207  0.4673 -0.2571 -0.8027
 7869TIP3    H145098   5.923   3.470  14.262  0.4968 -0.3376 -0.9108
 7869TIP3    H245099   6.013   3.536  14.159 -0.6241 -1.2893 -2.5457
 7870TIP3   OH245100   3.021   3.526   4.829  0.0591  0.1889  0.3904
 7870TIP3    H145101   3.073   3.454   4.795 -1.4109  0.2250 -2.2247
 7870TIP3    H245102   3.081   3.600   4.833  0.9444 -0.5222  0.5244
 7871TIP3   OH245103   1.671   6.380  12.547 -0.7775  0.1040 -0.0595
 7871TIP3    H145104   1.763   6.365  12.527 -0.9380 -0.2705 -0.5374
 7871TIP3    H245105   1.669   6.398  12.641 -0.1072  1.0695 -0.2214
 7872TIP3   OH245106   3.525   1.114   3.611 -0.2830 -0.6554 -0.4007
 7872TIP3    H145107   3.549   1.030   3.572  0.6228  0.4121 -2.3066
 7872TIP3    H245108   3.474   1.158   3.544 -0.0614  0.6276  0.2405
 7873TIP3   OH245109   3.863   2.978  14.417  0.3221  0.4384  0.1264
 7873TIP3    H145110   3.773   2.945  14.416  0.1002  1.0452 -0.5523
 7873TIP3    H245111   3.893   2.968  14.327  1.8210 -2.0991  0.7993
 7874TIP3   OH245112   4.366   2.642   3.305  0.4565 -0.1060  0.6306
 7874TIP3    H145113   4.309   2.567   3.322 -1.4861  0.8071 -1.3375
 7874TIP3    H245114   4.322   2.715   3.349 -0.3226  0.7344 -1.4445
 7875TIP3   OH245115   6.728   2.125   3.881 -0.1451 -0.2106  0.0598
 7875TIP3    H145116   6.758   2.035   3.895 -1.3340 -1.1440 -2.6022
 7875TIP3    H245117   6.637   2.115   3.853 -0.0560  1.7511 -1.0618
 7876TIP3   OH245118   1.738   1.385  12.066  1.4020 -0.1619 -0.1045
 7876TIP3    H145119   1.731   1.378  12.161 -0.5796  0.6723 -0.1379
 7876TIP3    H245120   1.774   1.300  12.038  1.5918 -0.5759  1.3409
 7877TIP3   OH245121   5.891   5.453  16.557 -0.6587  0.0312 -0.0725
 7877TIP3    H145122   5.871   5.411  16.473  1.5448  0.6389 -0.9543
 7877TIP3    H245123   5.864   5.388  16.623  2.3910 -2.8769 -1.3597
 7878TIP3   OH245124   6.390   4.715  16.010  0.1767 -0.6778 -0.4475
 7878TIP3    H145125   6.473   4.752  16.043  0.4725 -1.0296 -0.7822
 7878TIP3    H245126   6.412   4.683  15.923 -0.8310  1.1987 -1.4530
 7879TIP3   OH245127   5.336   0.775  12.131  0.1053  0.0969  0.3279
 7879TIP3    H145128   5.269   0.811  12.073  1.5794 -1.0169 -2.2515
 7879TIP3    H245129   5.417   0.819  12.105  0.9205 -0.8354  1.1777
 7880TIP3   OH245130   4.121   5.466  13.519 -0.2807  0.2045 -0.6299
 7880TIP3    H145131   4.040   5.506  13.551 -0.2604 -0.0318 -0.2807
 7880TIP3    H245132   4.092   5.386  13.476 -0.1780 -0.2184  0.0701
 7881TIP3   OH245133   1.922   6.812   2.826  0.6246 -0.1561 -0.0087
 7881TIP3    H145134   1.849   6.862   2.864  1.3002  1.7548 -1.0902
 7881TIP3    H245135   1.898   6.720   2.841 -1.2899  0.4351  0.9462
 7882TIP3   OH245136   6.605   1.268  10.384  0.1501  1.0711 -0.3200
 7882TIP3    H145137   6.650   1.247  10.302 -0.6970  0.3107 -0.6099
 7882TIP3    H245138   6.512   1.253  10.365 -0.1547  1.8303  0.4971
 7883TIP3   OH245139   3.379   0.794   2.192 -0.2044 -0.1833  0.1101
 7883TIP3    H145140   3.461   0.752   2.218 -1.3853 -1.5174  1.9313
 7883TIP3    H245141   3.359   0.754   2.107  2.2050  2.0181 -1.6585
 7884TIP3   OH245142   6.354   0.365   1.104 -0.1423 -0.1139  0.5158
 7884TIP3    H145143   6.388   0.448   1.070 -0.8072  0.2958  0.8327
 7884TIP3    H245144   6.353   0.307   1.028 -1.9387  0.8964 -0.2787
 7885TIP3   OH245145   4.534   5.265  15.568  0.3475 -0.1196 -0.4430
 7885TIP3    H145146   4.568   5.352  15.587  0.7961 -0.3738 -0.0457
 7885TIP3    H245147   4.506   5.269  15.476  1.1523  0.1883 -0.6768
 7886TIP3   OH245148   1.869   0.762   5.627 -0.0123 -0.1287  0.3804
 7886TIP3    H145149   1.826   0.791   5.546  1.2732  0.3193 -0.1680
 7886TIP3    H245150   1.902   0.675   5.606  0.8800  0.2455  0.1941
 7887TIP3   OH245151   4.968   4.208  15.098 -0.5695 -0.0325  0.1094
 7887TIP3    H145152   4.909   4.134  15.084 -1.9092  0.9469  0.3814
 7887TIP3    H245153   4.997   4.198  15.189 -2.5599  0.9689  0.9202
 7888TIP3   OH245154   5.993   3.557   4.599  0.2812 -0.7879 -0.1223
 7888TIP3    H145155   5.900   3.540   4.617  0.4292 -0.6194  0.8185
 7888TIP3    H245156   5.992   3.635   4.543 -0.1416 -0.7730 -0.0993
 7889TIP3   OH245157   3.420   6.780   2.366 -0.0481  0.1437 -0.3918
 7889TIP3    H145158   3.335   6.821   2.384  0.4814  0.8935  0.4970
 7889TIP3    H245159   3.430   6.786   2.271 -1.0947 -0.1733 -0.5360
 7890TIP3   OH245160   0.510   1.891   0.836 -0.1873 -0.5193  0.8001
 7890TIP3    H145161   0.524   1.798   0.853 -1.8544 -0.4176  3.1350
 7890TIP3    H245162   0.577   1.935   0.890  0.0322 -0.3333  0.3800
 7891TIP3   OH245163   2.165   3.064   5.675 -0.0419  0.2430  0.1139
 7891TIP3    H145164   2.207   3.062   5.761  2.0872  1.5130 -0.7931
 7891TIP3    H245165   2.234   3.095   5.616 -1.7208  0.3837 -1.8895
 7892TIP3   OH245166   1.983   0.632   1.631  0.3922 -0.4732 -0.4643
 7892TIP3    H145167   2.014   0.705   1.578  2.9892 -1.5671 -0.6189
 7892TIP3    H245168   1.993   0.556   1.573  0.2498 -1.2841  0.5616
 7893TIP3   OH245169   5.589   3.154   6.119 -0.5185  0.6064 -0.2432
 7893TIP3    H145170   5.606   3.150   6.213  0.5870 -1.0980 -0.4684
 7893TIP3    H245171   5.573   3.247   6.101  1.3421  1.2844  1.2911
 7894TIP3   OH245172   2.764   6.186  11.116  0.3171  0.2759 -0.0940
 7894TIP3    H145173   2.742   6.202  11.207 -0.4781 -0.9838 -0.0342
 7894TIP3    H245174   2.679   6.184  11.071  0.5819 -0.5978 -0.5859
 7895TIP3   OH245175   1.313   4.090  15.318  0.2954  0.1836  0.0432
 7895TIP3    H145176   1.224   4.076  15.349 -0.3423  0.3187 -1.6060
 7895TIP3    H245177   1.313   4.181  15.286  1.0200  0.1830  0.0256
 7896TIP3   OH245178   5.977   3.361  11.590  0.3053 -0.3278  0.6519
 7896TIP3    H145179   5.972   3.419  11.665 -0.8575 -0.8831  1.0240
 7896TIP3    H245180   6.060   3.314  11.601  0.6448  0.3508  1.0161
 7897TIP3   OH245181   5.728   1.771  16.069  0.2733  0.4160  0.1875
 7897TIP3    H145182   5.656   1.719  16.035  0.4664  0.6815 -0.6492
 7897TIP3    H245183   5.804   1.745  16.016  0.8621 -0.0528  1.2284
 7898TIP3   OH245184   4.910   3.729  11.580 -0.1488  0.0735 -0.5312
 7898TIP3    H145185   4.951   3.811  11.553  1.4825 -0.5925 -0.1763
 7898TIP3    H245186   4.860   3.751  11.659 -0.2990  0.8492 -0.8385
 7899TIP3   OH245187   1.835   2.030  13.199  0.3847 -0.5573  0.0559
 7899TIP3    H145188   1.768   1.963  13.217 -0.5951  0.0665 -1.1512
 7899TIP3    H245189   1.893   2.026  13.276  0.2518 -2.6409  0.1262
 7900TIP3   OH245190   1.106   4.616  13.459 -0.5494 -0.2353  0.2182
 7900TIP3    H145191   1.138   4.563  13.532  0.1186  1.3597  1.1485
 7900TIP3    H245192   1.185   4.650  13.418 -0.9336  1.3718  0.7084
 7901TIP3   OH245193   2.678   0.906   5.337 -0.4386  0.7972 -0.0192
 7901TIP3    H145194   2.620   0.831   5.351 -0.3760  0.5524 -1.0113
 7901TIP3    H245195   2.755   0.886   5.391 -0.0774 -0.2621 -0.8774
 7902TIP3   OH245196   4.202   2.495   0.921 -0.6158  0.1641  0.2867
 7902TIP3    H145197   4.189   2.406   0.952  1.7796 -0.8811 -1.3561
 7902TIP3    H245198   4.293   2.516   0.943 -0.3855  1.2529 -1.4260
 7903TIP3   OH245199   6.233   3.899  15.242  0.4532 -0.6755  0.2231
 7903TIP3    H145200   6.282   3.931  15.318  0.7187  1.6432 -0.8489
 7903TIP3    H245201   6.294   3.841  15.197  0.0329 -2.7289  2.1012
 7904TIP3   OH245202   4.943   1.462   5.593  0.1221  0.1343 -0.0606
 7904TIP3    H145203   4.969   1.375   5.622 -0.6148  0.3406  1.2979
 7904TIP3    H245204   4.965   1.520   5.666  1.2376  1.2235 -1.2030
 7905TIP3   OH245205   4.032   4.746   2.405 -0.0911 -0.0127 -0.6518
 7905TIP3    H145206   4.034   4.664   2.455 -0.2213 -0.2635 -1.0601
 7905TIP3    H245207   4.013   4.719   2.316 -0.1700  0.4704 -0.7792
 7906TIP3   OH245208   3.734   3.103  13.726  0.3545  0.0315 -0.4325
 7906TIP3    H145209   3.771   3.129  13.811  0.7220 -0.7636 -0.3437
 7906TIP3    H245210   3.664   3.041  13.749  1.0551 -0.8944 -0.7402
 7907TIP3   OH245211   5.185   5.925   4.844 -0.0921  0.4326  0.0325
 7907TIP3    H145212   5.190   5.965   4.931 -0.4431  0.8102 -0.1221
 7907TIP3    H245213   5.271   5.939   4.806  0.0654  0.2620  0.3192
 7908TIP3   OH245214   2.644   3.228  16.232 -0.1086  0.7479  0.7749
 7908TIP3    H145215   2.586   3.269  16.296  1.0984  0.1818  2.2862
 7908TIP3    H245216   2.724   3.281  16.234 -0.7624  2.0615 -1.9230
 7909TIP3   OH245217   3.462   0.003  14.392 -0.0632  0.1043  0.5084
 7909TIP3    H145218   3.410  -0.072  14.420  0.1233 -0.0900  0.3465
 7909TIP3    H245219   3.501   0.037  14.473 -3.1343  2.4071  1.2241
 7910TIP3   OH245220   2.061   4.934  10.199 -0.4250 -0.1184 -0.2999
 7910TIP3    H145221   1.989   4.997  10.210  0.1612  0.2401  2.1547
 7910TIP3    H245222   2.054   4.877  10.275  1.5770 -0.3712 -0.2449
 7911TIP3   OH245223   1.303   2.099  12.683 -0.8540  0.1478 -0.0643
 7911TIP3    H145224   1.323   2.172  12.623 -3.2720  1.6771  0.8469
 7911TIP3    H245225   1.300   2.022  12.627 -1.5173  1.2861 -1.6568
 7912TIP3   OH245226   3.570   0.368   0.879  0.0789 -0.2286 -0.8901
 7912TIP3    H145227   3.572   0.463   0.868 -1.2637  0.2361  2.0378
 7912TIP3    H245228   3.484   0.342   0.846  0.3750 -0.4354 -1.5217
 7913TIP3   OH245229   0.374   3.960   4.826  0.0301  0.3030 -0.1885
 7913TIP3    H145230   0.458   3.998   4.853 -0.3754  0.5137  0.8407
 7913TIP3    H245231   0.368   3.878   4.875 -0.4732  0.4158 -0.0550
 7914TIP3   OH245232   1.096   0.280   5.033 -0.1395  0.5063 -0.4169
 7914TIP3    H145233   1.165   0.292   5.098  0.0463  0.2507 -0.5703
 7914TIP3    H245234   1.043   0.208   5.067 -1.0092  1.4461  0.2873
 7915TIP3   OH245235   4.870   1.545   4.503  0.1790 -0.1641 -1.4723
 7915TIP3    H145236   4.866   1.582   4.591 -1.3947 -0.1632 -1.5143
 7915TIP3    H245237   4.837   1.456   4.512  1.3098 -0.6378 -1.8426
 7916TIP3   OH245238   1.322   1.090  16.059  0.1445  0.2879 -0.2292
 7916TIP3    H145239   1.246   1.132  16.019 -1.4146 -0.6419  1.6412
 7916TIP3    H245240   1.347   1.021  15.997 -0.7511  0.3561 -0.6769
 7917TIP3   OH245241   3.551   5.613   1.764  0.7047  0.0738 -0.6082
 7917TIP3    H145242   3.490   5.686   1.754 -0.1096 -0.2481  1.4566
 7917TIP3    H245243   3.627   5.651   1.809 -0.1955 -0.4633  1.5351
 7918TIP3   OH245244   5.397   2.844   4.918  0.5911 -0.2420  0.0561
 7918TIP3    H145245   5.414   2.776   4.854  1.5441  0.7604 -0.8084
 7918TIP3    H245246   5.302   2.842   4.932  0.6781 -2.2215  0.6495
 7919TIP3   OH245247   2.377   6.157   0.254  0.0068 -0.2763  0.4356
 7919TIP3    H145248   2.398   6.064   0.254  2.2227  0.1746 -0.7098
 7919TIP3    H245249   2.460   6.201   0.270 -0.6225  1.5620 -0.9966
 7920TIP3   OH245250   3.449   2.487   3.862 -0.2244 -0.3613 -0.4540
 7920TIP3    H145251   3.474   2.572   3.898  0.7551 -0.9652  0.3407
 7920TIP3    H245252   3.363   2.470   3.898  0.4914 -0.6839  1.1756
 7921TIP3   OH245253   6.662   1.605   3.921  0.6558 -0.2124 -0.0461
 7921TIP3    H145254   6.718   1.539   3.963  0.2069 -0.0653  0.8218
 7921TIP3    H245255   6.723   1.658   3.869  1.2644 -0.3330  0.5151
 7922TIP3   OH245256   4.851   2.457  14.344  0.2971  0.5514 -0.0403
 7922TIP3    H145257   4.932   2.454  14.293  1.2137  0.4741  1.3622
 7922TIP3    H245258   4.782   2.444  14.280  1.3147  1.8016 -1.4532
 7923TIP3   OH245259   0.216   0.578   4.083 -0.2001 -0.2972 -0.1820
 7923TIP3    H145260   0.189   0.553   4.172 -1.8762 -0.9808 -0.8338
 7923TIP3    H245261   0.228   0.495   4.037  1.0441  0.0468 -0.5031
 7924TIP3   OH245262   5.010   3.244  13.587  0.0796  0.6835 -0.4536
 7924TIP3    H145263   5.080   3.179  13.591  0.6744  1.3585  2.0793
 7924TIP3    H245264   5.051   3.320  13.546  0.5308  0.7126  0.0397
 7925TIP3   OH245265   1.637   3.846  16.110 -0.0848 -0.3334 -0.0260
 7925TIP3    H145266   1.717   3.898  16.112 -1.0858  1.2627 -0.2369
 7925TIP3    H245267   1.570   3.902  16.149 -0.9160 -2.0130  1.0807
 7926TIP3   OH245268   6.480   2.814  13.051  0.4650  0.5771 -0.0525
 7926TIP3    H145269   6.394   2.774  13.063  0.9178  0.1299  2.0189
 7926TIP3    H245270   6.465   2.883  12.986 -0.8791 -1.1573 -1.7098
 7927TIP3   OH245271   3.827   4.267  13.852 -0.2291  0.0865 -0.6438
 7927TIP3    H145272   3.802   4.298  13.765  1.2507 -0.2556 -1.2150
 7927TIP3    H245273   3.911   4.309  13.869 -0.1712 -0.3984  0.3252
 7928TIP3   OH245274   5.847   0.028  15.354 -0.1382 -0.7350  0.0185
 7928TIP3    H145275   5.869  -0.004  15.266 -0.6192 -1.4314  0.1400
 7928TIP3    H245276   5.905   0.103  15.367 -0.5171 -0.2084 -1.1552
 7929TIP3   OH245277   0.803   6.006   1.181  0.0243 -0.0202 -0.1935
 7929TIP3    H145278   0.756   5.930   1.215 -0.2668  0.6650  0.9936
 7929TIP3    H245279   0.894   5.991   1.208 -0.1988  0.5016  0.8802
 7930TIP3   OH245280   0.253   2.295   5.795 -0.4884 -0.0195  0.2678
 7930TIP3    H145281   0.201   2.216   5.785  0.6859 -0.8895  0.7390
 7930TIP3    H245282   0.326   2.284   5.733 -0.4657  0.8336  0.1232
 7931TIP3   OH245283   6.646   6.065  13.616  0.3965  0.4962 -0.1139
 7931TIP3    H145284   6.722   6.015  13.589 -0.9307 -0.9622 -1.3366
 7931TIP3    H245285   6.595   6.077  13.536 -0.4268  1.8930  0.5786
 7932TIP3   OH245286   0.346   1.133  15.982  0.2663  0.7461 -0.0255
 7932TIP3    H145287   0.372   1.066  15.918 -0.1675  0.9943 -0.4715
 7932TIP3    H245288   0.406   1.206  15.965  0.8465  0.4100  0.5719
 7933TIP3   OH245289   4.173   5.189   3.293 -0.3731  0.5421 -0.2358
 7933TIP3    H145290   4.084   5.156   3.282 -0.4255  0.1167  1.2970
 7933TIP3    H245291   4.167   5.253   3.363  0.8013 -0.7227  1.0870
 7934TIP3   OH245292   6.807   0.479  10.733  0.1269  0.1766 -0.0880
 7934TIP3    H145293   6.844   0.491  10.820 -0.4268  1.3108  0.0032
 7934TIP3    H245294   6.850   0.400  10.700  0.7915  0.0747  0.9669
 7935TIP3   OH245295   3.263   3.283  14.026 -0.4120  0.3946  0.1464
 7935TIP3    H145296   3.358   3.284  14.019 -0.4096  0.6685  0.1873
 7935TIP3    H245297   3.239   3.191  14.019 -0.2862  0.4845 -1.8226
 7936TIP3   OH245298   1.089   2.706  11.258 -0.6120  0.4145  1.1947
 7936TIP3    H145299   1.068   2.619  11.224  0.9812  0.1848  0.6780
 7936TIP3    H245300   1.038   2.766  11.203  0.6213 -0.0554 -0.5617
 7937TIP3   OH245301   2.592   1.791   4.863 -0.0089  0.1661 -0.2675
 7937TIP3    H145302   2.584   1.793   4.958  0.1855 -1.7506 -0.1646
 7937TIP3    H245303   2.651   1.863   4.842 -0.0638  0.6209  1.0613
 7938TIP3   OH245304   4.271   5.988  11.253  0.0404  0.2061  0.1145
 7938TIP3    H145305   4.206   5.979  11.183 -0.6883  0.7886  0.7064
 7938TIP3    H245306   4.312   5.901  11.258  1.1981  0.5587 -2.0627
 7939TIP3   OH245307   0.441   2.299  14.892  0.3058  0.2753  0.4811
 7939TIP3    H145308   0.347   2.312  14.882  0.2895 -0.0570  0.1451
 7939TIP3    H245309   0.451   2.204  14.899  0.7901  0.1211 -1.6012
 7940TIP3   OH245310   0.445   4.749   4.355 -0.4026 -0.4796 -0.6966
 7940TIP3    H145311   0.518   4.805   4.382 -0.3387  0.0058 -1.8040
 7940TIP3    H245312   0.410   4.792   4.277 -0.9710 -1.4641 -0.9998
 7941TIP3   OH245313   1.091   1.469   2.501  0.1526 -0.1935  0.0115
 7941TIP3    H145314   1.128   1.518   2.575 -1.9930  0.0263  1.0189
 7941TIP3    H245315   1.162   1.413   2.471  1.5337  0.8053  1.2915
 7942TIP3   OH245316   5.338   5.597   1.258  0.6426 -0.2132 -0.1849
 7942TIP3    H145317   5.395   5.598   1.181 -0.5819 -1.1858 -1.1345
 7942TIP3    H245318   5.257   5.557   1.228 -1.1121  2.4033  0.7495
 7943TIP3   OH245319   4.851   1.758  14.767 -0.4587  0.1949  0.7805
 7943TIP3    H145320   4.808   1.692  14.822  0.2670 -0.0367  1.0828
 7943TIP3    H245321   4.859   1.834  14.825 -1.4378  0.6211  0.3843
 7944TIP3   OH245322   3.829   1.979  11.136 -0.0386 -0.0399 -0.6298
 7944TIP3    H145323   3.916   1.949  11.160 -0.2419 -0.8615 -0.8556
 7944TIP3    H245324   3.835   2.000  11.042  0.6598  2.8025 -0.0385
 7945TIP3   OH245325   5.853   4.766  13.880  0.3879 -0.0311 -0.0375
 7945TIP3    H145326   5.769   4.765  13.925  0.7685 -1.6641  0.6922
 7945TIP3    H245327   5.896   4.845  13.911 -0.3579  0.1454  0.5702
 7946TIP3   OH245328   1.136   5.591   5.079 -0.0825 -0.5418 -0.4084
 7946TIP3    H145329   1.163   5.641   5.002 -1.3608  0.7779 -0.0330
 7946TIP3    H245330   1.041   5.589   5.074 -0.2025 -0.2025  1.2663
 7947TIP3   OH245331   2.496   5.195   1.714  0.5689 -0.4613  0.2189
 7947TIP3    H145332   2.517   5.106   1.743 -0.4116 -0.5557  0.6699
 7947TIP3    H245333   2.533   5.200   1.626 -0.8285 -1.9187 -0.5016
 7948TIP3   OH245334   3.903   1.363   0.724  0.2872 -0.0483 -0.2583
 7948TIP3    H145335   3.949   1.436   0.765 -0.1741 -0.3166  0.7678
 7948TIP3    H245336   3.816   1.364   0.764 -0.2815 -0.1478 -1.4562
 7949TIP3   OH245337   5.840   6.060   6.640 -0.4097 -0.7118 -0.0366
 7949TIP3    H145338   5.885   6.128   6.590  0.2800 -1.2870 -0.2100
 7949TIP3    H245339   5.795   6.107   6.709  2.4563 -0.2699  1.6840
 7950TIP3   OH245340   3.511   2.928   0.028  0.1270 -0.5628  0.4550
 7950TIP3    H145341   3.469   2.845   0.007  1.0577 -0.8947 -0.1426
 7950TIP3    H245342   3.489   2.985  -0.046 -2.3698  0.4820  1.8555
 7951TIP3   OH245343   4.425   0.844  12.108  0.2681  0.0514 -0.1256
 7951TIP3    H145344   4.359   0.867  12.173  0.1780 -1.5955  0.4072
 7951TIP3    H245345   4.469   0.927  12.088 -0.7606  0.8574  0.8414
 7952TIP3   OH245346   3.250   3.564  13.732  0.6508  0.5344 -0.0792
 7952TIP3    H145347   3.200   3.500  13.783  1.6378 -0.7109 -0.6373
 7952TIP3    H245348   3.341   3.548  13.756  1.4091 -1.4560 -3.5575
 7953TIP3   OH245349   1.612   2.496  11.325  0.1418  0.4064 -0.2979
 7953TIP3    H145350   1.531   2.446  11.333 -0.4561  0.6063 -3.6701
 7953TIP3    H245351   1.589   2.585  11.354 -0.5927  0.2360 -0.3466
 7954TIP3   OH245352   2.935   6.614   5.400  0.0668  0.2321  0.6010
 7954TIP3    H145353   2.938   6.690   5.458  1.3540 -1.0453  2.3138
 7954TIP3    H245354   2.992   6.637   5.327 -1.0895  1.6240  0.0900
 7955TIP3   OH245355   1.996   4.848   2.054 -0.2596 -0.8142  0.3993
 7955TIP3    H145356   1.977   4.913   2.121 -1.4497 -0.2160 -0.5020
 7955TIP3    H245357   2.080   4.875   2.018 -1.4836  1.2196 -1.0878
 7956TIP3   OH245358   1.815   3.115   5.907  0.0548 -0.2111  0.5360
 7956TIP3    H145359   1.749   3.048   5.888 -1.1340  0.5358  1.8379
 7956TIP3    H245360   1.837   3.101   5.999 -1.0948  1.8748  1.1776
 7957TIP3   OH245361   5.695   0.515  15.902 -0.2094 -0.1388  0.1271
 7957TIP3    H145362   5.618   0.478  15.858 -0.3240  0.1602  0.0783
 7957TIP3    H245363   5.692   0.477  15.990 -1.0463  0.7372  0.4943
 7958TIP3   OH245364   4.722   6.597  15.082 -0.3342 -0.3416 -0.1208
 7958TIP3    H145365   4.680   6.522  15.042 -0.9350 -0.3486  0.4953
 7958TIP3    H245366   4.737   6.658  15.010 -1.0968 -0.4818 -0.4006
 7959TIP3   OH245367   3.985   5.319  16.077  0.7003 -0.5565 -0.2374
 7959TIP3    H145368   4.025   5.246  16.030  0.3260 -0.4412 -0.7406
 7959TIP3    H245369   4.035   5.396  16.049 -0.9050 -0.1473 -2.2022
 7960TIP3   OH245370   3.664   2.233  10.987  0.3461  0.1786  0.3202
 7960TIP3    H145371   3.617   2.297  10.933 -0.7161 -1.1660 -0.4172
 7960TIP3    H245372   3.718   2.184  10.925  2.2643  1.2363  1.0700
 7961TIP3   OH245373   6.580   4.010   4.673  0.1943  0.2674  0.3413
 7961TIP3    H145374   6.590   3.951   4.748 -0.3408  1.0764  1.0723
 7961TIP3    H245375   6.487   4.006   4.651  0.4308 -0.3419 -0.6185
 7962TIP3   OH245376   3.801   1.594   5.852  0.0499  0.1660 -0.1343
 7962TIP3    H145377   3.820   1.568   5.762  2.0617 -0.1802  0.3378
 7962TIP3    H245378   3.834   1.521   5.905  1.6340  1.6055  0.9893
 7963TIP3   OH245379   5.378   5.392   5.333  0.3982  0.1234 -0.8599
 7963TIP3    H145380   5.371   5.338   5.254  3.1796 -2.6093  0.5116
 7963TIP3    H245381   5.472   5.399   5.349 -0.0340  1.1639  1.8216
 7964TIP3   OH245382   2.123   2.685   5.556 -0.1787  0.2997  0.1098
 7964TIP3    H145383   2.078   2.728   5.628  0.5505  0.0859  0.7000
 7964TIP3    H245384   2.162   2.607   5.595  1.1171  0.7325 -0.2753
 7965TIP3   OH245385   6.360   3.500  15.343 -0.2733 -0.0120  0.0785
 7965TIP3    H145386   6.384   3.532  15.430 -0.9625  1.8774 -0.3760
 7965TIP3    H245387   6.331   3.410  15.358  0.4966 -0.0458  1.6483
 7966TIP3   OH245388   3.140   6.101  11.754  0.1950  0.5805  0.3107
 7966TIP3    H145389   3.150   6.042  11.679  0.0060  0.4817  0.3633
 7966TIP3    H245390   3.167   6.048  11.830 -0.9166  0.2390  0.4826
 7967TIP3   OH245391   4.613   4.974  13.309 -0.1962  0.0016  0.3213
 7967TIP3    H145392   4.705   4.959  13.333 -0.6185 -1.0861  1.4082
 7967TIP3    H245393   4.615   4.996  13.216  0.8932 -3.9347 -0.8042
 7968TIP3   OH245394   6.804   3.588  12.582 -0.2303 -0.1783 -0.4866
 7968TIP3    H145395   6.898   3.595  12.565 -0.3146  0.6628 -0.6729
 7968TIP3    H245396   6.796   3.513  12.641  0.6611  0.3582  0.3560
 7969TIP3   OH245397   6.397   1.228   1.768 -0.6036  0.4221 -0.1433
 7969TIP3    H145398   6.446   1.146   1.761 -1.2723 -0.0276  0.3154
 7969TIP3    H245399   6.390   1.259   1.678  2.8512  1.9307 -0.0616
 7970TIP3   OH245400   4.488   6.627  14.181 -0.1460 -0.6886  0.6082
 7970TIP3    H145401   4.403   6.640  14.138 -0.2246 -0.5962  0.7903
 7970TIP3    H245402   4.550   6.672  14.124 -0.3995  0.3995  1.1710
 7971TIP3   OH245403   3.069   3.575   4.421 -0.3164 -0.1835 -1.0348
 7971TIP3    H145404   3.013   3.512   4.465  0.7654  0.1803  1.0095
 7971TIP3    H245405   3.025   3.659   4.435  0.5154  0.0639  0.3224
 7972TIP3   OH245406   4.138   4.675  12.697 -0.2704 -0.1941 -0.4168
 7972TIP3    H145407   4.232   4.683  12.680 -0.3801 -1.0518 -1.6240
 7972TIP3    H245408   4.098   4.742  12.642 -0.3283  0.9820  0.9992
 7973TIP3   OH245409   4.484   0.673   2.714 -0.2675  0.1422 -0.1038
 7973TIP3    H145410   4.499   0.760   2.749  0.0436  0.0329  0.0370
 7973TIP3    H245411   4.514   0.614   2.784  0.4954 -0.0780 -0.6082
 7974TIP3   OH245412   4.700   4.949  13.041  0.2967  0.1916  0.0741
 7974TIP3    H145413   4.755   4.880  13.004  1.5213 -0.2232  2.4662
 7974TIP3    H245414   4.754   5.028  13.039  0.2969  0.2184  0.6959
 7975TIP3   OH245415   4.968   3.742   6.099 -0.3021  0.1062  0.0023
 7975TIP3    H145416   5.018   3.752   6.181 -0.2173 -0.3726  0.0127
 7975TIP3    H245417   4.895   3.684   6.123 -0.5179  0.3151 -0.1588
 7976TIP3   OH245418   3.101   0.325  15.979  0.4332 -0.2857  0.0072
 7976TIP3    H145419   3.166   0.307  16.048  0.0942 -1.7350 -0.0272
 7976TIP3    H245420   3.022   0.351  16.027  0.9538  1.2897  0.0558
 7977TIP3   OH245421   3.233   3.429   2.185 -0.1786 -0.1030  0.0147
 7977TIP3    H145422   3.221   3.363   2.117 -1.5138  0.0297  0.0892
 7977TIP3    H245423   3.180   3.397   2.259  0.7619  0.0558  0.7815
 7978TIP3   OH245424   5.213   1.237  15.493  0.5704  0.3661  0.8116
 7978TIP3    H145425   5.269   1.177  15.543 -3.2699 -2.7475  1.9719
 7978TIP3    H245426   5.178   1.297  15.559  2.2274  2.2157  0.1144
 7979TIP3   OH245427   2.795   2.943  16.900 -0.1784 -0.3896 -0.0881
 7979TIP3    H145428   2.730   2.889  16.855  0.8420  0.3533 -2.6123
 7979TIP3    H245429   2.878   2.920  16.858  0.6134  1.4534  0.3748
 7980TIP3   OH245430   4.313   4.652   4.020 -0.1300  0.2699  0.2620
 7980TIP3    H145431   4.276   4.697   3.943  0.0808  0.3561  0.2095
 7980TIP3    H245432   4.402   4.686   4.026  0.5938 -1.3288 -0.7485
 7981TIP3   OH245433   3.187   4.566   3.434  0.2674 -0.5039  0.1980
 7981TIP3    H145434   3.270   4.544   3.474 -0.1198 -0.1809  1.2068
 7981TIP3    H245435   3.146   4.628   3.495 -0.7834 -0.7865 -0.1886
 7982TIP3   OH245436   0.810   4.360   2.002 -0.1681 -0.4682 -0.1297
 7982TIP3    H145437   0.816   4.385   2.094  0.4272  1.4288 -0.6463
 7982TIP3    H245438   0.890   4.393   1.962 -1.5695  1.0910 -1.8343
 7983TIP3   OH245439   2.579   5.911  13.465  0.4586  0.2300 -0.0560
 7983TIP3    H145440   2.518   5.909  13.392 -0.2418  2.6918  0.3637
 7983TIP3    H245441   2.540   5.853  13.531  1.1567 -2.1059 -1.5836
 7984TIP3   OH245442   3.003   0.881   0.435  0.1345 -0.5117  0.5073
 7984TIP3    H145443   2.908   0.890   0.426  0.1847  0.1771  0.5723
 7984TIP3    H245444   3.021   0.912   0.524  0.6742  1.6604 -0.2954
 7985TIP3   OH245445   2.554   5.924  11.110 -0.3118  0.0877 -0.0516
 7985TIP3    H145446   2.596   5.904  11.026  0.7981  0.4012  0.4146
 7985TIP3    H245447   2.526   6.015  11.102 -0.7843 -0.0743 -0.3047
 7986TIP3   OH245448   2.840   3.861   1.460  0.0239  0.2163  0.2883
 7986TIP3    H145449   2.834   3.883   1.367 -1.1749  1.0774  0.5543
 7986TIP3    H245450   2.751   3.868   1.492  0.3332 -0.6372  1.3992
 7987TIP3   OH245451   4.639   0.248   1.980 -0.5082 -0.1202 -0.1049
 7987TIP3    H145452   4.629   0.315   1.912  3.0176  0.7015  0.0031
 7987TIP3    H245453   4.577   0.273   2.048 -1.2220  1.4229 -1.2677
 7988TIP3   OH245454   5.611   1.929  15.661 -0.0378  0.5506 -0.3066
 7988TIP3    H145455   5.636   1.947  15.752  0.0903 -1.8173  0.2148
 7988TIP3    H245456   5.518   1.948  15.657  0.2210  1.9915 -0.0931
 7989TIP3   OH245457   0.673   1.898   0.275  0.1363  0.2892  0.3909
 7989TIP3    H145458   0.581   1.914   0.299 -0.2725  0.2826 -1.0792
 7989TIP3    H245459   0.674   1.806   0.248  0.5824  0.2965  0.3820
 7990TIP3   OH245460   0.245   1.493   3.945  0.3438  0.0905  0.2944
 7990TIP3    H145461   0.229   1.398   3.944  0.3689  0.0860  0.0955
 7990TIP3    H245462   0.292   1.509   3.863 -0.9302  0.4900 -0.3828
 7991TIP3   OH245463   6.282   4.016   1.214 -0.8652  0.0321 -0.5216
 7991TIP3    H145464   6.188   4.028   1.229 -0.3836  3.3400  0.5427
 7991TIP3    H245465   6.318   4.105   1.212  2.7127 -1.1300  2.2305
 7992TIP3   OH245466   4.409   0.257  16.759 -0.2022  0.6232  0.4074
 7992TIP3    H145467   4.433   0.207  16.837 -0.2611  0.6540  0.4461
 7992TIP3    H245468   4.342   0.205  16.716 -0.1967  0.6246  0.3970
 7993TIP3   OH245469   0.856   4.749  14.859  0.4480 -0.2526  0.9663
 7993TIP3    H145470   0.945   4.776  14.883  0.8435  1.4484 -1.9046
 7993TIP3    H245471   0.868   4.691  14.784 -0.8740  0.1867  0.3953
 7994TIP3   OH245472   2.403   0.308   2.582 -0.1744  0.8587  0.1695
 7994TIP3    H145473   2.395   0.351   2.667 -0.3129 -0.2134  0.7147
 7994TIP3    H245474   2.488   0.336   2.549  0.5463  0.1056  1.3384
 7995TIP3   OH245475   2.981   0.608  15.813  0.0053 -0.4131 -0.1075
 7995TIP3    H145476   2.936   0.641  15.891 -0.1326  0.5848 -0.5879
 7995TIP3    H245477   2.919   0.547  15.773 -0.1501 -0.4936  0.2539
 7996TIP3   OH245478   1.761   1.164  16.776 -0.5912 -0.3086 -0.0616
 7996TIP3    H145479   1.690   1.130  16.721  0.1539 -0.6232 -0.8574
 7996TIP3    H245480   1.836   1.108  16.755  0.0831  0.4675  0.2241
 7997TIP3   OH245481   1.574   6.047   3.542 -0.2789 -0.2978  1.4490
 7997TIP3    H145482   1.627   6.127   3.548  0.4986 -0.4739 -1.6507
 7997TIP3    H245483   1.535   6.050   3.455 -2.1256 -2.2227  2.1077
 7998TIP3   OH245484   0.353   2.694  15.569 -0.0153  0.3008 -0.6692
 7998TIP3    H145485   0.344   2.612  15.521  1.9657 -0.0507 -0.5314
 7998TIP3    H245486   0.445   2.695  15.597 -0.0238  2.5095 -0.5711
 7999TIP3   OH245487   0.300   0.629  16.558 -0.0474  0.0879  0.3739
 7999TIP3    H145488   0.213   0.658  16.533  0.4629  1.2909 -0.0762
 7999TIP3    H245489   0.293   0.611  16.652 -1.8406 -3.9663 -0.2827
 8000TIP3   OH245490   2.306   4.951   0.855  0.1283 -0.2512  0.2861
 8000TIP3    H145491   2.335   4.908   0.936 -0.4119  0.1477  0.7004
 8000TIP3    H245492   2.234   4.897   0.824  0.0297 -0.1429  0.3261
 8001TIP3   OH245493   3.021   5.638  16.849  1.2169  0.0024  0.1975
 8001TIP3    H145494   3.085   5.652  16.919  1.4099 -0.9637  0.2396
 8001TIP3    H245495   2.996   5.546  16.858 -0.2254  0.3737  0.2071
 8002TIP3   OH245496   3.597   4.189   0.134 -0.6717 -0.6389  0.1669
 8002TIP3    H145497   3.687   4.223   0.131 -1.3019  1.0832 -0.6984
 8002TIP3    H245498   3.605   4.097   0.109  0.8842 -0.6177  0.4770
 8003TIP3   OH245499   0.725   4.711   2.235 -0.0647  0.0340 -0.7967
 8003TIP3    H145500   0.776   4.780   2.193 -0.7078  0.3017 -1.1559
 8003TIP3    H245501   0.650   4.757   2.273  0.5774 -0.1713  0.8102
 8004TIP3   OH245502   2.602   5.256   3.907  0.3308  0.1429 -0.4448
 8004TIP3    H145503   2.635   5.323   3.966 -1.5019 -1.0155  2.0878
 8004TIP3    H245504   2.603   5.175   3.959 -0.2747 -1.2127 -2.4065
 8005TIP3   OH245505   2.544   2.885  14.507 -0.0831 -0.0953 -0.1634
 8005TIP3    H145506   2.521   2.885  14.414  0.3126  0.9076 -0.2770
 8005TIP3    H245507   2.504   2.806  14.542  0.4491 -0.9232 -1.3618
 8006TIP3   OH245508   5.372   0.076   4.437 -0.0946  0.0010  0.2210
 8006TIP3    H145509   5.336  -0.010   4.414  1.3445 -0.4329 -0.5494
 8006TIP3    H245510   5.322   0.138   4.384 -1.0353 -0.3657  0.6609
 8007TIP3   OH245511   3.270   6.728   2.906  0.3055 -0.0172 -0.1591
 8007TIP3    H145512   3.205   6.755   2.971  0.1491 -0.4959 -0.1170
 8007TIP3    H245513   3.341   6.690   2.957 -0.4069 -1.6382 -0.3360
 8008TIP3   OH245514   5.706   4.358   3.676  0.2981 -0.5422  0.0538
 8008TIP3    H145515   5.621   4.359   3.632  0.4838 -0.1799 -0.3006
 8008TIP3    H245516   5.685   4.340   3.768 -0.3377  1.3030  0.3198
 8009TIP3   OH245517   4.161   6.202   4.301 -0.5726  0.5361  0.2398
 8009TIP3    H145518   4.193   6.199   4.211 -1.8898 -0.2927 -0.2315
 8009TIP3    H245519   4.156   6.295   4.322  0.7392  0.7136 -0.1582
 8010TIP3   OH245520   4.292   2.311   3.062  0.0765  0.1823  0.5079
 8010TIP3    H145521   4.345   2.269   2.994  0.7035 -0.4212  1.3358
 8010TIP3    H245522   4.278   2.400   3.030  2.3210  0.6362  0.6041
 8011TIP3   OH245523   3.053   5.093  16.486 -0.1962 -0.3866 -0.0297
 8011TIP3    H145524   2.975   5.149  16.495 -0.4429 -0.8566  1.0203
 8011TIP3    H245525   3.114   5.128  16.551  1.0619  0.8758 -1.8263
 8012TIP3   OH245526   4.674   1.382  12.499 -0.4120 -0.2529 -0.0769
 8012TIP3    H145527   4.729   1.355  12.573  2.1413  0.4714 -1.5702
 8012TIP3    H245528   4.709   1.468  12.475 -2.1996  0.1904 -1.1924
 8013TIP3   OH245529   1.668   6.068  15.114  0.3570  0.0697 -0.4954
 8013TIP3    H145530   1.629   6.156  15.109 -0.2496 -0.1522  0.1272
 8013TIP3    H245531   1.619   6.025  15.184 -1.2780 -1.7358 -2.6190
 8014TIP3   OH245532   5.768   0.585   4.560  0.4649 -0.5617  0.1007
 8014TIP3    H145533   5.695   0.602   4.620  0.4714 -0.9979  0.2372
 8014TIP3    H245534   5.837   0.551   4.617  0.3464 -1.3334 -0.2072
 8015TIP3   OH245535   0.211   3.434  11.838 -0.0032 -0.3913 -0.0989
 8015TIP3    H145536   0.119   3.432  11.866  0.1694  0.5526  0.5890
 8015TIP3    H245537   0.260   3.406  11.915  0.3951  0.9634  0.1686
 8016TIP3   OH245538   1.072   6.357  15.791  0.4697 -0.0715 -0.2546
 8016TIP3    H145539   1.115   6.319  15.715  0.8022  0.3864 -0.2964
 8016TIP3    H245540   1.138   6.354  15.860 -0.3044 -1.9416  0.4985
 8017TIP3   OH245541   0.582   3.477   4.031 -0.0266  0.3760  0.4018
 8017TIP3    H145542   0.527   3.411   4.074  2.4754 -2.2033 -0.0725
 8017TIP3    H245543   0.636   3.512   4.102  1.2673 -0.9152  0.0963
 8018TIP3   OH245544   4.791   0.418  14.438 -0.4612 -0.0982  0.2615
 8018TIP3    H145545   4.809   0.414  14.532 -1.8106  3.9021  0.9115
 8018TIP3    H245546   4.858   0.477  14.403 -1.3191  0.3098 -0.7753
 8019TIP3   OH245547   4.529   1.377   5.038 -0.3717  0.5267  0.7791
 8019TIP3    H145548   4.507   1.300   4.985  1.9928  1.4585 -1.7804
 8019TIP3    H245549   4.567   1.341   5.118  3.2568 -1.1922 -1.4781
 8020TIP3   OH245550   1.926   1.210  16.304 -0.0204 -0.0059  0.5422
 8020TIP3    H145551   1.936   1.191  16.210  0.3755  2.3159  0.0616
 8020TIP3    H245552   1.834   1.191  16.323 -0.3586  0.4477 -0.5590
 8021TIP3   OH245553   5.902   6.592  16.290 -0.8141  0.3418  0.0296
 8021TIP3    H145554   5.842   6.582  16.365  0.2831  1.0810  1.0506
 8021TIP3    H245555   5.847   6.579  16.213 -2.5324  1.9872  0.8975
 8022TIP3   OH245556   1.838   0.989   1.473 -0.9074 -0.0568  0.2781
 8022TIP3    H145557   1.803   1.078   1.476 -0.1759  0.2127  2.0013
 8022TIP3    H245558   1.931   1.000   1.453 -0.8608 -0.4500  0.2634
 8023TIP3   OH245559   4.173   3.074  15.424 -0.8282 -0.4136 -0.2971
 8023TIP3    H145560   4.152   2.984  15.399  0.2875 -0.8193  0.1642
 8023TIP3    H245561   4.249   3.097  15.371 -0.4793 -0.1114  0.3222
 8024TIP3   OH245562   2.655   6.322  14.974 -0.7265 -0.2119 -0.0155
 8024TIP3    H145563   2.616   6.399  14.931  1.2892  1.3739  0.7998
 8024TIP3    H245564   2.675   6.263  14.902 -1.3926  0.4820 -0.7962
 8025TIP3   OH245565   0.042   1.683   5.954  0.4965  0.0234  0.4590
 8025TIP3    H145566   0.121   1.639   5.923  1.0671 -0.0883  2.0060
 8025TIP3    H245567   0.059   1.701   6.046 -1.1661  0.2822  0.7408
 8026TIP3   OH245568   4.407   6.207  13.106 -0.4016 -0.2760 -0.4971
 8026TIP3    H145569   4.382   6.285  13.056 -1.3716  0.4245  1.0146
 8026TIP3    H245570   4.349   6.207  13.181 -0.2267 -2.3293 -0.3049
 8027TIP3   OH245571   0.897   0.046   2.891  0.1797 -0.4201 -0.4698
 8027TIP3    H145572   0.824  -0.009   2.863  0.3022 -0.5857 -0.4657
 8027TIP3    H245573   0.975  -0.002   2.863  0.3191 -0.8504  0.6294
 8028TIP3   OH245574   6.698   3.972  14.799  0.2581 -0.2880  0.2905
 8028TIP3    H145575   6.727   3.884  14.777 -0.6400 -0.5937  0.2767
 8028TIP3    H245576   6.723   3.984  14.891 -0.9814 -1.1575  0.7684
 8029TIP3   OH245577   6.508   2.446   3.035 -0.1551 -0.6082 -0.3867
 8029TIP3    H145578   6.452   2.501   3.090 -0.2549 -0.6255 -0.4699
 8029TIP3    H245579   6.461   2.440   2.952 -0.3941 -1.2395 -0.2104
 8030TIP3   OH245580   6.730   0.128   3.558  0.1171 -0.2553 -0.2507
 8030TIP3    H145581   6.717   0.134   3.463 -1.2850 -1.5506 -0.1808
 8030TIP3    H245582   6.762   0.039   3.572 -0.1640 -0.2384  0.5223
 8031TIP3   OH245583   4.155   3.201   1.075 -0.4783 -0.2152  0.2043
 8031TIP3    H145584   4.196   3.270   1.023 -0.4084 -0.5390 -0.1824
 8031TIP3    H245585   4.164   3.122   1.021 -0.2553 -0.5960  0.7874
 8032TIP3   OH245586   2.563   6.241   5.986  0.5055  0.1684 -0.0497
 8032TIP3    H145587   2.564   6.161   6.039  1.0416 -1.1890 -2.0135
 8032TIP3    H245588   2.471   6.265   5.980  0.4296  0.4202  1.4998
 8033TIP3   OH245589   0.075   5.559   0.093  0.1281 -0.8362  0.2761
 8033TIP3    H145590   0.124   5.522   0.020  2.6821  0.7504  1.0749
 8033TIP3    H245591   0.101   5.507   0.168 -0.3783 -0.7303  0.5303
 8034TIP3   OH245592   2.123   5.531   1.472  0.2518 -0.1161 -0.1114
 8034TIP3    H145593   2.211   5.538   1.434 -0.1315  0.0441 -0.9879
 8034TIP3    H245594   2.125   5.450   1.522  0.9221 -0.0752 -0.0622
 8035TIP3   OH245595   0.291   2.492  11.724  0.6773 -0.2662 -0.0119
 8035TIP3    H145596   0.250   2.466  11.641 -3.0899  0.0471  1.5534
 8035TIP3    H245597   0.226   2.547  11.767  1.7968 -1.5769  3.8019
 8036TIP3   OH245598   6.006   1.697  12.626 -0.5662  0.5925 -0.6344
 8036TIP3    H145599   5.915   1.670  12.614  0.0282 -1.6655 -0.5960
 8036TIP3    H245600   6.056   1.615  12.618  1.3055  1.4992  0.9939
 8037TIP3   OH245601   4.047   5.015   5.617 -0.2882 -0.2416 -0.0070
 8037TIP3    H145602   3.985   5.011   5.689  1.5950  0.5724  1.7598
 8037TIP3    H245603   4.050   4.926   5.582 -2.2509 -0.3409 -0.0456
 8038TIP3   OH245604   2.926   3.790  12.768 -0.0060 -0.2989 -0.0111
 8038TIP3    H145605   2.882   3.742  12.697  0.1245  0.3536 -0.5415
 8038TIP3    H245606   2.910   3.882  12.748  1.5227 -0.0425 -0.1638
 8039TIP3   OH245607   0.896   4.147   5.896  0.3041 -0.1324  0.1328
 8039TIP3    H145608   0.845   4.079   5.851 -1.0760 -0.4410  2.0645
 8039TIP3    H245609   0.949   4.098   5.959  2.4360  0.2695 -1.2499
 8040TIP3   OH245610   6.821   2.645   0.372 -0.2284  0.0968  0.2611
 8040TIP3    H145611   6.811   2.573   0.309 -1.5586 -0.0202  0.5689
 8040TIP3    H245612   6.865   2.714   0.323 -2.2766  0.4537 -1.1920
 8041TIP3   OH245613   0.636   2.246  12.349 -0.0180  0.4287  0.0231
 8041TIP3    H145614   0.566   2.295  12.307  0.5065 -0.1053 -1.5432
 8041TIP3    H245615   0.702   2.312  12.371 -0.1351  0.6711 -0.3470
 8042TIP3   OH245616   5.718   0.467   4.305  0.7205 -0.2281  0.1013
 8042TIP3    H145617   5.755   0.404   4.368  0.6647  0.2705  0.6404
 8042TIP3    H245618   5.703   0.546   4.356 -0.4057 -0.1786 -0.2657
 8043TIP3   OH245619   1.881   0.309  10.582 -0.0091 -0.6730  0.6640
 8043TIP3    H145620   1.868   0.234  10.523  1.0675 -1.2031  1.0683
 8043TIP3    H245621   1.951   0.281  10.641  0.0156  0.4477  1.1896
 8044TIP3   OH245622   3.656   1.817   5.389 -0.6313  0.6781  0.1380
 8044TIP3    H145623   3.747   1.787   5.389 -0.4267  1.2752  1.1355
 8044TIP3    H245624   3.608   1.748   5.435 -0.6358  0.5379 -0.0716
 8045TIP3   OH245625   4.114   0.860   1.379  0.3398 -0.6038  0.0978
 8045TIP3    H145626   4.168   0.938   1.386  2.8721 -2.3784  2.6630
 8045TIP3    H245627   4.145   0.815   1.301 -0.3733  0.3707 -0.7667
 8046TIP3   OH245628   3.363   1.625  14.385  0.2102 -0.0485  0.0114
 8046TIP3    H145629   3.448   1.583  14.392  0.4606  0.1885 -1.2448
 8046TIP3    H245630   3.313   1.568  14.326 -0.2745  0.1493  0.2230
 8047TIP3   OH245631   6.362   0.518  13.034 -0.1891  0.6102  0.5440
 8047TIP3    H145632   6.335   0.465  12.958  1.8958 -1.0220  0.8488
 8047TIP3    H245633   6.422   0.583  12.997 -0.1295  0.5992  0.6213
 8048TIP3   OH245634   4.652   6.804   6.248  0.0720  0.9521  0.3675
 8048TIP3    H145635   4.583   6.839   6.305 -0.4628 -0.6394  0.7355
 8048TIP3    H245636   4.635   6.710   6.244  0.7371  0.8647 -1.5793
 8049TIP3   OH245637   2.957   5.430  13.591 -0.2384  0.0883 -0.1173
 8049TIP3    H145638   3.000   5.346  13.606  1.8907  1.2519  0.5213
 8049TIP3    H245639   2.895   5.412  13.520  0.0866 -2.0276  0.0761
 8050TIP3   OH245640   5.538   5.764  12.856 -0.3994 -0.0864  0.6698
 8050TIP3    H145641   5.600   5.696  12.883 -1.3310 -0.7499  1.1951
 8050TIP3    H245642   5.506   5.735  12.771  0.6541  0.7139 -0.0199
 8051TIP3   OH245643   2.267   5.068   3.615 -0.7384 -0.0960 -0.0108
 8051TIP3    H145644   2.181   5.027   3.617 -0.4060 -0.8273  1.9193
 8051TIP3    H245645   2.311   5.035   3.693  1.1565  0.5715 -0.7361
 8052TIP3   OH245646   2.578   2.370   4.334  0.1739 -0.4031 -0.6649
 8052TIP3    H145647   2.506   2.362   4.396  0.6376 -0.8108 -0.1704
 8052TIP3    H245648   2.632   2.293   4.349  0.5380 -0.2725 -1.2605
 8053TIP3   OH245649   5.120   1.903   5.043 -0.2046  0.0972  0.1591
 8053TIP3    H145650   5.131   1.960   4.967  0.0025 -0.1198  0.0260
 8053TIP3    H245651   5.041   1.852   5.025 -0.3078  0.2379  0.2118
 8054TIP3   OH245652   1.680   0.860  13.300 -0.3460  0.1068 -0.3770
 8054TIP3    H145653   1.595   0.846  13.342  0.5865 -0.3597  1.4443
 8054TIP3    H245654   1.742   0.809  13.352  1.0617  0.3412 -1.7243
 8055TIP3   OH245655   0.180   4.345   2.711  0.1482  0.1846  0.2722
 8055TIP3    H145656   0.227   4.262   2.701  1.7070  1.0187  0.3459
 8055TIP3    H245657   0.229   4.407   2.657 -2.1793  0.6610 -1.4332
 8056TIP3   OH245658   5.500   6.156   0.048  0.6364  0.2882  0.3004
 8056TIP3    H145659   5.585   6.161   0.006  0.4644  0.8699  0.0108
 8056TIP3    H245660   5.443   6.117  -0.019  0.2827  1.5410 -0.1441
 8057TIP3   OH245661   4.481   3.186   2.494  0.7524 -1.1645  0.0782
 8057TIP3    H145662   4.393   3.156   2.514 -0.1995 -0.2245 -2.2524
 8057TIP3    H245663   4.470   3.244   2.418  3.0648  1.0529  1.2621
 8058TIP3   OH245664   4.092   0.172   3.808 -1.0837  0.7833  0.0597
 8058TIP3    H145665   4.020   0.171   3.870 -2.7823 -1.3858 -1.7625
 8058TIP3    H245666   4.053   0.141   3.726  1.1523  2.9171 -1.9627
 8059TIP3   OH245667   5.560   2.504  12.979  0.3363  0.2907 -0.0899
 8059TIP3    H145668   5.611   2.515  12.899  1.1179  0.4260  0.4126
 8059TIP3    H245669   5.583   2.580  13.033  1.0429 -0.5740  0.8938
 8060TIP3   OH245670   0.275   6.067   3.627 -0.4961 -0.6250  0.3285
 8060TIP3    H145671   0.242   6.155   3.642 -0.4635 -0.3263 -1.2167
 8060TIP3    H245672   0.313   6.041   3.711 -1.5563  0.3579  1.1372
 8061TIP3   OH245673   3.110   6.191  12.472  0.3334 -0.0793  0.6249
 8061TIP3    H145674   3.147   6.110  12.438  1.6206 -0.1842  2.1632
 8061TIP3    H245675   3.151   6.203  12.558  1.4579  3.0369 -0.1950
 8062TIP3   OH245676   5.552   0.212   0.378  0.6827 -0.4527 -0.3145
 8062TIP3    H145677   5.623   0.250   0.429  0.5514 -1.7505  0.9001
 8062TIP3    H245678   5.580   0.122   0.361  0.1524 -0.4174 -1.4619
 8063TIP3   OH245679   5.188   0.181  15.364 -0.4632  0.3522 -0.3723
 8063TIP3    H145680   5.263   0.154  15.310 -1.2028  2.4872 -2.6518
 8063TIP3    H245681   5.119   0.118  15.343 -0.1410 -0.0192 -0.3326
 8064TIP3   OH245682   5.663   3.517   0.219 -0.1364  0.1367  0.0693
 8064TIP3    H145683   5.606   3.474   0.154 -0.1148 -0.4822  0.4510
 8064TIP3    H245684   5.747   3.474   0.209  0.2986  1.1060 -0.5438
 8065TIP3   OH245685   3.129   1.592   3.906 -0.4590 -0.0624  0.5607
 8065TIP3    H145686   3.077   1.672   3.894 -2.5900 -1.4850 -0.3116
 8065TIP3    H245687   3.078   1.524   3.862  0.6671 -2.1434  2.2841
 8066TIP3   OH245688   1.988   2.025   5.687 -0.1415  0.0460 -0.8046
 8066TIP3    H145689   1.929   2.024   5.762  2.5929 -0.9701  1.5282
 8066TIP3    H245690   1.988   1.935   5.655 -1.3362  0.4870 -2.1384
 8067TIP3   OH245691   4.486   5.945   4.346 -0.3348 -0.3273 -0.1166
 8067TIP3    H145692   4.429   5.882   4.390  2.1997 -2.0395  0.9558
 8067TIP3    H245693   4.488   5.916   4.254 -0.1481 -1.1000  0.1211
 8068TIP3   OH245694   6.314   0.617   4.538 -0.1084  0.1934 -0.2035
 8068TIP3    H145695   6.367   0.550   4.495 -0.4183 -0.3829  0.2880
 8068TIP3    H245696   6.230   0.574   4.556 -1.2293  1.4567 -2.0869
 8069TIP3   OH245697   4.987   3.636  13.001 -0.6268 -0.4280  0.1052
 8069TIP3    H145698   5.046   3.570  12.965 -0.9880 -0.7526  0.1011
 8069TIP3    H245699   5.013   3.717  12.958 -1.2557 -0.8590 -1.1725
 8070TIP3   OH245700   0.158   2.433   6.625  0.4661 -0.2947  0.1489
 8070TIP3    H145701   0.101   2.417   6.550  1.4368  0.5104 -0.8075
 8070TIP3    H245702   0.118   2.507   6.671 -0.2531 -0.9338  0.5805
 8071TIP3   OH245703   3.480   1.818  16.001  0.2631  0.5767 -0.1139
 8071TIP3    H145704   3.452   1.799  16.091  0.4806 -0.3249 -0.2306
 8071TIP3    H245705   3.575   1.815  16.004  0.2695  0.4934 -0.3915
 8072TIP3   OH245706   1.669   0.096   2.873  0.7234  0.6400  0.2743
 8072TIP3    H145707   1.648   0.127   2.785  1.8777 -2.1234 -1.1191
 8072TIP3    H245708   1.591   0.048   2.901  1.2943 -0.7877 -0.4689
 8073TIP3   OH245709   3.492   1.877  12.117 -0.0584  0.8161 -0.1605
 8073TIP3    H145710   3.437   1.890  12.194  0.2201  1.7676 -0.1031
 8073TIP3    H245711   3.571   1.836  12.150 -0.5902 -0.2921 -0.2004
 8074TIP3   OH245712   3.610   1.705  17.169 -0.0369  0.4203 -0.3755
 8074TIP3    H145713   3.640   1.613  17.169  0.2249  0.4822  1.0702
 8074TIP3    H245714   3.606   1.729  17.261  0.3186  2.0160 -0.7441
 8075TIP3   OH245715   6.426   0.952   1.468  0.2741  0.0594 -0.5613
 8075TIP3    H145716   6.345   0.917   1.431  1.0611 -1.2419 -1.1420
 8075TIP3    H245717   6.436   1.038   1.427  0.0174 -0.4610 -1.7739
 8076TIP3   OH245718   1.708   6.118   1.163 -0.0447  0.0392  0.0109
 8076TIP3    H145719   1.772   6.089   1.098  0.3760 -0.4032  0.6037
 8076TIP3    H245720   1.652   6.042   1.176  0.9270 -0.4867  1.4135
 8077TIP3   OH245721   6.077   2.007  16.307 -0.1954 -0.7308 -0.1348
 8077TIP3    H145722   6.130   1.930  16.329  1.4391  0.2175 -0.6018
 8077TIP3    H245723   6.091   2.067  16.380  0.0229 -0.1384 -0.6647
 8078TIP3   OH245724   4.623   4.332   0.533 -0.3423 -0.4509 -0.4450
 8078TIP3    H145725   4.536   4.365   0.513 -0.1878 -0.4897 -1.2109
 8078TIP3    H245726   4.621   4.314   0.627 -1.0995 -0.2875 -0.4249
 8079TIP3   OH245727   4.620   3.306   4.154 -0.1642 -0.1316  0.4053
 8079TIP3    H145728   4.669   3.252   4.092  0.9545 -0.4530  1.5210
 8079TIP3    H245729   4.528   3.289   4.133  0.1625  0.1763 -1.4809
 8080TIP3   OH245730   3.610   6.090  14.078 -0.0548  0.2026  0.0625
 8080TIP3    H145731   3.704   6.086  14.096 -0.4572 -1.3936  2.3049
 8080TIP3    H245732   3.603   6.141  13.997  2.4900  3.0766  1.4562
 8081TIP3   OH245733   2.581   5.551  12.628  0.1549 -0.4327 -0.2535
 8081TIP3    H145734   2.572   5.557  12.724  0.8648 -1.9346 -0.0685
 8081TIP3    H245735   2.668   5.514  12.614 -0.3259 -1.1873 -1.4337
 8082TIP3   OH245736   4.880   4.866  12.676 -0.4338  0.3230  0.2595
 8082TIP3    H145737   4.925   4.873  12.591 -1.5360 -0.5077 -0.4232
 8082TIP3    H245738   4.788   4.881  12.655 -0.8110 -0.5732  1.2022
 8083TIP3   OH245739   0.770   1.154  10.123  0.5894  0.7133 -0.5529
 8083TIP3    H145740   0.701   1.089  10.134  3.1054 -1.8015  1.8965
 8083TIP3    H245741   0.744   1.226  10.182 -0.3402  0.2272 -0.3467
 8084TIP3   OH245742   2.039   2.690  15.711 -0.1346 -0.7787 -0.0527
 8084TIP3    H145743   1.989   2.607  15.713  0.2824 -1.0259  0.2381
 8084TIP3    H245744   2.018   2.728  15.625 -0.8533 -0.8594  0.0771
 8085TIP3   OH245745   1.337   4.766  11.579  0.3858 -0.2404  0.2835
 8085TIP3    H145746   1.282   4.792  11.653  0.0346 -0.7937  0.2182
 8085TIP3    H245747   1.406   4.713  11.618 -0.8580 -2.1604  0.0260
 8086TIP3   OH245748   2.012   0.152   5.627 -0.1046  0.0542 -1.1711
 8086TIP3    H145749   2.084   0.088   5.625  1.1976  1.4234  0.0565
 8086TIP3    H245750   1.952   0.118   5.694  0.5237  0.0736 -0.5975
 8087TIP3   OH245751   1.764   4.898  13.920  0.3252 -0.3104  0.7570
 8087TIP3    H145752   1.826   4.825  13.915  0.0064 -0.5423  0.1128
 8087TIP3    H245753   1.684   4.860  13.957  0.1588 -0.2878  0.4221
 8088TIP3   OH245754   2.040   6.055  11.342 -0.4051 -0.2110  0.9663
 8088TIP3    H145755   2.060   6.134  11.292 -0.2334  0.3467  1.8905
 8088TIP3    H245756   2.125   6.010  11.351 -0.9426 -2.1969 -2.2575
 8089TIP3   OH245757   0.701   1.689   6.584 -0.3099  0.0550  0.7027
 8089TIP3    H145758   0.615   1.700   6.542 -0.3990 -1.3374  0.4725
 8089TIP3    H245759   0.759   1.665   6.512  0.0661  0.0056  1.0207
 8090TIP3   OH245760   1.117   1.214  15.910 -0.6599  0.2281  0.0629
 8090TIP3    H145761   1.026   1.234  15.931 -0.5999  0.2734  0.2798
 8090TIP3    H245762   1.112   1.162  15.830 -0.8461  0.6812 -0.2220
 8091TIP3   OH245763   6.144   1.969   2.720 -0.3300  0.6057  0.2383
 8091TIP3    H145764   6.132   1.984   2.626 -1.0585 -0.4286  0.1497
 8091TIP3    H245765   6.138   1.874   2.730  1.3339  0.5616  1.1256
 8092TIP3   OH245766   1.596   6.606   1.509 -0.4637  0.1077  0.3412
 8092TIP3    H145767   1.651   6.633   1.582  0.4267 -1.5727  0.3368
 8092TIP3    H245768   1.510   6.589   1.549 -0.4902  0.9133  0.6619
 8093TIP3   OH245769   5.868   0.869   3.162  0.2072  0.6746 -0.2210
 8093TIP3    H145770   5.808   0.827   3.224  0.9796 -1.1055 -0.5914
 8093TIP3    H245771   5.854   0.821   3.080 -0.2617  2.4934 -1.2647
 8094TIP3   OH245772   4.646   3.406   3.468  0.2918  0.1796 -0.5243
 8094TIP3    H145773   4.675   3.384   3.557  1.9615  0.5167 -0.9533
 8094TIP3    H245774   4.564   3.453   3.481  0.3235 -0.0849  0.8220
 8095TIP3   OH245775   1.207   6.744  10.269 -0.0394 -0.1992 -0.1090
 8095TIP3    H145776   1.167   6.770  10.186 -0.3935  0.3419  0.2279
 8095TIP3    H245777   1.154   6.669  10.299 -0.9347  0.6226  0.4201
 8096TIP3   OH245778   4.962   4.635   4.315  0.1231 -0.0492  0.8941
 8096TIP3    H145779   4.887   4.616   4.372 -0.0956  1.4622  1.1587
 8096TIP3    H245780   4.933   4.611   4.227 -1.0316  1.3771  0.8574
 8097TIP3   OH245781   3.160   0.056   2.373  0.0571  0.7458  0.0912
 8097TIP3    H145782   3.176   0.105   2.454  1.3951  0.5236 -0.0067
 8097TIP3    H245783   3.068   0.030   2.378  0.5666 -0.9902  2.5424
 8098TIP3   OH245784   6.587   6.569   1.740  0.3458 -0.0991 -0.3406
 8098TIP3    H145785   6.620   6.603   1.657  0.9825  0.1618  0.0119
 8098TIP3    H245786   6.527   6.636   1.771  0.3751 -0.0348 -0.4222
 8099TIP3   OH245787   1.205   1.204  11.520 -0.4549 -0.3598 -0.3761
 8099TIP3    H145788   1.222   1.192  11.613 -1.6285  1.5541  0.1455
 8099TIP3    H245789   1.176   1.295  11.512 -2.9093 -1.1845 -2.2265
 8100TIP3   OH245790   5.412   4.920   2.474 -1.3208  0.4096 -0.2403
 8100TIP3    H145791   5.351   4.945   2.544 -0.3147 -0.7517  1.1058
 8100TIP3    H245792   5.494   4.900   2.519 -0.4057  0.3686 -1.8463
 8101TIP3   OH245793   2.114   2.201  17.039  0.3965  0.4253 -0.0510
 8101TIP3    H145794   2.087   2.158  17.120 -1.0039  0.9781 -0.1995
 8101TIP3    H245795   2.033   2.232  17.000  1.1928  1.5306 -0.8919
 8102TIP3   OH245796   5.811   1.253  11.457  0.1131 -0.0611 -0.2105
 8102TIP3    H145797   5.852   1.168  11.443 -0.7109 -0.1927 -2.1120
 8102TIP3    H245798   5.876   1.316  11.430  0.9221 -0.0110  1.6921
 8103TIP3   OH245799   1.154   2.963  16.256  0.0603 -0.3393  0.0244
 8103TIP3    H145800   1.067   3.003  16.255 -0.7997 -2.0602  0.8126
 8103TIP3    H245801   1.177   2.952  16.164  0.0777  1.3728 -0.2042
 8104TIP3   OH245802   3.850   6.682   6.395 -0.7904 -0.3058  0.4004
 8104TIP3    H145803   3.857   6.587   6.384  3.6500 -0.1172 -0.1654
 8104TIP3    H245804   3.911   6.702   6.466 -0.4534  2.2462 -0.5139
 8105TIP3   OH245805   3.182   3.018  11.475 -0.0743  0.4587  0.0348
 8105TIP3    H145806   3.116   3.020  11.405 -1.3695  2.5638  1.1894
 8105TIP3    H245807   3.134   3.042  11.554  1.2955 -2.0801  1.7649
 8106TIP3   OH245808   0.952   5.015   4.501 -0.3290 -0.2622  0.0758
 8106TIP3    H145809   1.009   4.940   4.482 -1.3230 -1.2434  0.9180
 8106TIP3    H245810   0.918   5.041   4.415 -0.4706 -1.1692 -0.1481
 8107TIP3   OH245811   4.684   0.726  12.794 -0.0801  0.4713 -0.0511
 8107TIP3    H145812   4.604   0.674  12.804 -0.3806  1.3226  2.5511
 8107TIP3    H245813   4.653   0.814  12.771  0.2852  0.2563 -1.4877
 8108TIP3   OH245814   0.879   2.581   1.368  0.0173  0.1572  0.3214
 8108TIP3    H145815   0.960   2.572   1.418 -0.2981  0.4599  0.8876
 8108TIP3    H245816   0.837   2.495   1.375  0.6867 -0.2792 -0.6924
 8109TIP3   OH245817   4.659   4.209   1.885 -0.2682 -1.1300 -0.1861
 8109TIP3    H145818   4.677   4.170   1.799  0.8596 -0.2056 -0.3958
 8109TIP3    H245819   4.688   4.142   1.947 -1.2354 -1.8687 -0.5020
 8110TIP3   OH245820   6.340   3.881   3.434  0.1490 -0.4028  0.1351
 8110TIP3    H145821   6.413   3.917   3.384  0.5919 -0.3935  0.7645
 8110TIP3    H245822   6.354   3.915   3.523 -0.7403 -0.2336  0.2186
 8111TIP3   OH245823   3.925   1.584  10.935  0.4694 -0.3515 -0.1958
 8111TIP3    H145824   3.907   1.670  10.896  1.1331  0.6064  1.4970
 8111TIP3    H245825   4.008   1.557  10.895  1.6940  1.1066  1.2262
 8112TIP3   OH245826   1.779   6.299  15.715 -0.3455 -0.0875  0.4457
 8112TIP3    H145827   1.746   6.252  15.638 -0.1822  0.7215 -0.1264
 8112TIP3    H245828   1.867   6.263  15.728 -0.9788 -1.4305  1.2910
 8113TIP3   OH245829   5.557   4.966   5.177  0.0406  0.6019  0.5852
 8113TIP3    H145830   5.533   4.902   5.244  0.7428 -0.4664 -0.1536
 8113TIP3    H245831   5.599   5.037   5.226  0.5693 -0.1751  1.2885
 8114TIP3   OH245832   1.192   2.758   4.763 -0.1174  0.0193 -0.4982
 8114TIP3    H145833   1.288   2.755   4.767 -0.1563 -1.0633  0.2217
 8114TIP3    H245834   1.164   2.706   4.839 -1.2871  2.1626  0.6472
 8115TIP3   OH245835   1.599   2.312  15.573  0.4800 -0.0261 -0.1344
 8115TIP3    H145836   1.505   2.312  15.586  0.5478  1.9235  0.6728
 8115TIP3    H245837   1.628   2.398  15.604  2.8314 -1.3933  1.8729
 8116TIP3   OH245838   3.528   4.329  14.413  0.2831  0.2120  0.1654
 8116TIP3    H145839   3.589   4.403  14.419 -0.4620  0.8419  0.1212
 8116TIP3    H245840   3.466   4.355  14.345  1.7003 -1.7140 -1.9932
 8117TIP3   OH245841   3.279   6.441  11.586 -0.1892  0.0621  0.0128
 8117TIP3    H145842   3.367   6.463  11.557  0.2803 -0.6572  0.8287
 8117TIP3    H245843   3.250   6.373  11.525 -0.4854  0.8135 -0.7059
 8118TIP3   OH245844   5.322   5.745   1.655 -1.2226 -0.0687  0.2986
 8118TIP3    H145845   5.397   5.788   1.614 -0.8268 -0.0406  1.0240
 8118TIP3    H245846   5.275   5.817   1.699 -1.0775 -0.2389  0.7354
 8119TIP3   OH245847   4.564   0.545   2.958 -0.5928 -0.0745  0.1578
 8119TIP3    H145848   4.643   0.513   3.002 -0.5673 -0.3043 -0.0527
 8119TIP3    H245849   4.492   0.514   3.012 -0.5422  0.0803  0.3154
 8120TIP3   OH245850   3.044   1.096  15.330 -0.7344 -0.3921  0.1149
 8120TIP3    H145851   3.118   1.134  15.377 -2.0449  1.1553  1.0745
 8120TIP3    H245852   3.077   1.080  15.242  0.6725  0.4590  0.4525
 8121TIP3   OH245853   2.125   3.998  12.693 -0.6299  0.0283  0.2134
 8121TIP3    H145854   2.150   4.063  12.758  0.7356 -0.2162 -0.0332
 8121TIP3    H245855   2.093   3.923  12.743 -2.7861  1.0568  0.4896
 8122TIP3   OH245856   1.115   0.727   3.597  0.1897 -0.1890 -0.7753
 8122TIP3    H145857   1.146   0.791   3.661 -0.2873  0.2153 -0.9410
 8122TIP3    H245858   1.194   0.680   3.570  0.6088  0.5810 -0.9230
 8123TIP3   OH245859   1.065   6.649  16.263  0.2177  0.1858 -0.0060
 8123TIP3    H145860   1.019   6.730  16.240  1.2852  0.8068 -0.0354
 8123TIP3    H245861   1.096   6.664  16.352 -2.3974 -1.5268  1.3117
 8124TIP3   OH245862   4.086   3.277  11.321 -0.2863  0.1881 -1.1721
 8124TIP3    H145863   4.126   3.200  11.280 -0.9937  0.6900 -2.9086
 8124TIP3    H245864   3.993   3.255  11.328 -0.2126  0.1900  0.0499
 8125TIP3   OH245865   1.245   5.399   0.766  0.7510  0.3538 -0.0415
 8125TIP3    H145866   1.223   5.406   0.859  2.8891 -0.7705  0.6178
 8125TIP3    H245867   1.336   5.429   0.761  1.7302 -2.4765 -1.2056
 8126TIP3   OH245868   0.298   5.667  14.981 -0.1212 -0.3959  0.7232
 8126TIP3    H145869   0.228   5.603  14.975 -0.2746 -0.2709  1.1773
 8126TIP3    H245870   0.351   5.652  14.902 -1.8334  0.9108 -0.7474
 8127TIP3   OH245871   1.168   3.921  12.560 -0.4409  0.0371  0.2621
 8127TIP3    H145872   1.163   4.016  12.570 -0.9244 -0.0099  0.5417
 8127TIP3    H245873   1.077   3.893  12.551 -0.2488 -0.3243 -0.6042
 8128TIP3   OH245874   0.207   0.525  14.565 -0.0899 -0.3270 -0.3090
 8128TIP3    H145875   0.173   0.540  14.653  0.4234  0.1583 -0.1907
 8128TIP3    H245876   0.284   0.581  14.559  0.2232 -0.8121 -0.8618
 8129TIP3   OH245877   1.939   4.847  14.756  0.1675 -0.3742 -0.1144
 8129TIP3    H145878   1.924   4.883  14.844 -0.5081 -0.1720 -0.3076
 8129TIP3    H245879   2.034   4.852  14.745  0.2433 -0.1972  0.5186
 8130TIP3   OH245880   2.562   3.771  14.090  0.4218  0.5871 -0.5579
 8130TIP3    H145881   2.598   3.848  14.133 -1.0057  1.5372 -0.9976
 8130TIP3    H245882   2.638   3.727  14.051  1.2114  2.0061 -0.6849
 8131TIP3   OH245883   0.109   3.562   2.296 -0.2878  0.0794  0.2105
 8131TIP3    H145884   0.104   3.656   2.278 -0.3443 -0.2968 -2.0265
 8131TIP3    H245885   0.022   3.538   2.327 -1.3024  0.2574 -2.2772
 8132TIP3   OH245886   6.239   2.347   5.705 -0.2970 -0.3168  0.0696
 8132TIP3    H145887   6.203   2.342   5.794 -0.3624 -0.5326  0.0317
 8132TIP3    H245888   6.327   2.312   5.713 -0.1738 -0.0017  0.1172
 8133TIP3   OH245889   6.448   2.058  16.253 -0.7015 -0.1561 -0.0563
 8133TIP3    H145890   6.400   2.047  16.172 -1.4638 -2.3495  0.6362
 8133TIP3    H245891   6.434   1.977  16.301  1.9889 -0.0413  1.0909
 8134TIP3   OH245892   3.381   6.020  13.828 -0.3304 -0.3869 -0.3225
 8134TIP3    H145893   3.464   6.067  13.816 -0.5764  0.4894  1.1296
 8134TIP3    H245894   3.377   5.959  13.754  0.4079  1.2851 -1.8077
 8135TIP3   OH245895   2.938   0.761  16.318 -0.8003  0.6023 -0.4169
 8135TIP3    H145896   2.929   0.810  16.237  0.8438  2.5743  0.4969
 8135TIP3    H245897   3.011   0.803  16.364 -0.1412 -1.9194  1.0440
 8136TIP3   OH245898   4.406   5.685   3.888 -0.7015 -0.2518 -0.5672
 8136TIP3    H145899   4.486   5.632   3.880 -0.0916  0.7644 -1.3748
 8136TIP3    H245900   4.337   5.629   3.854 -0.5061 -1.4775  0.9302
 8137TIP3   OH245901   1.692   4.553  14.600 -0.4719  0.2094  0.1030
 8137TIP3    H145902   1.768   4.509  14.562 -0.6722  0.2595 -0.3551
 8137TIP3    H245903   1.618   4.526  14.546 -0.8662 -0.2344  0.8526
 8138TIP3   OH245904   4.885   1.445   0.209  1.2989  0.0822 -0.1486
 8138TIP3    H145905   4.872   1.380   0.141 -2.1203  0.5410 -0.0806
 8138TIP3    H245906   4.875   1.397   0.291  1.8869  0.1587 -0.0258
 8139TIP3   OH245907   1.952   2.058  16.421  0.0657  0.3211 -0.0093
 8139TIP3    H145908   1.859   2.040  16.411  0.0044  0.8747 -0.5034
 8139TIP3    H245909   1.994   1.972  16.422 -0.8397 -0.3605  4.9327
 8140TIP3   OH245910   6.096   3.998  14.740 -0.4641 -0.0201 -0.0481
 8140TIP3    H145911   6.058   4.027  14.823 -0.9073  0.9000 -0.5529
 8140TIP3    H245912   6.148   4.072  14.710 -2.1419  0.5750 -1.6866
 8141TIP3   OH245913   0.369   6.444  12.936 -0.4737  0.0859  0.6705
 8141TIP3    H145914   0.315   6.517  12.904  1.8732  1.9609  0.7289
 8141TIP3    H245915   0.326   6.417  13.017 -2.0976  0.5312  0.0106
 8142TIP3   OH245916   5.541   2.133   0.237 -0.0515 -0.0427 -0.0360
 8142TIP3    H145917   5.548   2.117   0.143  1.1528 -1.1613  0.2017
 8142TIP3    H245918   5.631   2.152   0.265 -0.5526  1.2777  0.7341
 8143TIP3   OH245919   2.991   2.880   3.083 -0.2588 -0.2002  0.1550
 8143TIP3    H145920   3.086   2.876   3.086 -0.1568  1.3081 -0.0950
 8143TIP3    H245921   2.964   2.892   3.174 -0.0498  1.3395  0.0488
 8144TIP3   OH245922   0.358   2.050  14.753 -0.6516 -0.0233  0.2253
 8144TIP3    H145923   0.384   1.980  14.812 -0.0539 -0.5716 -0.6717
 8144TIP3    H245924   0.284   2.014  14.704 -0.1723 -0.1242 -0.4257
 8145TIP3   OH245925   3.439   1.303  16.074  0.0030  0.1286  0.3881
 8145TIP3    H145926   3.391   1.339  16.149  0.6697  0.7961  0.5065
 8145TIP3    H245927   3.519   1.267  16.111  1.1029  1.8845 -0.1431
 8146TIP3   OH245928   1.780   2.386   4.408  0.0672 -0.3509 -0.1027
 8146TIP3    H145929   1.686   2.394   4.392 -0.2685 -1.7626  0.9535
 8146TIP3    H245930   1.813   2.338   4.333 -0.1729 -0.4400 -0.1526
 8147TIP3   OH245931   5.808   6.398  12.342 -0.6277  0.1902 -0.4806
 8147TIP3    H145932   5.829   6.311  12.307  1.2401 -0.3687  1.8261
 8147TIP3    H245933   5.734   6.383  12.401  0.1126  0.0359  0.4158
 8148TIP3   OH245934   0.550   1.200  15.252 -0.4035  0.2163 -0.1596
 8148TIP3    H145935   0.589   1.181  15.167 -2.3120 -0.2896 -0.9784
 8148TIP3    H245936   0.601   1.274  15.286  0.4395  0.3845 -1.6952
 8149TIP3   OH245937   1.563   0.793   0.963 -0.0195  0.7324  0.1756
 8149TIP3    H145938   1.579   0.721   1.025  1.4225  2.0032  1.3727
 8149TIP3    H245939   1.645   0.802   0.915  1.0923  3.5788  2.2996
 8150TIP3   OH245940   2.646   3.404   6.520  0.2920  0.4713  0.2807
 8150TIP3    H145941   2.613   3.479   6.569  0.1676 -0.6994  2.0910
 8150TIP3    H245942   2.576   3.384   6.457 -0.1642  1.1690  0.5509
 8151TIP3   OH245943   5.555   6.561   5.233  0.4018  0.3935 -0.0793
 8151TIP3    H145944   5.549   6.469   5.257  0.6125  0.4141  0.0533
 8151TIP3    H245945   5.617   6.599   5.295 -0.4843  0.8564  0.5416
 8152TIP3   OH245946   2.254   4.512   2.152 -0.3865  0.1539  0.3731
 8152TIP3    H145947   2.214   4.446   2.095 -0.9871  0.2955  0.6222
 8152TIP3    H245948   2.309   4.564   2.094  0.3432 -0.7596  0.2259
 8153TIP3   OH245949   1.015   6.064  13.635 -0.3127  0.2398 -0.5250
 8153TIP3    H145950   1.057   6.084  13.719 -0.6985  0.2372 -0.3253
 8153TIP3    H245951   1.078   6.010  13.588  0.2512  0.9255 -0.5788
 8154TIP3   OH245952   3.083   5.941  14.237  0.1681  0.3620  0.7420
 8154TIP3    H145953   3.013   5.886  14.200  0.0319 -0.4172  2.0950
 8154TIP3    H245954   3.159   5.923  14.182 -0.1842 -0.3030  0.4570
 8155TIP3   OH245955   3.558   3.887  13.645 -0.1408  0.1680  0.0407
 8155TIP3    H145956   3.649   3.888  13.676 -0.5288 -2.9001  1.6203
 8155TIP3    H245957   3.514   3.824  13.702 -3.1500  1.1241 -1.0711
 8156TIP3   OH245958   1.903   6.561   0.388 -0.1205 -0.0461  0.2744
 8156TIP3    H145959   1.890   6.471   0.357 -0.3888  0.5775 -1.5417
 8156TIP3    H245960   1.878   6.616   0.314 -0.7391  1.5674  1.6161
 8157TIP3   OH245961   4.113   5.802  14.430  0.4436 -1.1437 -0.4422
 8157TIP3    H145962   4.080   5.892  14.438  2.1930 -0.5648  0.6931
 8157TIP3    H245963   4.060   5.752  14.492  1.6983 -0.1869  1.5134
 8158TIP3   OH245964   3.023   1.361  13.889  0.6416  0.4807 -0.0379
 8158TIP3    H145965   3.068   1.445  13.892 -0.2922  1.0568 -1.2514
 8158TIP3    H245966   2.949   1.375  13.830 -2.5820  0.2986  3.4972
 8159TIP3   OH245967   2.648   6.077  14.787 -0.3412 -0.2166  0.1049
 8159TIP3    H145968   2.684   6.013  14.726  1.9861 -0.6962  1.8614
 8159TIP3    H245969   2.553   6.070  14.776 -0.0455 -1.1581 -2.5070
 8160TIP3   OH245970   5.446   4.713   6.131  0.1227 -0.4464  0.2268
 8160TIP3    H145971   5.517   4.772   6.107 -0.0508 -0.2952  0.0917
 8160TIP3    H245972   5.472   4.678   6.216 -0.5524  1.0722  1.0992
 8161TIP3   OH245973   4.526   6.183  17.129 -0.3729  0.5938 -0.4514
 8161TIP3    H145974   4.601   6.232  17.096 -1.5136  1.8093 -1.3540
 8161TIP3    H245975   4.549   6.161  17.219  1.8332 -0.7229 -1.2376
 8162TIP3   OH245976   1.523   6.173   3.780  0.6315 -0.4635 -0.0393
 8162TIP3    H145977   1.512   6.111   3.709  1.3084  0.4273 -0.9536
 8162TIP3    H245978   1.525   6.259   3.737 -0.7819  0.2518  1.2291
 8163TIP3   OH245979   1.787   6.511   2.087 -0.5258  0.6851  0.0740
 8163TIP3    H145980   1.864   6.455   2.077  0.6174  2.4488 -1.9225
 8163TIP3    H245981   1.715   6.458   2.055  0.1475 -0.3768  0.2455
 8164TIP3   OH245982   0.381   0.496  13.784  0.5432  0.0705  0.2798
 8164TIP3    H145983   0.344   0.566  13.837 -0.5765  0.5754 -1.0967
 8164TIP3    H245984   0.362   0.416  13.833 -1.7754  0.3889 -0.0200
 8165TIP3   OH245985   0.109   3.383   0.525 -0.1765 -0.3420 -0.1637
 8165TIP3    H145986   0.056   3.462   0.522 -2.0594 -1.5143  0.7780
 8165TIP3    H245987   0.175   3.401   0.592 -0.3130  0.5700 -0.2597
 8166TIP3   OH245988   4.999   6.529  15.135  0.2869  0.4445 -0.5377
 8166TIP3    H145989   4.903   6.540  15.137  0.4888  2.7098 -0.8502
 8166TIP3    H245990   5.021   6.531  15.043  0.5517 -1.3502 -0.5363
 8167TIP3   OH245991   2.589   3.057  15.945 -0.2359 -0.5338  0.0189
 8167TIP3    H145992   2.593   3.121  16.016  0.1682  1.1069 -1.4139
 8167TIP3    H245993   2.681   3.038  15.924 -0.3237  0.0218 -0.9270
 8168TIP3   OH245994   0.146   4.876   4.106  0.2374  0.0216 -0.7607
 8168TIP3    H145995   0.103   4.791   4.110  0.5997 -0.1359  0.7164
 8168TIP3    H245996   0.240   4.856   4.113  0.3602  0.5108 -0.9753
 8169TIP3   OH245997   2.737   2.200  16.097  0.1452  0.0699  0.8721
 8169TIP3    H145998   2.809   2.207  16.034 -1.0271 -0.8224 -0.6654
 8169TIP3    H245999   2.662   2.174  16.044 -0.5535 -2.4074  2.8665
 8170TIP3   OH246000   5.809   0.553  17.080  0.1500  0.3048  0.5406
 8170TIP3    H146001   5.846   0.501  17.151  0.3301 -0.1122  0.1414
 8170TIP3    H246002   5.739   0.498  17.043 -0.0801  0.6020  0.5276
 8171TIP3   OH246003   6.199   3.422  14.841  0.4284 -0.4098 -0.1055
 8171TIP3    H146004   6.240   3.337  14.825  2.5244  0.6654 -0.7033
 8171TIP3    H246005   6.226   3.447  14.929  0.6117  0.0619 -0.2916
 8172TIP3   OH246006   5.961   5.689   2.050 -0.4954  0.0519 -0.2825
 8172TIP3    H146007   5.942   5.603   2.085 -4.2139  0.6726 -0.3467
 8172TIP3    H246008   5.983   5.673   1.958  0.1911 -0.8951  0.0359
 8173TIP3   OH246009   0.717   1.262  11.650 -0.0219 -0.5482  0.2331
 8173TIP3    H146010   0.746   1.353  11.641 -0.9722 -0.1832  0.7606
 8173TIP3    H246011   0.754   1.233  11.734  0.8837 -0.9036 -0.2632
 8174TIP3   OH246012   4.335   6.400   5.664 -0.5687  0.1127 -1.0015
 8174TIP3    H146013   4.395   6.453   5.612  0.7070  0.2023  0.4644
 8174TIP3    H246014   4.342   6.437   5.753 -2.2308 -0.3771 -0.6269
 8175TIP3   OH246015   5.957   0.484  12.702  0.3728  0.4022  0.3408
 8175TIP3    H146016   5.926   0.525  12.621  1.4005 -0.5951 -0.5861
 8175TIP3    H246017   5.879   0.477  12.756 -0.0682  2.4787  0.0778
 8176TIP3   OH246018   0.909   5.603  15.465 -0.7411 -0.0270  0.4930
 8176TIP3    H146019   0.902   5.527  15.522 -2.9570 -0.9655 -0.9140
 8176TIP3    H246020   0.884   5.571  15.378  1.0788  1.6777 -0.7544
 8177TIP3   OH246021   2.381   6.354  15.094  0.2137 -0.5968 -0.2216
 8177TIP3    H146022   2.343   6.285  15.149 -1.4361 -1.4724 -2.3175
 8177TIP3    H246023   2.472   6.327  15.081  0.4579 -0.7079  1.4613
 8178TIP3   OH246024   2.189   4.982   2.428 -0.1647  0.6468 -0.3716
 8178TIP3    H146025   2.177   5.013   2.339 -2.4659 -2.7560 -1.4378
 8178TIP3    H246026   2.224   4.893   2.419 -1.0907 -0.0602  2.0541
 8179TIP3   OH246027   1.181   2.668   5.017 -0.4113 -0.1113 -0.3220
 8179TIP3    H146028   1.119   2.740   5.019 -0.6123 -0.2905  0.0335
 8179TIP3    H246029   1.178   2.631   5.106  0.8926  0.4668 -0.0223
 8180TIP3   OH246030   1.997   0.600  12.577  0.1100 -0.0773 -0.2388
 8180TIP3    H146031   2.083   0.638  12.560  1.4437 -2.8319 -0.3205
 8180TIP3    H246032   1.989   0.600  12.673 -1.1928  2.8174 -0.2567
 8181TIP3   OH246033   1.950   1.533  12.317  0.4575 -0.4452  0.2953
 8181TIP3    H146034   1.914   1.445  12.321  2.3235 -1.2903 -0.6505
 8181TIP3    H246035   1.882   1.585  12.272 -0.2287 -1.6010 -0.0376
 8182TIP3   OH246036   5.972   5.065  17.195 -0.0421  0.6069 -0.2891
 8182TIP3    H146037   5.926   5.007  17.257 -1.0930  2.0287  0.3126
 8182TIP3    H246038   6.018   5.005  17.136  1.1427 -0.8296  1.9422
 8183TIP3   OH246039   3.939   6.376  12.381  0.2544 -0.5398  0.0698
 8183TIP3    H146040   3.846   6.359  12.394  0.2704 -0.7225 -0.0537
 8183TIP3    H246041   3.946   6.397  12.288  0.4047 -0.9622 -0.0124
 8184TIP3   OH246042   1.486   5.889   4.493  0.5809 -0.0864 -0.4252
 8184TIP3    H146043   1.562   5.878   4.436  1.3170  0.8508  0.3547
 8184TIP3    H246044   1.482   5.807   4.543  3.4088  1.1895  2.2376
 8185TIP3   OH246045   6.443   6.083  13.046 -0.7265 -0.7100  0.2279
 8185TIP3    H146046   6.472   6.120  12.962 -0.5241 -1.3351  0.0179
 8185TIP3    H246047   6.426   6.160  13.101  1.4812 -0.3061  0.4209
 8186TIP3   OH246048   0.007   6.010  16.610  0.3047  0.2416 -0.1962
 8186TIP3    H146049  -0.063   5.967  16.660 -1.7150  0.4292 -2.6281
 8186TIP3    H246050   0.083   5.953  16.622 -1.2078 -1.9282 -0.1482
 8187TIP3   OH246051   5.199   3.759  12.419  0.5471 -0.1025  0.0148
 8187TIP3    H146052   5.253   3.828  12.382 -0.0312 -0.1616 -0.9766
 8187TIP3    H246053   5.109   3.785  12.400  0.3037 -0.9273 -0.0308
 8188TIP3   OH246054   0.735   4.167   1.839  0.6266  0.1890 -0.1166
 8188TIP3    H146055   0.824   4.147   1.811  1.0008 -1.0696  1.7683
 8188TIP3    H246056   0.745   4.242   1.899  0.5791 -0.5966  0.8955
 8189TIP3   OH246057   1.389   2.350  10.809 -0.1438 -0.9439 -0.0944
 8189TIP3    H146058   1.409   2.444  10.814 -0.7370 -0.7745 -0.6996
 8189TIP3    H246059   1.470   2.307  10.837 -0.7343 -0.2498  3.0006
 8190TIP3   OH246060   3.658   0.805   1.894  0.2642 -0.5517 -0.7263
 8190TIP3    H146061   3.623   0.727   1.938  1.0807 -0.8556 -0.6073
 8190TIP3    H246062   3.626   0.797   1.804  0.9496 -1.4157 -0.9055
 8191TIP3   OH246063   1.198   6.222  13.816  0.9449 -0.1920  0.3251
 8191TIP3    H146064   1.185   6.234  13.910  1.2651  1.1024  0.2138
 8191TIP3    H246065   1.271   6.160  13.811  0.5905 -0.6774  0.9183
 8192TIP3   OH246066   6.197   5.396  11.313  0.0076 -0.1093 -0.2495
 8192TIP3    H146067   6.142   5.427  11.385 -0.8014 -2.6091  0.3315
 8192TIP3    H246068   6.285   5.421  11.338 -0.2086 -1.2183  1.8773
 8193TIP3   OH246069   2.990   6.183  17.110  0.7146  0.3543 -0.2272
 8193TIP3    H146070   2.909   6.223  17.140  0.3030 -0.3347 -0.4063
 8193TIP3    H246071   2.967   6.140  17.027  1.9860  2.8751 -2.0473
 8194TIP3   OH246072   4.418   5.797  15.218  0.0008  0.1608  0.6185
 8194TIP3    H146073   4.474   5.859  15.267  1.3747 -0.0357 -0.6388
 8194TIP3    H246074   4.357   5.853  15.170 -0.5267  0.4035  1.5410
 8195TIP3   OH246075   4.507   2.072  12.466 -0.3017  0.0814 -0.3648
 8195TIP3    H146076   4.462   2.070  12.550 -2.3897  1.2950 -1.3866
 8195TIP3    H246077   4.456   2.014  12.409 -0.6650  1.5080 -1.5589
 8196TIP3   OH246078   0.205   1.788  12.233 -0.5320 -0.6430 -0.0711
 8196TIP3    H146079   0.286   1.756  12.274  0.9273  0.9790 -1.5200
 8196TIP3    H246080   0.157   1.708  12.211  2.1132 -1.8750 -1.9456
 8197TIP3   OH246081   4.692   1.153  13.490  0.1852 -0.3617  0.1342
 8197TIP3    H146082   4.638   1.080  13.519  0.1698  0.1070  1.3162
 8197TIP3    H246083   4.765   1.112  13.444  0.9640 -1.2226  2.0505
 8198TIP3   OH246084   2.375   3.379  14.941 -0.0543  0.4138  0.6291
 8198TIP3    H146085   2.453   3.423  14.975 -0.7384  0.5655  2.0904
 8198TIP3    H246086   2.391   3.370  14.847  1.8031  0.2439  0.9309
 8199TIP3   OH246087   2.186   4.145  12.914  0.2085  0.2949  0.1671
 8199TIP3    H146088   2.281   4.147  12.903  0.4656  0.8735  2.1602
 8199TIP3    H246089   2.165   4.223  12.966 -1.2116 -0.4150  0.7270
 8200TIP3   OH246090   6.287   5.599  12.097 -0.2372  0.1745  0.1441
 8200TIP3    H146091   6.291   5.580  12.003  0.7471 -0.3099  0.2786
 8200TIP3    H246092   6.221   5.668  12.104 -1.2953 -0.7063 -0.7469
 8201TIP3   OH246093   2.074   1.803  17.065  0.0492  0.5484  0.0455
 8201TIP3    H146094   2.118   1.774  16.985  0.4812 -1.9051  1.1005
 8201TIP3    H246095   2.140   1.793  17.133 -1.1559 -0.0966  1.1521
 8202TIP3   OH246096   3.142   0.641   1.502 -0.8703  0.0981  0.4291
 8202TIP3    H146097   3.085   0.622   1.427 -0.6240  1.7812 -0.2366
 8202TIP3    H246098   3.231   0.630   1.467 -0.7589  0.5835  0.5541
 8203TIP3   OH246099   6.256   4.270   3.429  0.5458 -0.4108 -0.4365
 8203TIP3    H146100   6.177   4.243   3.381  0.2861 -0.1652 -0.1525
 8203TIP3    H246101   6.253   4.365   3.430  0.8558 -0.3999 -0.4356
 8204TIP3   OH246102   3.991   5.375  16.958 -0.2573 -0.6193  0.2231
 8204TIP3    H146103   4.012   5.364  16.865  2.0362 -1.8658  0.8107
 8204TIP3    H246104   3.950   5.462  16.963 -0.4994 -0.5461 -1.9369
 8205TIP3   OH246105   5.865   6.591   0.189 -0.3449 -1.3785 -0.2016
 8205TIP3    H146106   5.856   6.636   0.273 -0.0814  0.0759 -0.9413
 8205TIP3    H246107   5.941   6.630   0.148 -2.1831  0.1090 -2.4194
 8206TIP3   OH246108   2.506   6.375   4.793  0.1185 -0.8013  0.0516
 8206TIP3    H146109   2.555   6.317   4.735  3.0316  0.1518  1.3717
 8206TIP3    H246110   2.507   6.460   4.750  0.4521 -0.5709  0.5007
 8207TIP3   OH246111   4.408   4.214  15.459 -0.3052  0.4183 -0.3783
 8207TIP3    H146112   4.364   4.297  15.477 -3.0590 -1.0220  0.0744
 8207TIP3    H246113   4.422   4.214  15.364 -2.7897  0.3362 -0.8192
 8208TIP3   OH246114   6.244   4.150   5.053  0.2885 -0.0807 -0.6179
 8208TIP3    H146115   6.260   4.234   5.009 -0.3308 -0.2286 -1.1454
 8208TIP3    H246116   6.228   4.174   5.144 -2.3746  0.6639 -1.2004
 8209TIP3   OH246117   1.624   1.960  11.273 -0.0640  0.2667 -0.5842
 8209TIP3    H146118   1.544   1.971  11.325 -0.5749  0.7469 -1.4540
 8209TIP3    H246119   1.682   1.909  11.330 -0.6711  0.6279  0.3925
 8210TIP3   OH246120   5.579   4.564  12.411 -0.5528 -0.3273 -0.4786
 8210TIP3    H146121   5.607   4.504  12.341 -1.1620 -0.3952 -0.6760
 8210TIP3    H246122   5.552   4.643  12.364  1.6375  0.6937 -0.1285
 8211TIP3   OH246123   1.028   5.591   2.296 -1.0069 -0.0144 -0.5108
 8211TIP3    H146124   0.935   5.570   2.305 -0.7731 -0.3002  1.8711
 8211TIP3    H246125   1.035   5.682   2.325 -0.2420 -0.7881  2.0015
 8212TIP3   OH246126   0.433   0.166  15.072 -0.2486  0.4963  0.1867
 8212TIP3    H146127   0.482   0.241  15.039  0.2609 -0.0441 -0.2841
 8212TIP3    H246128   0.342   0.183  15.045  0.0027  0.5271 -0.6532
 8213TIP3   OH246129   1.846   2.533  12.062  0.1035  0.5330 -0.1465
 8213TIP3    H146130   1.848   2.626  12.085 -1.5476  0.8838 -1.2451
 8213TIP3    H246131   1.825   2.532  11.969 -2.3890 -0.9490  0.3548
 8214TIP3   OH246132   2.807   6.218  13.658  0.6368  0.1224  0.2489
 8214TIP3    H146133   2.856   6.175  13.727 -0.8003 -1.0545  0.5788
 8214TIP3    H246134   2.810   6.311  13.681 -1.8110 -0.3838  3.3383
 8215TIP3   OH246135   6.225   2.234   6.589  0.4547  0.4860  0.3228
 8215TIP3    H146136   6.241   2.225   6.495  0.5755  0.7200  0.3199
 8215TIP3    H246137   6.310   2.213   6.629  0.1378 -0.6358  0.4383
 8216TIP3   OH246138   1.271   2.352   2.638  0.0012  0.6009  0.5359
 8216TIP3    H146139   1.206   2.282   2.647 -0.6984  0.9702 -1.2331
 8216TIP3    H246140   1.331   2.321   2.570  1.0637  0.7312  1.3969
 8217TIP3   OH246141   5.763   5.155  10.809  0.5166 -0.5086  0.1429
 8217TIP3    H146142   5.748   5.244  10.840 -0.1471  0.0786 -1.7780
 8217TIP3    H246143   5.819   5.164  10.732  2.3910 -1.9555  1.2334
 8218TIP3   OH246144   5.562   1.763   6.929  0.4287 -0.3731 -0.0930
 8218TIP3    H146145   5.619   1.686   6.929  0.8223 -0.0871  0.5044
 8218TIP3    H246146   5.493   1.742   6.866  0.4267 -1.2899  0.2123
 8219TIP3   OH246147   5.304   3.542   3.309 -0.1930  0.0712  0.0195
 8219TIP3    H146148   5.369   3.563   3.243  0.3919  0.7363  0.7887
 8219TIP3    H246149   5.240   3.487   3.263 -0.0265  0.8526 -1.1987
 8220TIP3   OH246150   1.496   4.467  14.791  0.1131  0.1154 -0.0396
 8220TIP3    H146151   1.491   4.559  14.820  1.4410 -0.4283  2.1084
 8220TIP3    H246152   1.584   4.459  14.754 -0.1552 -0.2034 -0.6134
 8221TIP3   OH246153   4.227   2.917   5.211 -0.0601  0.0570 -0.1021
 8221TIP3    H146154   4.145   2.965   5.218  0.1206  0.2758  0.5135
 8221TIP3    H246155   4.203   2.835   5.166 -0.4725  0.4475 -0.6104
 8222TIP3   OH246156   0.933   4.248   1.427  0.1847 -0.5250 -0.7519
 8222TIP3    H146157   0.898   4.300   1.355 -0.9232  1.0078  0.8206
 8222TIP3    H246158   0.856   4.219   1.476  0.9538 -0.6741  0.3983
 8223TIP3   OH246159   0.603   6.244   1.195 -0.3527  0.6743 -0.3210
 8223TIP3    H146160   0.604   6.313   1.262 -0.9152  1.1366 -0.7752
 8223TIP3    H246161   0.685   6.196   1.209 -0.7481  0.3643  1.0966
 8224TIP3   OH246162   6.235   5.100  13.762 -0.0120 -0.1493  0.8473
 8224TIP3    H146163   6.281   5.062  13.687  0.6991  0.4289  0.9776
 8224TIP3    H246164   6.228   5.029  13.825 -0.2307 -0.5250  0.4091
 8225TIP3   OH246165   5.197   5.866   0.455 -0.3264 -0.4379 -0.3737
 8225TIP3    H146166   5.218   5.819   0.374 -1.1532 -0.6043 -0.4917
 8225TIP3    H246167   5.138   5.937   0.428 -1.6950 -1.2952  0.2555
 8226TIP3   OH246168   1.391   5.827   2.121 -0.3189 -0.5030  0.5943
 8226TIP3    H146169   1.485   5.827   2.102 -0.4186  0.2245  0.0879
 8226TIP3    H246170   1.384   5.781   2.205  0.5073 -0.3805  0.7394
 8227TIP3   OH246171   5.813   5.693   3.167 -0.2035  0.2834 -0.0769
 8227TIP3    H146172   5.803   5.621   3.229  0.7304 -0.6930 -0.9973
 8227TIP3    H246173   5.896   5.734   3.191 -0.0469  0.1648 -0.4076
 8228TIP3   OH246174   1.057   0.093  11.357  0.0717  0.2127 -0.1643
 8228TIP3    H146175   1.074   0.102  11.263 -0.7633 -0.0488 -0.3449
 8228TIP3    H246176   1.132   0.136  11.398 -0.1015  1.3363 -0.9533
 8229TIP3   OH246177   2.088   1.216  13.608  0.1421  0.1064 -0.1203
 8229TIP3    H146178   2.015   1.277  13.596 -0.0106  0.3838  1.8847
 8229TIP3    H246179   2.141   1.255  13.677 -0.0481 -2.0595  1.3517
 8230TIP3   OH246180   4.898   0.660   4.007 -0.3466  0.2590  0.0769
 8230TIP3    H146181   4.848   0.586   4.042 -1.5444  1.0980  0.2198
 8230TIP3    H246182   4.845   0.694   3.935  0.9357  0.0498 -1.0164
 8231TIP3   OH246183   1.811   3.652  12.988  0.3655 -0.1977 -0.0491
 8231TIP3    H146184   1.738   3.593  12.968  0.5831 -0.1290 -1.1227
 8231TIP3    H246185   1.828   3.639  13.081 -0.4219 -0.8850  0.0099
 8232TIP3   OH246186   5.256   0.534  10.935  0.5484  0.1544  0.4991
 8232TIP3    H146187   5.296   0.618  10.955  0.2870  0.4199 -0.0785
 8232TIP3    H246188   5.163   0.551  10.929  0.2750 -0.5405  2.2146
 8233TIP3   OH246189   5.715   2.634   2.675  0.4331 -0.3448  0.1418
 8233TIP3    H146190   5.742   2.659   2.586 -1.4559  2.5290  0.2243
 8233TIP3    H246191   5.634   2.585   2.661  0.4196 -0.3546  0.2595
 8234TIP3   OH246192   1.358   2.993  14.891  0.2291  0.3953 -0.4142
 8234TIP3    H146193   1.372   2.955  14.805  0.5852  0.1318 -0.2460
 8234TIP3    H246194   1.342   2.917  14.948 -2.1724  0.6855 -0.6223
 8235TIP3   OH246195   1.921   2.001  11.317 -0.3984 -0.0712  1.0154
 8235TIP3    H146196   1.890   1.952  11.240  2.7474 -0.2598 -0.2900
 8235TIP3    H246197   1.940   2.089  11.283  1.6933 -0.3510  1.3195
 8236TIP3   OH246198   1.829   1.261   1.842  0.2227 -0.2291  0.7185
 8236TIP3    H146199   1.828   1.325   1.771  1.5164 -1.5365 -0.5497
 8236TIP3    H246200   1.912   1.277   1.888  0.5814 -1.0055  0.3585
 8237TIP3   OH246201   1.854   0.514   3.099 -0.0695 -0.0480  0.3356
 8237TIP3    H146202   1.934   0.490   3.147  0.0964 -0.0744  0.0483
 8237TIP3    H246203   1.881   0.515   3.007 -0.2834  0.4087  0.2741
 8238TIP3   OH246204   3.280   3.704  12.645 -0.0748  0.2514 -0.0201
 8238TIP3    H146205   3.242   3.790  12.626  1.2807  0.6097 -1.3085
 8238TIP3    H246206   3.254   3.649  12.571 -0.5321 -0.3216  0.5569
 8239TIP3   OH246207   6.318   4.038   0.381 -0.7924 -0.5326 -0.0685
 8239TIP3    H146208   6.252   4.102   0.356 -0.2321 -0.2725 -0.9194
 8239TIP3    H246209   6.270   3.955   0.388 -0.8880 -0.8087 -2.8472
 8240TIP3   OH246210   4.654   5.513   4.755 -0.2736 -0.1268 -0.0647
 8240TIP3    H146211   4.697   5.456   4.691 -2.4470 -0.0743 -1.6660
 8240TIP3    H246212   4.682   5.479   4.840  2.2866 -0.5247 -0.9673
 8241TIP3   OH246213   2.569   3.756   2.172 -0.2692 -0.1904 -0.1636
 8241TIP3    H146214   2.495   3.805   2.208  0.3751  1.0411 -0.4365
 8241TIP3    H246215   2.536   3.719   2.090 -0.6048  0.3364 -0.2743
 8242TIP3   OH246216   5.013   1.256  16.585 -0.1874 -0.1420 -0.6590
 8242TIP3    H146217   5.097   1.211  16.570  0.3622  0.0273  1.4668
 8242TIP3    H246218   5.038   1.341  16.621 -1.2710  0.4098 -1.1727
 8243TIP3   OH246219   6.399   2.467   6.055 -0.1950 -0.6823 -0.3096
 8243TIP3    H146220   6.350   2.471   6.137 -2.4231 -0.3108 -1.5518
 8243TIP3    H246221   6.440   2.381   6.055 -1.9564 -1.5646  0.2594
 8244TIP3   OH246222   5.828   2.689   0.640  0.1752 -0.2514  0.4543
 8244TIP3    H146223   5.901   2.671   0.699  0.4685 -0.2908  0.0821
 8244TIP3    H246224   5.842   2.631   0.566  0.6525  0.8795 -0.3688
 8245TIP3   OH246225   4.126   2.602  11.812 -0.4055  0.1986  0.4076
 8245TIP3    H146226   4.146   2.576  11.902 -0.9306 -1.2975  0.1183
 8245TIP3    H246227   4.066   2.535  11.780  2.0895 -1.0316 -2.0566
 8246TIP3   OH246228   5.968   4.800  15.389  0.2690  0.6846  0.4412
 8246TIP3    H146229   5.946   4.888  15.359 -1.4621 -0.4186 -1.8120
 8246TIP3    H246230   5.897   4.745  15.357  2.0785 -1.8035  0.4179
 8247TIP3   OH246231   5.460   2.267   1.054  0.1259 -0.0102  0.1080
 8247TIP3    H146232   5.539   2.320   1.038 -0.5548  0.5848 -1.5308
 8247TIP3    H246233   5.399   2.293   0.985 -1.6550 -0.2212  1.5225
 8248TIP3   OH246234   1.476   4.936  16.014 -0.5423  0.1742  0.3774
 8248TIP3    H146235   1.546   4.894  15.964 -1.0508 -1.3616  0.9028
 8248TIP3    H246236   1.503   5.027  16.021  0.9506 -0.1945 -0.2148
 8249TIP3   OH246237   3.777   6.651  12.523 -0.4225  0.7030  0.0601
 8249TIP3    H146238   3.781   6.575  12.581 -0.6110  0.0091 -0.8118
 8249TIP3    H246239   3.705   6.631  12.463  1.5352  0.0956 -2.2027
 8250TIP3   OH246240   5.046   2.956   4.305  0.0625  0.2826 -1.1871
 8250TIP3    H146241   4.959   2.973   4.341  0.7360 -0.5510  1.0162
 8250TIP3    H246242   5.105   3.014   4.355  1.0592 -1.0564 -0.7189
 8251TIP3   OH246243   1.008   3.110  16.768 -0.1740  0.0471  0.2788
 8251TIP3    H146244   0.978   3.180  16.826  1.7175  0.9227  0.2962
 8251TIP3    H246245   0.930   3.085  16.718 -1.1132  1.5595  0.8886
 8252TIP3   OH246246   5.270   0.463   1.250  0.5909  0.1321  0.0791
 8252TIP3    H146247   5.360   0.460   1.219  1.0053  1.0255  1.1356
 8252TIP3    H246248   5.217   0.445   1.172  1.6796 -1.2196 -0.3903
 8253TIP3   OH246249   1.479   4.978   5.304 -0.4509  0.2124  0.1568
 8253TIP3    H146250   1.453   4.928   5.227  1.5147 -0.4005 -0.1700
 8253TIP3    H246251   1.499   4.912   5.370  1.1623  0.5389  0.0557
 8254TIP3   OH246252   2.399   4.762  11.447  0.0533 -0.9348 -0.6680
 8254TIP3    H146253   2.476   4.710  11.470  1.0690 -0.0853 -1.9927
 8254TIP3    H246254   2.351   4.709  11.384  0.4569 -0.7858 -1.1095
 8255TIP3   OH246255   5.834   1.859   0.447  0.5933 -0.0390 -0.2954
 8255TIP3    H146256   5.916   1.869   0.496  1.0983  0.3447 -1.1923
 8255TIP3    H246257   5.811   1.767   0.458  1.3897 -0.2587 -0.4169
 8256TIP3   OH246258   2.100   0.267   4.716 -0.2279 -0.8200 -0.2908
 8256TIP3    H146259   2.123   0.242   4.627  0.7649  1.0180 -0.5787
 8256TIP3    H246260   2.181   0.299   4.755 -1.4425  2.4959 -0.1754
 8257TIP3   OH246261   1.726   4.884   1.852  0.5074 -0.0857  0.0720
 8257TIP3    H146262   1.770   4.950   1.905 -1.4536  0.1244  1.5628
 8257TIP3    H246263   1.651   4.930   1.814  0.4564 -0.8781 -0.8353
 8258TIP3   OH246264   0.903   4.534  14.661  0.4664  0.0034 -0.4519
 8258TIP3    H146265   0.915   4.550  14.567 -1.4788  1.6479 -0.4635
 8258TIP3    H246266   0.836   4.466  14.665  0.0779  0.3965 -0.2508
 8259TIP3   OH246267   4.821   6.176  11.102 -0.0565 -0.5237  0.2225
 8259TIP3    H146268   4.735   6.212  11.124 -0.3906 -0.7657 -0.6326
 8259TIP3    H246269   4.832   6.195  11.009  0.8794 -0.3818  0.3476
 8260TIP3   OH246270   5.352   4.938  15.175 -0.6887  0.1534  0.2985
 8260TIP3    H146271   5.443   4.963  15.160 -0.7516 -0.6666 -1.7978
 8260TIP3    H246272   5.343   4.935  15.271  1.5620 -0.0295  0.5561
 8261TIP3   OH246273   2.707   6.248  15.440  0.4892  0.3016 -0.0715
 8261TIP3    H146274   2.756   6.267  15.359 -1.0311  3.3782 -0.4050
 8261TIP3    H246275   2.617   6.237  15.411  0.3342 -1.6829  0.9602
 8262TIP3   OH246276   5.655   6.182  13.364 -0.4032 -0.5390 -0.6465
 8262TIP3    H146277   5.719   6.223  13.422  0.8445 -1.6186 -1.2169
 8262TIP3    H246278   5.694   6.189  13.277 -1.5720 -0.2638 -1.1647
 8263TIP3   OH246279   2.252   5.346  13.324 -0.0349 -0.0211 -0.6716
 8263TIP3    H146280   2.262   5.252  13.338  0.9351  0.1241 -0.2357
 8263TIP3    H246281   2.187   5.355  13.255  0.8366 -1.0558 -1.6464
 8264TIP3   OH246282   5.241   6.646  17.128  0.0330 -0.2523 -0.3558
 8264TIP3    H146283   5.311   6.582  17.116  0.0253 -0.2224 -0.5710
 8264TIP3    H246284   5.282   6.730  17.108  0.6149  0.0776  1.9694
 8265TIP3   OH246285   6.188   0.971   4.633  0.3041  0.2170  0.2512
 8265TIP3    H146286   6.228   0.910   4.695 -0.3552 -0.9427 -0.4388
 8265TIP3    H246287   6.254   1.040   4.622  1.9690 -1.4190 -0.5199
 8266TIP3   OH246288   1.859   3.674   1.762  0.1718  0.0873  0.0642
 8266TIP3    H146289   1.806   3.697   1.838 -1.8567 -1.5075 -0.7559
 8266TIP3    H246290   1.811   3.710   1.688  0.3162 -1.2220 -0.6896
 8267TIP3   OH246291   5.350   0.671  14.542  0.2121 -0.3465 -0.3402
 8267TIP3    H146292   5.334   0.588  14.586 -2.1140 -0.3496 -1.0541
 8267TIP3    H246293   5.329   0.738  14.607  0.7689 -0.3224 -0.1834
 8268TIP3   OH246294   0.426   5.763  16.129 -0.1874 -0.0963 -0.0505
 8268TIP3    H146295   0.436   5.728  16.040 -0.6237 -3.8934  1.2055
 8268TIP3    H246296   0.335   5.793  16.132 -0.4769 -0.8684 -0.6353
 8269TIP3   OH246297   2.451   0.332  16.395 -0.3800  0.0192 -0.2588
 8269TIP3    H146298   2.480   0.408  16.445 -0.7965 -1.5720  2.6367
 8269TIP3    H246299   2.436   0.365  16.307 -1.2844  3.4487  1.0327
 8270TIP3   OH246300   5.600   5.190  14.769  0.1186 -0.0430 -0.3564
 8270TIP3    H146301   5.597   5.255  14.839 -0.4254 -0.5150  0.0649
 8270TIP3    H246302   5.689   5.197  14.733 -0.2512  1.6811 -1.0331
 8271TIP3   OH246303   4.687   4.126  13.894 -0.3874 -0.2831 -0.1864
 8271TIP3    H146304   4.739   4.047  13.910  0.8284  0.3264 -0.9937
 8271TIP3    H246305   4.639   4.140  13.976  1.3180 -0.4412  0.8912
 8272TIP3   OH246306   4.691   4.584  11.521  0.4710 -0.1737  0.8780
 8272TIP3    H146307   4.728   4.536  11.595 -0.2500 -1.3166  0.5263
 8272TIP3    H246308   4.758   4.578  11.453  1.7199  2.0213  1.8068
 8273TIP3   OH246309   3.443   1.963  14.648  0.4609 -0.1212 -1.0968
 8273TIP3    H146310   3.485   1.968  14.734 -1.4435  0.5560 -0.1579
 8273TIP3    H246311   3.358   1.922  14.665  0.9038 -2.0212 -3.0334
 8274TIP3   OH246312   1.335   1.112  16.989  0.1743  0.4403 -0.2523
 8274TIP3    H146313   1.323   1.167  16.912 -1.7526  1.4102  0.6814
 8274TIP3    H246314   1.424   1.078  16.980  1.3341  3.3577 -1.1263
 8275TIP3   OH246315   4.648   1.983   0.272  0.1941  0.4681  0.2005
 8275TIP3    H146316   4.628   2.004   0.364 -0.1348  1.1942 -0.0292
 8275TIP3    H246317   4.563   1.977   0.230  0.3307 -0.2832  0.0227
 8276TIP3   OH246318   5.253   4.147   1.596  0.0601  0.0568 -0.7723
 8276TIP3    H146319   5.167   4.151   1.555  0.3935  1.0329 -1.4190
 8276TIP3    H246320   5.235   4.136   1.689 -0.8341  1.8727 -0.6796
 8277TIP3   OH246321   2.219   3.026   4.644 -0.0630 -0.6009 -0.6867
 8277TIP3    H146322   2.190   3.043   4.734 -0.7865  1.9520 -1.3135
 8277TIP3    H246323   2.304   2.985   4.654  0.6127  1.0677  1.2139
 8278TIP3   OH246324   6.564   5.980   4.658 -0.5774 -0.4698 -0.4870
 8278TIP3    H146325   6.580   6.063   4.614 -0.4244  0.4061  1.1690
 8278TIP3    H246326   6.645   5.961   4.704 -1.5390 -0.0643  1.4520
 8279TIP3   OH246327   4.126   3.091   1.555 -0.1260 -0.6654  0.3960
 8279TIP3    H146328   4.180   3.017   1.529 -0.9758 -1.3480  0.5207
 8279TIP3    H246329   4.138   3.155   1.485  2.0205 -0.1336  1.1547
 8280TIP3   OH246330   3.191   3.903  14.862 -0.4812 -0.6035  0.8673
 8280TIP3    H146331   3.142   3.897  14.780  1.2980 -0.0071 -0.2997
 8280TIP3    H246332   3.178   3.993  14.891  0.7913 -0.0881 -0.0627
 8281TIP3   OH246333   0.338   3.428   0.749  0.1213 -0.3504  0.3924
 8281TIP3    H146334   0.281   3.359   0.782  0.4286 -0.3367  0.9653
 8281TIP3    H246335   0.410   3.431   0.812 -0.0778  0.7481  0.5747
 8282TIP3   OH246336   4.108   3.515  15.500 -0.1340  0.3035 -0.0726
 8282TIP3    H146337   4.082   3.604  15.478  0.3944  0.6172  0.5531
 8282TIP3    H246338   4.027   3.463  15.491 -0.6022  0.9658  0.2702
 8283TIP3   OH246339   2.048   0.373  15.672 -0.4269 -0.1546 -0.2592
 8283TIP3    H146340   2.007   0.294  15.709 -1.1441 -0.4246 -1.5904
 8283TIP3    H246341   1.981   0.411  15.616 -0.6379  2.2727  1.4836
 8284TIP3   OH246342   1.403   0.637   5.636  0.1550  0.2415  0.0563
 8284TIP3    H146343   1.484   0.684   5.657  0.6288 -0.9845  1.1610
 8284TIP3    H246344   1.425   0.545   5.649 -1.2565 -0.1666 -0.2299
 8285TIP3   OH246345   0.457   1.619  10.774  0.1037 -0.6628  0.1571
 8285TIP3    H146346   0.516   1.562  10.823  1.9026  0.3583 -0.7095
 8285TIP3    H246347   0.479   1.603  10.682 -0.5073  0.2188 -0.1550
 8286TIP3   OH246348   1.729   2.851  10.345 -0.1136  0.2068 -0.3515
 8286TIP3    H146349   1.635   2.833  10.342  0.0525 -1.5881  2.1356
 8286TIP3    H246350   1.768   2.779  10.295  0.0031  0.7874 -1.1265
 8287TIP3   OH246351   1.031   4.913  12.528  0.7077 -0.0555  0.3883
 8287TIP3    H146352   1.012   4.829  12.570  0.2170  1.0622  2.5569
 8287TIP3    H246353   1.048   4.891  12.436 -0.1662 -2.4135  0.7246
 8288TIP3   OH246354   3.322   4.204   0.229  0.5736  0.2886 -0.3280
 8288TIP3    H146355   3.259   4.140   0.197 -0.3949 -0.2197  2.3575
 8288TIP3    H246356   3.396   4.152   0.261  1.7844  0.8104 -2.1437
 8289TIP3   OH246357   5.891   5.328   3.992  0.2949 -0.0944 -0.4849
 8289TIP3    H146358   5.941   5.384   3.933  0.2728 -0.6866 -1.0747
 8289TIP3    H246359   5.929   5.343   4.078 -1.0682  2.4146 -0.2339
 8290TIP3   OH246360   4.067   0.784  11.944 -0.8207 -0.3887  0.5481
 8290TIP3    H146361   4.011   0.789  12.022 -0.4617  0.5419  0.7568
 8290TIP3    H246362   4.016   0.732  11.882 -1.3483 -0.6736  1.2026
 8291TIP3   OH246363   4.157   3.361  13.672  0.0761  0.5478  0.0730
 8291TIP3    H146364   4.193   3.445  13.643  0.8239  0.7734  1.5133
 8291TIP3    H246365   4.223   3.328  13.733 -0.3632 -0.9458 -0.2415
 8292TIP3   OH246366   5.578   2.001   2.952  0.3435  0.4293 -0.0787
 8292TIP3    H146367   5.661   2.014   2.906  0.6891 -0.7982  0.1631
 8292TIP3    H246368   5.603   1.977   3.041 -0.2982  1.0979  0.2996
 8293TIP3   OH246369   3.125   0.737   0.043 -0.4558  0.0396  0.2559
 8293TIP3    H146370   3.036   0.701   0.049 -0.9197  0.9705 -0.6761
 8293TIP3    H246371   3.181   0.660   0.033 -1.2891 -0.4928 -0.4544
 8294TIP3   OH246372   5.385   2.167   2.734 -0.0910 -0.2176  0.2207
 8294TIP3    H146373   5.464   2.221   2.731 -0.1080 -0.1906  0.2588
 8294TIP3    H246374   5.364   2.162   2.828 -1.3572  1.5277  0.0783
 8295TIP3   OH246375   3.221   4.225  15.187 -0.3290  0.4816  0.2954
 8295TIP3    H146376   3.225   4.244  15.094  0.9334 -0.2719  0.1701
 8295TIP3    H246377   3.149   4.278  15.220 -0.9481  0.5670 -1.1522
 8296TIP3   OH246378   6.679   4.495   3.808  0.2330 -0.4047 -0.5548
 8296TIP3    H146379   6.685   4.573   3.752 -2.6128  0.2306 -0.1300
 8296TIP3    H246380   6.633   4.525   3.886  0.4142 -2.2057  0.2864
 8297TIP3   OH246381   0.461   0.220   0.441  0.3052  0.0819 -0.2403
 8297TIP3    H146382   0.488   0.137   0.481 -2.5394 -0.8917 -0.1154
 8297TIP3    H246383   0.470   0.285   0.511  1.7109 -0.2650 -0.0730
 8298TIP3   OH246384   5.743   3.272  14.365 -0.0117 -0.1694 -0.1630
 8298TIP3    H146385   5.711   3.327  14.294 -1.2996  0.9460  1.2141
 8298TIP3    H246386   5.821   3.229  14.330  0.1595  1.3807 -1.7772
 8299TIP3   OH246387   6.774   3.120  11.381  0.5115  0.1919  0.4751
 8299TIP3    H146388   6.869   3.123  11.370  0.6092 -0.1464  1.2071
 8299TIP3    H246389   6.761   3.111  11.475 -0.2661  1.2103  0.4903
 8300TIP3   OH246390   4.311   0.814  16.474  0.2304 -0.0992  0.4594
 8300TIP3    H146391   4.349   0.766  16.400  0.3563 -3.0137  2.2890
 8300TIP3    H246392   4.216   0.807  16.461  0.2504  0.2949  0.0641
 8301TIP3   OH246393   3.090   0.623   0.392 -0.2746  0.4203 -0.0106
 8301TIP3    H146394   3.090   0.602   0.486  0.0001  0.0202 -0.1013
 8301TIP3    H246395   3.065   0.715   0.389 -0.3867  0.4090  0.4524
 8302TIP3   OH246396   0.635   3.476  12.829  0.2951  0.1309 -0.0886
 8302TIP3    H146397   0.596   3.396  12.795 -0.4470  0.3324  0.2641
 8302TIP3    H246398   0.579   3.546  12.796  0.8047  0.4950 -0.2077
 8303TIP3   OH246399   1.468   1.068  11.553 -0.3330 -0.0871  0.6451
 8303TIP3    H146400   1.414   1.066  11.474 -0.4754 -0.9061  0.7564
 8303TIP3    H246401   1.409   1.103  11.621 -0.3986  0.0215  0.5335
 8304TIP3   OH246402   6.498   5.032  12.488 -0.5341  0.1151 -0.1639
 8304TIP3    H146403   6.542   4.982  12.419 -1.5093 -1.8752  0.5565
 8304TIP3    H246404   6.564   5.095  12.517  0.2695  0.2489 -2.1274
 8305TIP3   OH246405   2.398   4.861  11.919  0.2090  0.0623  0.5833
 8305TIP3    H146406   2.395   4.784  11.861  1.6530  0.6914 -0.3996
 8305TIP3    H246407   2.306   4.883  11.934 -0.2313 -0.5623 -0.9245
 8306TIP3   OH246408   0.111   0.835  13.869  0.1708 -0.1834 -0.4124
 8306TIP3    H146409   0.067   0.777  13.931  1.9254  0.6395  1.7063
 8306TIP3    H246410   0.084   0.923  13.894  1.0348  0.1790 -0.7064
 8307TIP3   OH246411   2.493   3.322   0.721  0.6005  0.2473  0.6663
 8307TIP3    H146412   2.561   3.261   0.692  0.7402 -0.4972  2.4472
 8307TIP3    H246413   2.448   3.277   0.792 -1.9651  0.6109 -0.5767
 8308TIP3   OH246414   1.681   3.088   4.583 -0.9401 -0.1761 -0.2403
 8308TIP3    H146415   1.638   3.094   4.669 -1.2768  1.0538 -0.4804
 8308TIP3    H246416   1.730   3.006   4.587 -3.3207 -1.6990  0.0256
 8309TIP3   OH246417   0.079   0.425   0.070  0.1000  0.3694 -0.6211
 8309TIP3    H146418   0.113   0.405   0.157  1.1357 -0.7422 -1.2603
 8309TIP3    H246419   0.068   0.340   0.028 -2.3461  0.7552 -0.9000
 8310TIP3   OH246420   4.688   6.086  13.946 -0.6336  0.2098  0.8223
 8310TIP3    H146421   4.683   5.995  13.918 -0.3483  0.5772 -0.5488
 8310TIP3    H246422   4.598   6.116  13.947 -0.8051 -0.2853  2.0740
 8311TIP3   OH246423   6.379   2.203   6.359  0.3814 -0.5451 -0.5281
 8311TIP3    H146424   6.411   2.134   6.301  1.9977  0.9007 -1.4604
 8311TIP3    H246425   6.456   2.257   6.376 -0.7141  0.7121  0.6351
 8312TIP3   OH246426   6.204   1.260   5.599 -0.1866 -0.1361  1.0851
 8312TIP3    H146427   6.148   1.201   5.650 -1.0318  0.6375  1.0883
 8312TIP3    H246428   6.171   1.252   5.510  1.2841 -1.4804  0.6341
 8313TIP3   OH246429   2.275   1.086  13.126 -0.4727 -0.2294 -0.0010
 8313TIP3    H146430   2.318   1.100  13.210  0.9337  0.5708 -0.8184
 8313TIP3    H246431   2.259   0.992  13.122  0.9323 -0.5070  0.4797
 8314TIP3   OH246432   3.776   2.009  15.501  0.0749 -0.1072 -0.0007
 8314TIP3    H146433   3.826   2.090  15.508  0.1743 -0.1165 -0.6055
 8314TIP3    H246434   3.775   1.989  15.408 -1.8180  0.3843 -0.1382
 8315TIP3   OH246435   4.723   2.044   2.922 -0.0873  0.1391 -0.5032
 8315TIP3    H146436   4.712   2.133   2.957 -0.8566  0.5201 -1.6547
 8315TIP3    H246437   4.638   2.003   2.934  0.0570 -0.1963 -0.6263
 8316TIP3   OH246438   6.349   2.921  17.061 -0.8431 -0.0846 -0.5282
 8316TIP3    H146439   6.355   2.984  17.133 -3.0475  0.7116 -0.9735
 8316TIP3    H246440   6.439   2.916  17.027 -0.1867  1.1822  0.8554
 8317TIP3   OH246441   1.478   2.075  10.371  0.0945  0.1833 -0.0727
 8317TIP3    H146442   1.496   1.987  10.337  1.2649 -0.5580  2.2597
 8317TIP3    H246443   1.499   2.069  10.464 -0.5283  2.7600  0.2904
 8318TIP3   OH246444   1.782   2.729  15.904 -0.1803 -0.0377 -0.2471
 8318TIP3    H146445   1.795   2.693  15.992  1.3172 -0.0407 -0.4349
 8318TIP3    H246446   1.810   2.658  15.846 -0.6208  0.1741 -0.7220
 8319TIP3   OH246447   3.183   0.907   1.651  0.1950 -0.3783 -0.1319
 8319TIP3    H146448   3.181   0.815   1.622 -1.1101  0.1893 -2.0217
 8319TIP3    H246449   3.099   0.919   1.696 -0.6548  0.4225 -1.8377
 8320TIP3   OH246450   5.824   1.039   1.206 -0.0135 -0.2565 -0.1843
 8320TIP3    H146451   5.739   1.032   1.162 -0.8600  0.0987  1.3317
 8320TIP3    H246452   5.809   1.002   1.293  1.4812 -0.4828  0.0050
 8321TIP3   OH246453   6.220   5.331  17.034  0.4114  0.2703 -0.9804
 8321TIP3    H146454   6.276   5.406  17.055  0.0196  0.7307 -1.5523
 8321TIP3    H246455   6.133   5.358  17.062  0.2798  0.0052 -1.1365
 8322TIP3   OH246456   5.404   6.640  12.617  0.2134 -0.1906  0.3691
 8322TIP3    H146457   5.355   6.684  12.548  0.2399  2.2531  1.8118
 8322TIP3    H246458   5.338   6.592  12.667 -0.0406 -0.5490 -0.2937
 8323TIP3   OH246459   0.773   2.310   1.335 -0.1401 -0.8001 -0.2743
 8323TIP3    H146460   0.782   2.238   1.272  1.0411 -0.0453 -1.0278
 8323TIP3    H246461   0.691   2.352   1.311  0.0726 -0.7996 -1.0462
 8324TIP3   OH246462   4.056   2.920  16.905  0.4073 -0.4672 -0.1602
 8324TIP3    H146463   4.121   2.853  16.886  1.1561  0.5382 -1.3157
 8324TIP3    H246464   4.102   2.985  16.958  0.7984  0.9059 -2.0785
 8325TIP3   OH246465   1.870   3.992   1.345 -0.2773  0.0391 -0.1173
 8325TIP3    H146466   1.885   3.974   1.252  1.7033 -0.2802  0.2223
 8325TIP3    H246467   1.801   3.930   1.370 -0.6417 -0.0573 -1.3026
 8326TIP3   OH246468   2.788   5.416   4.705 -0.0977  0.4844 -0.5124
 8326TIP3    H146469   2.789   5.504   4.667 -1.5425  1.1552  0.8984
 8326TIP3    H246470   2.792   5.430   4.799  1.9575 -1.0853 -0.2814
 8327TIP3   OH246471   3.921   5.927   2.303  0.4286 -0.2964 -0.7024
 8327TIP3    H146472   3.953   5.943   2.214  1.2303  1.2419 -0.1648
 8327TIP3    H246473   3.935   5.833   2.316  3.0542 -0.0532 -1.1733
 8328TIP3   OH246474   0.363   3.219  14.846 -0.5054  0.2391  0.1993
 8328TIP3    H146475   0.457   3.233  14.838 -0.3610 -0.8810 -0.3510
 8328TIP3    H246476   0.354   3.154  14.915 -1.0495  1.9298  1.7912
 8329TIP3   OH246477   1.719   0.935  13.732  0.4156  0.6325 -0.3112
 8329TIP3    H146478   1.807   0.940  13.696  1.0414 -1.5576  0.7309
 8329TIP3    H246479   1.690   0.846  13.712  0.0774 -0.0770  2.8318
 8330TIP3   OH246480   3.012   4.049  14.445 -0.1034 -0.2799 -0.7822
 8330TIP3    H146481   3.017   4.000  14.363  0.9646  0.5103 -1.2173
 8330TIP3    H246482   3.031   4.140  14.420  2.8761 -0.3860  0.6578
 8331TIP3   OH246483   0.431   1.478  14.115 -0.4312  0.0943 -0.7527
 8331TIP3    H146484   0.501   1.505  14.175 -0.1422  0.7826 -1.3711
 8331TIP3    H246485   0.392   1.401  14.156 -0.0626  0.3818  0.1754
 8332TIP3   OH246486   6.220   0.927   0.379 -0.1329  0.0995  0.0777
 8332TIP3    H146487   6.242   0.837   0.357 -0.9664 -0.2035  0.4566
 8332TIP3    H246488   6.266   0.943   0.461 -0.0201  0.0126  0.0329
 8333TIP3   OH246489   0.489   4.640   0.522 -0.0416  0.7126  0.1359
 8333TIP3    H146490   0.551   4.601   0.584  1.0715  3.4718  0.9283
 8333TIP3    H246491   0.413   4.662   0.575 -0.8819 -0.7530 -0.4115
 8334TIP3   OH246492   1.880   3.109   5.636 -0.2327 -0.1986 -0.4643
 8334TIP3    H146493   1.831   3.131   5.716  0.1124  0.1071 -0.3340
 8334TIP3    H246494   1.960   3.068   5.668 -0.3967 -0.7000 -0.6791
 8335TIP3   OH246495   6.104   6.472  17.050 -0.3474  0.1048  0.9729
 8335TIP3    H146496   6.119   6.392  17.100  1.5089  1.2862  2.4327
 8335TIP3    H246497   6.148   6.457  16.966  0.2798 -0.2849  1.3648
 8336TIP3   OH246498   6.107   2.922   2.026 -0.0173  0.0263 -0.1721
 8336TIP3    H146499   6.193   2.961   2.042 -0.0737  0.6074 -1.2160
 8336TIP3    H246500   6.114   2.883   1.939 -0.9891  0.6151 -0.5266
 8337TIP3   OH246501   0.811   0.535  13.611  0.1713 -0.0782  0.1097
 8337TIP3    H146502   0.722   0.502  13.596  0.3305 -0.5279  0.1226
 8337TIP3    H246503   0.821   0.605  13.546 -0.5986  0.7837  0.8847
 8338TIP3   OH246504   0.152   6.295   2.343 -0.3854  0.1991  0.5405
 8338TIP3    H146505   0.177   6.345   2.266 -0.1604 -0.9354 -0.1460
 8338TIP3    H246506   0.226   6.302   2.403  0.5269 -0.9839 -0.4030
 8339TIP3   OH246507   4.130   0.559   5.727 -0.3591  0.2257 -0.3454
 8339TIP3    H146508   4.117   0.606   5.645  0.7108  2.1523  0.5197
 8339TIP3    H246509   4.057   0.585   5.782 -0.0439  0.4731 -0.0403
 8340TIP3   OH246510   2.528   3.975   3.418 -0.0396 -0.4205 -0.0570
 8340TIP3    H146511   2.618   3.948   3.399  0.3037  0.3922  0.3616
 8340TIP3    H246512   2.512   3.946   3.508 -0.9125 -2.3499 -0.7934
 8341TIP3   OH246513   2.870   4.433  13.057 -0.4265  0.2955 -0.1648
 8341TIP3    H146514   2.911   4.355  13.019  0.3557  0.1653  0.9188
 8341TIP3    H246515   2.777   4.421  13.040 -0.2376 -0.4651 -0.7467
 8342TIP3   OH246516   1.441   6.616   2.811  0.5347  0.2877 -0.6874
 8342TIP3    H146517   1.383   6.541   2.823  0.9473  0.0078 -0.3875
 8342TIP3    H246518   1.488   6.597   2.730  0.5576  0.2719 -0.6706
 8343TIP3   OH246519   2.132   2.869   0.452  0.2237 -0.3580 -0.2999
 8343TIP3    H146520   2.171   2.785   0.427  1.7010  1.0911 -3.4146
 8343TIP3    H246521   2.207   2.925   0.470 -0.4838  1.3419 -2.2567
 8344TIP3   OH246522   2.721   2.552   0.840  0.6157  0.1125  0.2539
 8344TIP3    H146523   2.688   2.505   0.917  0.5324 -0.3372 -0.0533
 8344TIP3    H246524   2.714   2.645   0.864  3.6783 -0.0072  2.1127
 8345TIP3   OH246525   1.161   2.602  16.242 -0.2181  0.2889 -0.3569
 8345TIP3    H146526   1.185   2.694  16.250  1.6634 -0.1592 -0.5273
 8345TIP3    H246527   1.081   2.603  16.189 -1.0331  1.8783  0.8007
 8346TIP3   OH246528   2.833   6.110   2.791 -0.0796  0.2855  0.9345
 8346TIP3    H146529   2.903   6.088   2.730 -0.0786  0.2537  0.9476
 8346TIP3    H246530   2.878   6.149   2.867 -0.2060  2.3114  0.0385
 8347TIP3   OH246531   5.003   5.834  12.833 -1.0854 -0.0461  0.3330
 8347TIP3    H146532   5.057   5.783  12.773 -0.2995  0.3788  0.6707
 8347TIP3    H246533   4.916   5.834  12.792 -0.6580 -0.0897 -0.6075
 8348TIP3   OH246534   1.852   1.905  15.043  0.7024 -0.4115  0.1598
 8348TIP3    H146535   1.831   1.955  15.122  0.5040 -0.1656 -0.0447
 8348TIP3    H246536   1.911   1.836  15.073  2.0916  0.7657  0.2310
 8349TIP3   OH246537   1.736   0.307   0.973  0.8699 -0.1252  0.0514
 8349TIP3    H146538   1.642   0.303   0.990  1.0007 -0.5599  0.7321
 8349TIP3    H246539   1.773   0.344   1.054  1.2640  0.2758 -0.3043
 8350TIP3   OH246540   4.407   0.055   4.863 -0.1211  0.6514  0.4082
 8350TIP3    H146541   4.425   0.131   4.808  1.5908  1.1347  1.5306
 8350TIP3    H246542   4.421   0.086   4.952 -0.3377 -0.7412  0.9592
 8351TIP3   OH246543   3.481   0.056  12.394  0.4962 -0.4575 -0.3161
 8351TIP3    H146544   3.389   0.056  12.420  0.6280  1.9844  0.3390
 8351TIP3    H246545   3.530   0.050  12.476  0.9270 -0.7819 -0.5918
 8352TIP3   OH246546   1.046   6.088  14.677 -0.2470  0.2256  0.4052
 8352TIP3    H146547   1.132   6.130  14.683 -0.3501  0.5325 -0.2178
 8352TIP3    H246548   0.989   6.154  14.638 -1.1394  0.5552  2.1751
 8353TIP3   OH246549   6.503   0.524  17.003 -0.4188 -0.1673 -0.0648
 8353TIP3    H146550   6.497   0.439  17.045 -0.4392 -1.3840 -2.3587
 8353TIP3    H246551   6.428   0.574  17.037  0.6940 -0.2914  2.7897
 8354TIP3   OH246552   0.136   1.800  12.588  0.1264  0.1008 -1.0237
 8354TIP3    H146553   0.139   1.741  12.663 -1.0052  2.5575  1.0947
 8354TIP3    H246554   0.227   1.828  12.577  0.7427 -2.1091 -2.2635
 8355TIP3   OH246555   6.256   3.521   4.215  0.6720 -0.0561 -0.1288
 8355TIP3    H146556   6.273   3.603   4.262 -0.3347 -1.0930  2.2141
 8355TIP3    H246557   6.198   3.547   4.143  1.6710  1.4877 -0.4529
 8356TIP3   OH246558   6.036   5.108   5.229  0.1137  0.5115  0.1718
 8356TIP3    H146559   6.005   5.181   5.176  0.6216 -0.3088 -1.2974
 8356TIP3    H246560   6.100   5.147   5.289 -2.5088  1.9532  2.2087
 8357TIP3   OH246561   2.890   1.272   4.990 -0.1547 -0.2042 -0.1614
 8357TIP3    H146562   2.855   1.186   5.012 -1.3528  0.2347 -0.2831
 8357TIP3    H246563   2.820   1.314   4.940  0.9853  0.2801 -1.4173
 8358TIP3   OH246564   1.393   1.936   5.275  0.1636  0.1435 -0.3529
 8358TIP3    H146565   1.457   1.913   5.208  1.1781  0.1716  0.5784
 8358TIP3    H246566   1.406   2.030   5.289 -0.1316  0.1619 -0.2022
 8359TIP3   OH246567   6.714   0.459  12.217  0.5643 -0.7316  0.0305
 8359TIP3    H146568   6.675   0.522  12.277  1.6385 -0.8236  0.8626
 8359TIP3    H246569   6.679   0.482  12.131  0.0091  0.2278  0.4967
 8360TIP3   OH246570   3.394   3.506  16.334 -0.4911 -0.4806  0.1004
 8360TIP3    H146571   3.422   3.597  16.332 -0.4188 -0.2333  4.3146
 8360TIP3    H246572   3.475   3.456  16.335 -0.5074 -0.5243 -0.3320
 8361TIP3   OH246573   4.542   2.368  14.984 -0.3302  0.0438 -0.7670
 8361TIP3    H146574   4.466   2.342  15.036 -0.0327  0.1068 -0.2977
 8361TIP3    H246575   4.615   2.368  15.046 -0.4786  2.9564 -0.4468
 8362TIP3   OH246576   4.401   2.626  14.838  0.3283 -0.7374 -0.5629
 8362TIP3    H146577   4.478   2.575  14.862 -0.0304 -1.5373 -1.1005
 8362TIP3    H246578   4.437   2.707  14.801  0.9024 -0.7750 -0.1029
 8363TIP3   OH246579   2.376   3.588  16.639  0.1956 -0.0181  0.1518
 8363TIP3    H146580   2.373   3.493  16.628 -2.1496 -0.4538  3.2470
 8363TIP3    H246581   2.410   3.602  16.728  0.3424  2.0519 -0.1594
 8364TIP3   OH246582   4.046   3.594   3.629 -0.1433  0.5650  0.6404
 8364TIP3    H146583   4.005   3.663   3.681  0.3534 -0.4306  2.4681
 8364TIP3    H246584   4.034   3.515   3.682  2.0069 -0.1690  0.1325
 8365TIP3   OH246585   2.153   1.052   2.616 -0.1233 -0.3204 -0.1149
 8365TIP3    H146586   2.174   1.142   2.591 -2.1080  0.1797 -0.1550
 8365TIP3    H246587   2.182   0.999   2.542  0.8430  0.2983 -0.1963
 8366TIP3   OH246588   0.151   1.592  17.051 -0.1352  0.6172  0.5430
 8366TIP3    H146589   0.161   1.507  17.094 -0.2842  0.7645  0.8726
 8366TIP3    H246590   0.098   1.574  16.974  0.9205  0.1822 -0.1093
 8367TIP3   OH246591   6.587   1.870  10.475  0.1501  0.2432 -0.2611
 8367TIP3    H146592   6.509   1.866  10.531  1.6404  1.2987  2.0464
 8367TIP3    H246593   6.589   1.961  10.444 -1.0691 -0.5089 -2.7834
 8368TIP3   OH246594   3.364   2.961   5.184 -0.8425 -0.1972 -0.6239
 8368TIP3    H146595   3.351   2.974   5.091  0.1696  1.5338 -0.5698
 8368TIP3    H246596   3.457   2.980   5.198 -0.5364 -2.2204  0.4764
 8369TIP3   OH246597   4.894   5.666  16.578  0.6048 -0.3189 -0.7867
 8369TIP3    H146598   4.876   5.760  16.568 -0.5418 -0.5764 -1.3341
 8369TIP3    H246599   4.865   5.646  16.667  0.7376 -0.1758 -0.7111
 8370TIP3   OH246600   5.842   5.434   4.825  0.8098 -0.1107  0.2139
 8370TIP3    H146601   5.819   5.402   4.737  1.1674 -0.4424  0.2399
 8370TIP3    H246602   5.840   5.529   4.817  0.3361 -0.1360 -0.0226
 8371TIP3   OH246603   0.644   1.539   4.933  0.5479  0.5827 -0.0691
 8371TIP3    H146604   0.617   1.450   4.958 -1.8314  1.8620  2.4791
 8371TIP3    H246605   0.719   1.558   4.991  0.5857  0.4949 -0.0890
 8372TIP3   OH246606   1.951   1.637   6.399  0.2803 -0.5366  0.0550
 8372TIP3    H146607   2.036   1.668   6.433  0.0174  2.1251 -1.4698
 8372TIP3    H246608   1.886   1.684   6.451 -0.1437  0.9351 -1.6899
 8373TIP3   OH246609   4.862   1.113   2.704 -0.2132  0.5238 -1.0918
 8373TIP3    H146610   4.849   1.207   2.695 -0.1250  0.7749  0.8728
 8373TIP3    H246611   4.941   1.105   2.759  0.2097 -0.7171 -1.8434
 8374TIP3   OH246612   5.168   0.033  12.149  0.8188  0.0141 -0.1672
 8374TIP3    H146613   5.243   0.018  12.091  0.9015  0.7712 -0.2590
 8374TIP3    H246614   5.198   0.004  12.235  1.0080 -0.2498 -0.3212
 8375TIP3   OH246615   4.365   5.885  14.484 -0.5844  0.1166  0.2923
 8375TIP3    H146616   4.399   5.817  14.426 -0.5572 -0.1884  0.6658
 8375TIP3    H246617   4.273   5.863  14.497 -0.6650  0.3506  0.1296
 8376TIP3   OH246618   6.539   0.277  16.423 -0.0031  0.3789 -0.0680
 8376TIP3    H146619   6.474   0.345  16.409  0.1139  0.3917 -0.5639
 8376TIP3    H246620   6.531   0.255  16.516  0.8910  2.0083  0.4170
 8377TIP3   OH246621   2.492   5.822  17.032  0.2201 -0.3568 -0.1005
 8377TIP3    H146622   2.518   5.848  16.943 -0.6809 -2.4541 -1.0297
 8377TIP3    H246623   2.555   5.868  17.089  0.7797  1.0952 -1.7784
 8378TIP3   OH246624   3.808   1.040   1.248  0.3968 -0.5855  0.3201
 8378TIP3    H146625   3.816   1.061   1.341 -2.1090  0.0326  0.4734
 8378TIP3    H246626   3.800   0.944   1.245  4.0160 -1.0038  0.3351
 8379TIP3   OH246627   5.037   5.139   2.794  0.2779 -0.4166 -0.5358
 8379TIP3    H146628   4.945   5.132   2.818  0.7628 -2.1649  1.0181
 8379TIP3    H246629   5.076   5.193   2.863  0.6676 -0.8400 -0.4199
 8380TIP3   OH246630   4.877   3.212   4.796 -0.1611  0.1376 -0.3484
 8380TIP3    H146631   4.844   3.171   4.716 -2.1407  2.1852 -0.6816
 8380TIP3    H246632   4.915   3.295   4.766  1.8203 -0.4034  0.5347
 8381TIP3   OH246633   0.086   5.748  13.274  1.2183  0.1212 -0.4156
 8381TIP3    H146634   0.161   5.739  13.333  1.1089 -0.1662 -0.3173
 8381TIP3    H246635   0.097   5.677  13.211  1.0956  0.1573 -0.4777
 8382TIP3   OH246636   2.783   4.639  15.107 -0.3977  0.4835 -0.4164
 8382TIP3    H146637   2.731   4.576  15.057  0.3417 -1.2279  0.8497
 8382TIP3    H246638   2.741   4.643  15.193  1.0305 -0.3507  0.3751
 8383TIP3   OH246639   5.380   4.815   5.343  0.0686 -0.5739  0.3293
 8383TIP3    H146640   5.361   4.821   5.437 -1.5325 -0.4537  0.0332
 8383TIP3    H246641   5.295   4.797   5.303  0.8909 -1.6787 -1.0090
 8384TIP3   OH246642   0.789   4.158  17.133  0.3910  0.3071 -0.5711
 8384TIP3    H146643   0.870   4.141  17.084  0.2686  1.4658 -1.2246
 8384TIP3    H246644   0.725   4.179  17.065 -0.6760 -1.3117 -0.1153
 8385TIP3   OH246645   5.215   2.924   3.162 -0.2803 -0.0279  0.9002
 8385TIP3    H146646   5.214   2.833   3.132 -0.6837  0.0712  0.6034
 8385TIP3    H246647   5.300   2.934   3.204  0.3690 -0.1436 -0.3312
 8386TIP3   OH246648   3.955   0.085  13.197  0.2986 -0.1756  0.4976
 8386TIP3    H146649   4.051   0.082  13.198  0.3352  0.6460  1.2851
 8386TIP3    H246650   3.934   0.170  13.236 -0.7590 -0.4028  0.4490
 8387TIP3   OH246651   4.294   0.344  14.478 -0.5647 -0.1254  0.2174
 8387TIP3    H146652   4.381   0.385  14.475 -1.4120  1.7233 -0.6388
 8387TIP3    H246653   4.233   0.417  14.478 -2.1567 -1.3403  2.0748
 8388TIP3   OH246654   4.229   6.013   5.275  0.0484  0.0017  0.5738
 8388TIP3    H146655   4.151   5.966   5.304  0.2397 -0.0823  0.9529
 8388TIP3    H246656   4.282   5.946   5.230 -0.0076  0.0163  0.4850
 8389TIP3   OH246657   6.655   6.093   5.602  0.2121  0.0679 -0.4048
 8389TIP3    H146658   6.677   6.170   5.654  1.6670  0.7413 -1.9213
 8389TIP3    H246659   6.667   6.121   5.512 -1.4234 -1.3137 -1.1018
 8390TIP3   OH246660   3.252   0.481   0.017 -0.3262  0.0873  0.6090
 8390TIP3    H146661   3.251   0.462   0.111  1.6214 -0.7575  0.4970
 8390TIP3    H246662   3.313   0.417  -0.020 -0.8975  0.5404 -1.2155
 8391TIP3   OH246663   1.669   0.645   0.328 -0.3231 -0.3823  0.0483
 8391TIP3    H146664   1.695   0.559   0.296  3.3277  1.0570 -1.3749
 8391TIP3    H246665   1.712   0.653   0.413  0.5012  0.5309 -0.4469
 8392TIP3   OH246666   1.677   6.063  13.032  0.4518  0.1591 -0.1298
 8392TIP3    H146667   1.619   6.035  12.961  3.3489 -1.8393 -1.9273
 8392TIP3    H246668   1.716   6.145  13.000 -1.2250  1.5245  1.0957
 8393TIP3   OH246669   5.613   1.328  12.659  0.3176 -0.3488 -0.0117
 8393TIP3    H146670   5.587   1.237  12.643 -0.7133 -0.6190  2.7273
 8393TIP3    H246671   5.709   1.325  12.663  0.3875 -0.9817 -1.5337
 8394TIP3   OH246672   0.332   5.230  12.133 -0.4397  0.0118  0.0751
 8394TIP3    H146673   0.245   5.271  12.130  0.0044  1.0351  0.4467
 8394TIP3    H246674   0.332   5.178  12.213 -0.8879 -0.4229 -0.2040
 8395TIP3   OH246675   1.583   2.954   4.368 -0.2881 -0.0957  0.5861
 8395TIP3    H146676   1.620   3.000   4.443  1.5005 -0.1517 -0.2011
 8395TIP3    H246677   1.641   2.879   4.356  0.7515  1.0171 -2.0694
 8396TIP3   OH246678   1.871   2.532   1.428 -0.2633  0.2968 -0.1973
 8396TIP3    H146679   1.949   2.499   1.384 -0.3002 -0.4739  0.3029
 8396TIP3    H246680   1.879   2.628   1.423 -0.3675  0.2429 -2.0364
 8397TIP3   OH246681   2.016   0.062   0.755  0.3919  0.4710  0.2138
 8397TIP3    H146682   1.970  -0.003   0.807 -0.2032  1.4091  0.9073
 8397TIP3    H246683   2.087   0.014   0.714 -1.2425 -1.0637 -0.9835
 8398TIP3   OH246684   4.788   0.500   5.553 -0.3356  0.3145 -0.0431
 8398TIP3    H146685   4.824   0.412   5.566 -0.2517  0.3789  0.1654
 8398TIP3    H246686   4.820   0.551   5.628  0.5389  0.8111 -0.7359
 8399TIP3   OH246687   3.003   3.927   4.890 -0.0930  0.0224  0.3326
 8399TIP3    H146688   3.012   4.022   4.893  1.3938 -0.0946  0.3742
 8399TIP3    H246689   3.002   3.906   4.797  0.7478 -0.0023  0.3232
 8400TIP3   OH246690   2.312   0.085   2.203  0.5480 -0.7096  0.1878
 8400TIP3    H146691   2.255   0.044   2.139  0.2131  0.7260 -0.4626
 8400TIP3    H246692   2.397   0.042   2.192  0.8456  0.3201 -2.1031
 8401TIP3   OH246693   3.006   6.719  14.689  0.5159 -0.1413 -0.0001
 8401TIP3    H146694   2.945   6.662  14.736 -0.8530  0.5150 -0.9138
 8401TIP3    H246695   3.045   6.774  14.757  0.8548 -1.2344  0.7204
 8402TIP3   OH246696   3.280   0.695  16.920 -0.2207 -0.2112 -0.0410
 8402TIP3    H146697   3.357   0.708  16.976  0.7073  1.2100 -1.5411
 8402TIP3    H246698   3.210   0.673  16.981  0.9577  0.2674  1.5737
 8403TIP3   OH246699   5.973   2.406  16.834 -0.7069  0.6060  0.0733
 8403TIP3    H146700   5.970   2.436  16.744 -1.5765  0.5405  0.0731
 8403TIP3    H246701   5.930   2.476  16.884 -0.6595  0.4233  0.3729
 8404TIP3   OH246702   4.796   5.470   0.987 -0.2363  0.3064  0.3141
 8404TIP3    H146703   4.817   5.530   1.059 -0.3311 -0.8701  1.3423
 8404TIP3    H246704   4.866   5.405   0.989 -0.3735  0.1238 -0.5150
 8405TIP3   OH246705   2.471   2.960   4.118 -0.0117  0.0606  0.1812
 8405TIP3    H146706   2.536   2.934   4.053  0.6694  1.9709  0.0305
 8405TIP3    H246707   2.512   2.943   4.202  0.8638  1.5424  0.0878
 8406TIP3   OH246708   2.846   1.506  12.875  0.0461 -0.0854  0.1534
 8406TIP3    H146709   2.897   1.430  12.845  0.7745  0.1523  0.7830
 8406TIP3    H246710   2.839   1.494  12.969 -0.8708  0.0147  0.1072
 8407TIP3   OH246711   2.582   1.655   4.196 -0.0330  0.2187 -0.3495
 8407TIP3    H146712   2.556   1.584   4.255  0.3108  0.3297 -0.0585
 8407TIP3    H246713   2.514   1.721   4.208  0.6540  0.7585  0.8585
 8408TIP3   OH246714   6.684   5.610  15.056  0.4677 -0.1568 -0.5168
 8408TIP3    H146715   6.736   5.686  15.082 -0.8610  1.1329 -1.4790
 8408TIP3    H246716   6.688   5.609  14.961 -1.3273  0.0483 -0.6263
 8409TIP3   OH246717   2.651   6.822   3.420 -0.0650  0.0189  0.2566
 8409TIP3    H146718   2.694   6.878   3.484  3.1567 -2.2596  0.3521
 8409TIP3    H246719   2.644   6.876   3.341  4.7169  0.2514 -0.2835
 8410TIP3   OH246720   6.269   1.942  15.424 -0.4497  0.1096 -0.3326
 8410TIP3    H146721   6.269   1.903  15.512 -1.6255 -0.6250 -0.6298
 8410TIP3    H246722   6.361   1.961  15.406 -0.2654  0.9397  1.3399
 8411TIP3   OH246723   6.302   2.742  11.498  0.4467 -0.1105 -0.1251
 8411TIP3    H146724   6.354   2.663  11.515  0.6417  0.0498  0.0433
 8411TIP3    H246725   6.355   2.813  11.536  0.1784  0.0735 -0.0947
 8412TIP3   OH246726   3.707   3.998   4.133  0.2268 -0.2892 -0.0998
 8412TIP3    H146727   3.780   4.058   4.147  1.4989 -1.7471 -0.1888
 8412TIP3    H246728   3.718   3.969   4.042 -1.2012  0.3918 -0.5094
 8413TIP3   OH246729   3.278   0.768  15.174 -0.2748  0.0066 -0.7070
 8413TIP3    H146730   3.209   0.707  15.149  0.5861 -1.5365  0.4946
 8413TIP3    H246731   3.314   0.731  15.255  1.6268  1.0199 -1.0396
 8414TIP3   OH246732   3.451   0.104   2.714  0.0080 -0.8980 -0.3949
 8414TIP3    H146733   3.437   0.071   2.803 -0.4423 -1.3738 -0.6339
 8414TIP3    H246734   3.369   0.084   2.669  0.1827 -0.5298 -0.8815
 8415TIP3   OH246735   6.738   1.069   0.074 -0.0274  0.2400  0.5738
 8415TIP3    H146736   6.751   0.980   0.041 -0.5721  0.3294  0.1119
 8415TIP3    H246737   6.664   1.062   0.134 -0.1960  0.4126  0.3899
 8416TIP3   OH246738   3.674   3.499   6.524 -0.1224  0.2091  0.6931
 8416TIP3    H146739   3.669   3.562   6.596 -1.0625 -0.4378  1.2268
 8416TIP3    H246740   3.746   3.441   6.548  0.6276  0.9600  0.2888
 8417TIP3   OH246741   2.357   4.263   0.819 -0.1683  0.1676  0.0922
 8417TIP3    H146742   2.333   4.194   0.880  1.5434  0.3099  0.9882
 8417TIP3    H246743   2.347   4.344   0.869  1.8772  0.2415  0.4524
 8418TIP3   OH246744   2.644   1.493  15.297 -0.2089 -0.5039  0.0970
 8418TIP3    H146745   2.702   1.416  15.302  0.7178  0.0872 -1.0236
 8418TIP3    H246746   2.703   1.568  15.311 -1.2008  0.0118  1.8514
 8419TIP3   OH246747   5.976   4.418   0.907  0.0451 -0.3280  0.3293
 8419TIP3    H146748   6.052   4.472   0.885  0.7443 -2.2709 -2.7887
 8419TIP3    H246749   6.010   4.329   0.909 -1.9374 -1.1586 -0.0285
 8420TIP3   OH246750   1.063   4.505   6.429 -0.4763 -0.2979  0.1894
 8420TIP3    H146751   0.985   4.554   6.452 -0.1308 -0.4815  1.9135
 8420TIP3    H246752   1.112   4.563   6.371 -0.4208  1.1396  1.6067
 8421TIP3   OH246753   5.812   0.456   5.314 -0.0827 -0.2702  1.1985
 8421TIP3    H146754   5.866   0.378   5.329  0.5399 -0.2814 -0.8312
 8421TIP3    H246755   5.875   0.525   5.295 -0.6854 -0.3744 -1.6316
 8422TIP3   OH246756   4.208   5.289   1.120 -0.2717  1.0805  0.5085
 8422TIP3    H146757   4.127   5.328   1.153 -1.0356 -0.4961  0.5981
 8422TIP3    H246758   4.255   5.261   1.198  0.0234  1.3538  0.4289
 8423TIP3   OH246759   3.446   5.166  17.143  0.1083  0.2783  0.2016
 8423TIP3    H146760   3.429   5.255  17.175 -0.9296  0.2633 -0.2585
 8423TIP3    H246761   3.367   5.117  17.167  0.2143 -0.2490 -0.4931
 8424TIP3   OH246762   4.094   0.540  12.844  0.5161  0.0371 -0.7652
 8424TIP3    H146763   4.037   0.479  12.891  1.1325 -0.9002 -1.1860
 8424TIP3    H246764   4.040   0.573  12.772 -0.0876  0.6479 -0.0463
 8425TIP3   OH246765   2.748   3.101  14.830  0.5295  0.3344  0.0415
 8425TIP3    H146766   2.723   3.153  14.906 -3.4017  0.3437 -0.9879
 8425TIP3    H246767   2.732   3.011  14.856  1.1708  0.1747 -0.1172
 8426TIP3   OH246768   5.804   0.860   5.241 -0.3834 -0.3047  0.0619
 8426TIP3    H146769   5.721   0.853   5.289 -0.7881  2.4697 -0.0720
 8426TIP3    H246770   5.855   0.925   5.289  0.9329 -0.5659 -0.9260
 8427TIP3   OH246771   3.885   6.425  12.115  0.2763  0.5185 -0.0292
 8427TIP3    H146772   3.815   6.403  12.054  0.6775  3.1660 -1.5613
 8427TIP3    H246773   3.960   6.373  12.085  0.3171  1.3807 -1.5235
 8428TIP3   OH246774   4.628   0.053  13.683  0.0058 -0.5758  0.0588
 8428TIP3    H146775   4.598   0.076  13.770  1.4183 -1.3296  0.7891
 8428TIP3    H246776   4.720   0.082  13.681  0.4753 -2.0147 -0.5702
 8429TIP3   OH246777   0.355   6.478  11.102 -0.4416  0.4631 -0.0211
 8429TIP3    H146778   0.339   6.422  11.178  1.7603 -0.2118  0.0155
 8429TIP3    H246779   0.268   6.495  11.066 -1.3066 -5.4089 -1.7541
 8430TIP3   OH246780   4.492   4.032  14.141  0.4020  0.0738 -0.2437
 8430TIP3    H146781   4.412   4.029  14.193 -0.0173  0.6864 -0.8429
 8430TIP3    H246782   4.510   4.126  14.130 -0.8348  0.0786 -3.1793
 8431TIP3   OH246783   1.521   3.944  12.061  0.4244  0.5141  0.0504
 8431TIP3    H146784   1.496   3.854  12.041  1.2180  0.1586  0.5913
 8431TIP3    H246785   1.458   3.973  12.127 -0.5579  0.7697 -0.9935
 8432TIP3   OH246786   2.107   0.195  13.052  0.2899 -0.1598  0.0913
 8432TIP3    H146787   2.023   0.239  13.047  0.3887  0.1508  0.8564
 8432TIP3    H246788   2.153   0.240  13.124  2.2826  1.6862 -2.1633
 8433TIP3   OH246789   3.135   1.784  12.149 -0.6273 -0.2983  0.4958
 8433TIP3    H146790   3.174   1.702  12.180 -1.7487 -0.8316  0.5438
 8433TIP3    H246791   3.041   1.770  12.156 -0.9073  0.0372 -1.9931
 8434TIP3   OH246792   0.829   3.390   1.011 -0.1013  0.6068  0.3097
 8434TIP3    H146793   0.876   3.463   0.970  1.8452 -0.2397  0.9019
 8434TIP3    H246794   0.816   3.328   0.940  4.0375 -1.2439  0.8707
 8435TIP3   OH246795   0.854   4.405   6.010  0.0324  0.1519  0.8552
 8435TIP3    H146796   0.854   4.485   5.957  1.6179  0.4605  1.2495
 8435TIP3    H246797   0.883   4.337   5.950 -0.9234 -0.0626  0.6239
 8436TIP3   OH246798   4.312   4.531  15.927  0.3735 -0.0674  0.0038
 8436TIP3    H146799   4.308   4.571  16.014 -2.9489 -0.0213 -0.0097
 8436TIP3    H246800   4.325   4.438  15.943  0.7481  0.0696  0.4916
 8437TIP3   OH246801   2.266   1.718   4.003  0.5967 -0.4290  0.1500
 8437TIP3    H146802   2.287   1.641   3.951 -2.3781 -1.0454 -0.3152
 8437TIP3    H246803   2.280   1.690   4.094  2.3927 -0.4738 -0.0940
 8438TIP3   OH246804   1.283   3.679  13.371  0.0944 -0.1972  0.1135
 8438TIP3    H146805   1.228   3.605  13.398  1.0544 -1.0073 -0.0889
 8438TIP3    H246806   1.371   3.656  13.401  0.5191  0.6026 -0.4634
 8439TIP3   OH246807   4.529   6.000  12.792  0.2141  0.0999  0.1545
 8439TIP3    H146808   4.474   5.989  12.870 -0.5955 -1.8614 -0.6460
 8439TIP3    H246809   4.473   5.973  12.719  1.3194  0.8601 -1.0121
 8440TIP3   OH246810   3.234   1.659  16.063  0.2623  0.3089  0.3209
 8440TIP3    H146811   3.244   1.609  15.983  0.3793  1.0361 -0.1306
 8440TIP3    H246812   3.259   1.599  16.133  0.4142 -0.2484 -0.2104
 8441TIP3   OH246813   5.490   1.093   0.447  0.6019 -0.1733 -0.5229
 8441TIP3    H146814   5.504   1.131   0.361 -2.8859  0.4461 -0.9605
 8441TIP3    H246815   5.416   1.034   0.436  1.0946 -1.3296  1.7336
 8442TIP3   OH246816   2.327   5.247  14.297 -0.3896  0.2751  0.2689
 8442TIP3    H146817   2.422   5.235  14.293 -0.4883 -0.7456  0.5373
 8442TIP3    H246818   2.292   5.158  14.306 -1.3913  0.6129 -0.1140
 8443TIP3   OH246819   5.340   3.943   5.080 -0.2597  0.0352  0.3209
 8443TIP3    H146820   5.324   3.932   5.173  2.7350  0.9698  1.0716
 8443TIP3    H246821   5.424   3.899   5.064 -1.5849 -1.8014 -2.4143
 8444TIP3   OH246822   0.864   0.105   1.699  0.1462  0.6816  0.1349
 8444TIP3    H146823   0.909   0.177   1.654  1.9593 -1.0495 -0.9687
 8444TIP3    H246824   0.933   0.042   1.719 -1.6851 -1.9006 -1.1493
 8445TIP3   OH246825   5.399   1.743  11.470  0.3239 -0.4740 -0.3018
 8445TIP3    H146826   5.414   1.651  11.451 -1.1062 -0.4892 -1.5547
 8445TIP3    H246827   5.416   1.787  11.386  0.9995  0.4176  0.2814
 8446TIP3   OH246828   3.991   0.516  14.086  0.4630  0.3312 -0.5616
 8446TIP3    H146829   4.049   0.460  14.137 -0.1766  0.4948  0.3649
 8446TIP3    H246830   3.915   0.529  14.142  0.0038  1.0089 -1.3242
 8447TIP3   OH246831   6.488   1.991   3.775 -0.0873 -0.0495  0.0399
 8447TIP3    H146832   6.505   1.920   3.713 -1.8216  0.2708 -0.8739
 8447TIP3    H246833   6.393   1.999   3.776  0.0494  1.9020  0.5389
 8448TIP3   OH246834   1.503   1.470   1.518  1.0020  0.6138  0.7681
 8448TIP3    H146835   1.462   1.481   1.433  1.2828 -1.3566  0.3236
 8448TIP3    H246836   1.442   1.508   1.580  0.2624  1.0527 -0.2120
 8449TIP3   OH246837   6.330   5.103  16.212 -0.1567 -0.0160  0.1724
 8449TIP3    H146838   6.359   5.141  16.295 -0.5238  0.8415 -0.0811
 8449TIP3    H246839   6.395   5.035  16.193  0.2887  0.2081  0.8460
 8450TIP3   OH246840   1.716   2.181   2.269 -0.2567 -0.0622  1.1487
 8450TIP3    H146841   1.780   2.249   2.289  0.3262 -0.0162 -0.6826
 8450TIP3    H246842   1.678   2.158   2.354 -0.4477  2.5125  1.8547
 8451TIP3   OH246843   3.334   4.583   6.105 -0.3543  0.1138  0.6371
 8451TIP3    H146844   3.365   4.673   6.098 -1.8582  0.6495  0.4693
 8451TIP3    H246845   3.286   4.567   6.023  2.5633 -1.9828 -0.8526
 8452TIP3   OH246846   5.382   3.976   2.558  0.4028  0.1785 -0.2121
 8452TIP3    H146847   5.385   4.071   2.574 -0.3614  0.6427 -2.4559
 8452TIP3    H246848   5.386   3.937   2.645 -0.2564  2.3007  0.8409
 8453TIP3   OH246849   0.674   4.571  11.479  0.1629 -0.3232 -0.4220
 8453TIP3    H146850   0.624   4.572  11.397  0.8216 -2.3608 -0.9060
 8453TIP3    H246851   0.684   4.663  11.502 -0.9948  0.2514 -2.0397
 8454TIP3   OH246852   1.952   3.220   4.455  0.0109  0.5863  0.1799
 8454TIP3    H146853   1.892   3.214   4.530 -3.1598  1.6527 -2.0690
 8454TIP3    H246854   2.012   3.291   4.478  0.5716 -0.5239  2.5156
 8455TIP3   OH246855   2.905   2.418  11.817 -0.0879 -0.0076  0.1421
 8455TIP3    H146856   2.894   2.462  11.732  1.5052  0.2809  0.0440
 8455TIP3    H246857   2.817   2.392  11.842 -0.5938 -0.1851 -1.6562
 8456TIP3   OH246858   4.230   2.140   5.708 -0.3456  0.3639  0.1233
 8456TIP3    H146859   4.319   2.160   5.738  0.3352  1.2851 -2.2560
 8456TIP3    H246860   4.227   2.045   5.703 -0.1190  0.2319  1.8505
 8457TIP3   OH246861   3.189   5.521  16.619  0.2305  0.3963 -0.1859
 8457TIP3    H146862   3.170   5.526  16.526  0.2480  0.0334 -0.2091
 8457TIP3    H246863   3.118   5.570  16.661 -0.2618 -0.1748 -0.3327
 8458TIP3   OH246864   2.860   3.658  15.926 -0.4440 -0.1876 -0.3982
 8458TIP3    H146865   2.810   3.623  16.000 -0.1478 -0.4388 -0.3163
 8458TIP3    H246866   2.826   3.746  15.914 -1.1869 -0.4894 -0.5881
 8459TIP3   OH246867   2.465   3.395  11.852  0.3836  0.6211 -0.7738
 8459TIP3    H146868   2.396   3.342  11.893  0.5619 -0.9047 -2.3570
 8459TIP3    H246869   2.420   3.445  11.784  0.1064  3.0874  1.0622
 8460TIP3   OH246870   1.639   4.587  13.772 -0.1076  0.0789  0.5153
 8460TIP3    H146871   1.661   4.498  13.747  0.2020  0.2843  0.0452
 8460TIP3    H246872   1.724   4.628  13.790 -0.3378 -0.4999  3.4979
 8461TIP3   OH246873   4.673   1.440  15.327  0.2755 -0.4399  0.4121
 8461TIP3    H146874   4.645   1.463  15.416 -2.2397 -0.2363 -0.3750
 8461TIP3    H246875   4.742   1.504  15.307 -1.3778  1.6526  1.0536
 8462TIP3   OH246876   3.009   5.353  16.860 -0.1853 -0.1173  0.3529
 8462TIP3    H146877   2.988   5.288  16.927  0.9081  0.7671  1.6211
 8462TIP3    H246878   2.972   5.318  16.779 -1.9311 -1.0138  1.4897
 8463TIP3   OH246879   6.172   2.797   4.040 -0.4440 -0.0275  0.4725
 8463TIP3    H146880   6.090   2.773   4.082 -1.0893  1.9238  0.3969
 8463TIP3    H246881   6.156   2.787   3.946 -0.8641  1.0542  0.4147
 8464TIP3   OH246882   0.914   3.448  15.224 -0.4599 -0.8870  0.0463
 8464TIP3    H146883   0.877   3.370  15.182 -0.8524 -0.2586 -0.8121
 8464TIP3    H246884   0.896   3.519  15.162 -0.4749 -0.0402  0.9911
 8465TIP3   OH246885   2.822   6.036   0.185  0.5404 -0.2162 -0.0538
 8465TIP3    H146886   2.826   5.988   0.268 -1.4345  0.7557  0.6736
 8465TIP3    H246887   2.818   6.128   0.211 -0.3271  0.0887 -1.2173
 8466TIP3   OH246888   4.755   1.667   0.589  0.3862 -0.4572 -0.3533
 8466TIP3    H146889   4.779   1.710   0.671  2.5933 -0.6868 -0.7971
 8466TIP3    H246890   4.744   1.575   0.613  0.5594 -0.4446 -0.2179
 8467TIP3   OH246891   5.506   3.960   0.565  0.1637 -0.1702 -0.2654
 8467TIP3    H146892   5.525   3.895   0.496 -0.6026 -0.0962 -0.5505
 8467TIP3    H246893   5.592   3.979   0.603  0.7434  0.4867 -1.8167
 8468TIP3   OH246894   3.465   0.485   6.562  0.1787  0.1591  0.0544
 8468TIP3    H146895   3.412   0.485   6.642 -0.1601  0.2795 -0.1657
 8468TIP3    H246896   3.528   0.556   6.575 -1.1943  1.5827 -0.6217
 8469TIP3   OH246897   5.886   3.004  11.365 -0.7870  0.2992  0.3150
 8469TIP3    H146898   5.841   2.959  11.293 -0.3514 -0.7267  0.6668
 8469TIP3    H246899   5.976   2.973  11.360  0.1634  2.9258 -0.8839
 8470TIP3   OH246900   2.955   0.454  14.615  0.0537  0.3855  0.7851
 8470TIP3    H146901   2.951   0.396  14.691 -1.2979  0.6625  0.9461
 8470TIP3    H246902   2.917   0.401  14.544  2.4785 -0.3520 -0.0536
 8471TIP3   OH246903   6.764   4.681   5.590 -0.1223  0.1869 -0.2481
 8471TIP3    H146904   6.728   4.694   5.502 -1.3055  1.3320  0.3755
 8471TIP3    H246905   6.856   4.705   5.582 -0.1832  0.1446 -1.2016
 8472TIP3   OH246906   0.320   5.393   5.357  0.7528 -0.3875 -0.1182
 8472TIP3    H146907   0.371   5.474   5.351  1.4681 -0.7637  0.5974
 8472TIP3    H246908   0.298   5.385   5.450 -0.8964 -0.0790 -0.4679
 8473TIP3   OH246909   5.740   2.408  15.741 -0.0229 -0.3697  0.1660
 8473TIP3    H146910   5.674   2.466  15.704  0.4997 -0.1007 -0.3621
 8473TIP3    H246911   5.691   2.332  15.771 -0.7754  0.5318  1.2890
 8474TIP3   OH246912   1.265   0.953   5.387  0.1076 -0.3198 -0.1230
 8474TIP3    H146913   1.241   0.863   5.410 -0.7374 -0.0594  0.0685
 8474TIP3    H246914   1.323   0.944   5.312  0.1725 -1.0330  0.0020
 8475TIP3   OH246915   4.412   5.060  12.624 -0.1957 -0.4334 -0.0472
 8475TIP3    H146916   4.484   5.019  12.672 -0.2147  1.5182  1.8279
 8475TIP3    H246917   4.354   4.988  12.600  0.6963 -1.6904  1.4170
 8476TIP3   OH246918   0.727   6.104   5.458  0.3293  0.0715  0.1987
 8476TIP3    H146919   0.770   6.149   5.530  0.2397  0.5431 -0.0392
 8476TIP3    H246920   0.787   6.114   5.384 -0.3121  0.9819 -0.2115
 8477TIP3   OH246921   4.550   6.090   1.306 -0.5613 -0.5477  0.1799
 8477TIP3    H146922   4.464   6.104   1.267 -1.2930 -1.6179  1.3000
 8477TIP3    H246923   4.573   6.000   1.282  0.3582 -0.2056 -0.2835
 8478TIP3   OH246924   3.474   3.501   2.291 -0.1844 -0.2406 -0.2252
 8478TIP3    H146925   3.390   3.493   2.245 -1.2477  2.7771  0.9718
 8478TIP3    H246926   3.451   3.494   2.383  1.3287 -1.9483  0.0787
 8479TIP3   OH246927   4.124   0.251   4.291 -0.3212  0.2310 -0.4702
 8479TIP3    H146928   4.152   0.314   4.225 -0.0567  0.2233 -0.3672
 8479TIP3    H246929   4.077   0.184   4.242  0.7092 -0.2833 -0.7888
 8480TIP3   OH246930   0.908   4.001  12.050 -0.4066  0.1840 -0.0099
 8480TIP3    H146931   0.910   4.025  11.958  1.7417  1.4283  0.2738
 8480TIP3    H246932   0.996   4.023  12.082 -1.0661 -0.2628  2.3181
 8481TIP3   OH246933   1.858   0.406   1.762  0.2749 -0.0689  0.3135
 8481TIP3    H146934   1.869   0.422   1.855 -1.1830 -1.2299  0.7293
 8481TIP3    H246935   1.862   0.494   1.722  1.8014  0.3568  1.3180
 8482TIP3   OH246936   5.729   6.648   3.109  0.4087 -0.0223 -0.4756
 8482TIP3    H146937   5.726   6.631   3.203 -0.3484  2.6882  0.0946
 8482TIP3    H246938   5.801   6.594   3.077 -0.1267 -1.9841  1.4031
 8483TIP3   OH246939   2.788   1.491  13.140 -0.4544  0.1368  0.6324
 8483TIP3    H146940   2.787   1.560  13.207 -2.6716 -0.2413  1.0950
 8483TIP3    H246941   2.870   1.444  13.154  0.2883  1.6156  1.4381
 8484TIP3   OH246942   1.150   2.017   5.519  1.0262 -0.0543 -0.0591
 8484TIP3    H146943   1.113   1.970   5.594  0.0967  1.2200  0.3213
 8484TIP3    H246944   1.119   1.969   5.443 -0.5359  0.3284  0.2934
 8485TIP3   OH246945   1.138   2.845  11.875 -0.1403 -0.1082  0.1573
 8485TIP3    H146946   1.190   2.899  11.816  0.8550  0.8639  1.8563
 8485TIP3    H246947   1.109   2.772  11.821  0.6313  0.7864 -1.5481
 8486TIP3   OH246948   5.901   4.005   2.278  0.1592 -0.6113  0.2782
 8486TIP3    H146949   5.873   3.970   2.193  1.2041 -0.5101 -0.1276
 8486TIP3    H246950   5.931   4.094   2.259 -2.5386  0.6367  1.3099
 8487TIP3   OH246951   5.981   0.570  13.743  0.3926  0.0150  0.1308
 8487TIP3    H146952   5.950   0.491  13.698 -0.1934  0.1202  0.3452
 8487TIP3    H246953   5.945   0.643  13.692  0.3608  0.1370  0.3257
 8488TIP3   OH246954   4.142   6.338  15.997 -0.6134  0.0366  0.1859
 8488TIP3    H146955   4.066   6.353  16.054 -0.1019 -0.1142  0.9148
 8488TIP3    H246956   4.203   6.288  16.051 -1.0004 -2.0086 -1.1932
 8489TIP3   OH246957   0.615   2.571   4.985 -0.2587 -0.1752  0.3737
 8489TIP3    H146958   0.557   2.622   4.929  0.9898  1.3511  0.3968
 8489TIP3    H246959   0.557   2.515   5.037 -1.5883  0.3057 -0.5614
 8490TIP3   OH246960   0.169   0.465  15.396  0.4397 -0.3703 -0.4969
 8490TIP3    H146961   0.241   0.463  15.459 -0.6123 -0.1840  0.7442
 8490TIP3    H246962   0.126   0.549  15.410  0.5330 -0.0535 -1.9014
 8491TIP3   OH246963   1.868   2.916   2.535  0.6454  0.0112 -0.0362
 8491TIP3    H146964   1.868   2.833   2.488  0.0816 -0.2501  0.4179
 8491TIP3    H246965   1.782   2.954   2.517  0.6208  0.1514  0.3670
 8492TIP3   OH246966   5.962   6.615   4.046  0.0400 -0.0130  0.2461
 8492TIP3    H146967   6.050   6.643   4.071 -0.1550 -0.2684  1.2698
 8492TIP3    H246968   5.973   6.523   4.022  0.0338 -0.0829  0.5049
 8493TIP3   OH246969   2.844   5.718  15.291  0.1447  0.1151 -0.2603
 8493TIP3    H146970   2.849   5.793  15.232  1.2413  0.5221  0.3393
 8493TIP3    H246971   2.931   5.710  15.328 -0.1274 -1.0781  0.1601
 8494TIP3   OH246972   4.929   5.576  11.695  0.1732  0.5379 -0.1163
 8494TIP3    H146973   4.844   5.531  11.691  0.6034 -0.4736  1.3126
 8494TIP3    H246974   4.962   5.572  11.606 -0.2512 -1.1407 -0.2337
 8495TIP3   OH246975   6.069   5.588  11.505 -0.0258  0.1853  0.4006
 8495TIP3    H146976   6.118   5.621  11.581  1.0980  1.7396 -0.9467
 8495TIP3    H246977   6.017   5.663  11.475  0.2703 -0.1189 -0.9350
 8496TIP3   OH246978   0.355   4.624  14.782  0.0864 -0.1964  0.0594
 8496TIP3    H146979   0.313   4.687  14.841 -0.6499 -1.8604  1.3676
 8496TIP3    H246980   0.449   4.636  14.797 -0.0894 -0.7376  1.7618
 8497TIP3   OH246981   4.687   5.018  14.824 -0.4643  0.2955  0.5560
 8497TIP3    H146982   4.654   5.061  14.902  2.0742  1.5617  1.0407
 8497TIP3    H246983   4.782   5.035  14.825 -0.2422 -0.1979 -2.4439
 8498TIP3   OH246984   6.655   5.220  12.640 -0.5672  0.4828 -0.6334
 8498TIP3    H146985   6.582   5.279  12.622 -0.1482  1.5656  1.0189
 8498TIP3    H246986   6.732   5.276  12.639 -0.0687 -0.1756  0.1518
 8499TIP3   OH246987   0.911   2.391  15.618  0.3436 -0.0606  0.0556
 8499TIP3    H146988   0.835   2.335  15.634 -0.4085  0.9625  0.1681
 8499TIP3    H246989   0.876   2.463  15.565  1.4898 -0.1741 -0.8988
 8500TIP3   OH246990   0.347   6.187   4.466  0.7622  0.0993  0.6397
 8500TIP3    H146991   0.259   6.159   4.491  1.0356 -2.6910 -1.0753
 8500TIP3    H246992   0.334   6.253   4.399 -0.1312 -1.4670 -0.8071
 8501TIP3   OH246993   6.166   5.406   3.634  0.0536  0.2225 -0.2351
 8501TIP3    H146994   6.217   5.336   3.592  1.1702  0.0837  1.2342
 8501TIP3    H246995   6.129   5.456   3.562 -3.0379 -3.3698 -1.4735
 8502TIP3   OH246996   3.519   3.648  14.197 -1.0793  0.4184  0.0639
 8502TIP3    H146997   3.552   3.576  14.250 -0.8687 -0.3181 -1.0449
 8502TIP3    H246998   3.427   3.657  14.222 -1.4353 -1.0500 -0.6774
 8503TIP3   OH246999   5.989   5.746  14.748  0.2462 -0.0315 -0.4712
 8503TIP3    H147000   6.050   5.685  14.787 -2.1096 -0.7887  2.3983
 8503TIP3    H247001   5.943   5.695  14.681 -0.1646 -0.7977  0.3692
 8504TIP3   OH247002   6.807   3.315  14.050  0.4657 -0.0188 -0.1183
 8504TIP3    H147003   6.752   3.369  13.992  1.4142  0.5851 -0.4714
 8504TIP3    H247004   6.878   3.284  13.995  0.7128 -0.4592  0.4340
 8505TIP3   OH247005   5.719   4.431  11.346 -0.8480 -0.4835 -0.2388
 8505TIP3    H147006   5.775   4.423  11.423 -1.7659 -0.5485  0.4356
 8505TIP3    H247007   5.672   4.348  11.342  1.5871 -1.9306 -2.8353
 8506TIP3   OH247008   6.736   2.707  13.037 -0.0271 -0.0690  0.0472
 8506TIP3    H147009   6.716   2.657  12.957 -0.5336  1.8263 -1.0905
 8506TIP3    H247010   6.652   2.747  13.060  0.2763 -0.0729  1.1728
 8507TIP3   OH247011   3.833   4.856   1.103  0.2157  0.1748 -0.4377
 8507TIP3    H147012   3.818   4.843   1.009 -0.3115 -1.0809 -0.2061
 8507TIP3    H247013   3.886   4.935   1.109  0.7185 -0.0361 -1.8314
 8508TIP3   OH247014   5.325   3.775   0.306  0.2123 -0.2521 -0.5792
 8508TIP3    H147015   5.326   3.761   0.211 -0.5261 -0.0265 -0.6260
 8508TIP3    H247016   5.236   3.753   0.333 -0.2851  1.8879 -0.2944
 8509TIP3   OH247017   4.984   4.723  14.740 -0.0444 -0.2681 -0.4303
 8509TIP3    H147018   5.037   4.684  14.670 -0.6109 -1.0687 -0.4209
 8509TIP3    H247019   5.041   4.724  14.816 -0.1715 -1.5472 -0.2988
 8510TIP3   OH247020   3.913   6.398   2.329  0.1999 -0.1708  0.5209
 8510TIP3    H147021   3.914   6.491   2.348 -0.9287 -0.4151  1.9480
 8510TIP3    H247022   3.843   6.386   2.265 -0.3744 -0.1577  1.1361
 8511TIP3   OH247023   4.205   0.414   0.717 -0.1695  0.1637 -0.4081
 8511TIP3    H147024   4.140   0.378   0.776 -0.0873  0.3627 -0.1958
 8511TIP3    H247025   4.166   0.496   0.686 -0.7625 -0.5242 -1.5994
 8512TIP3   OH247026   0.014   5.318  12.923  0.0682 -0.0709  0.2084
 8512TIP3    H147027  -0.041   5.337  12.999  0.4251  0.5032  0.3288
 8512TIP3    H247028   0.053   5.233  12.942 -1.6749 -1.0537 -0.4081
 8513TIP3   OH247029   3.035   4.995  15.614  0.1756  0.1780  0.1554
 8513TIP3    H147030   3.107   4.963  15.669  1.0996  0.3668 -0.9129
 8513TIP3    H247031   3.032   4.935  15.540 -1.4816 -0.4485  0.6896
 8514TIP3   OH247032   2.069   4.870  15.844 -0.3335  0.6931 -0.4680
 8514TIP3    H147033   2.039   4.779  15.838 -0.9559  0.4183  3.7859
 8514TIP3    H247034   2.164   4.865  15.835  0.0861 -1.0677  3.2305
 8515TIP3   OH247035   5.322   6.601  14.876 -0.1682 -0.0462 -0.1667
 8515TIP3    H147036   5.295   6.692  14.884  0.3653  0.4108 -2.7301
 8515TIP3    H247037   5.271   6.566  14.803  0.7136 -1.3472 -0.2103
 8516TIP3   OH247038   0.706   4.432  13.421 -0.2439  0.2272 -0.1387
 8516TIP3    H147039   0.612   4.450  13.430 -0.1158  0.8345  0.0758
 8516TIP3    H247040   0.722   4.437  13.326 -0.0204  2.4817 -0.0551
 8517TIP3   OH247041   4.885   2.208   5.768 -0.1274 -0.2514  0.1890
 8517TIP3    H147042   4.897   2.198   5.862 -2.0071  1.1822  0.6408
 8517TIP3    H247043   4.925   2.293   5.747 -1.5576  0.4478  0.1406
 8518TIP3   OH247044   2.194   1.292   4.357 -0.4457 -0.0689 -0.0424
 8518TIP3    H147045   2.128   1.295   4.288 -0.0904 -0.3002 -0.3940
 8518TIP3    H247046   2.265   1.348   4.325 -0.0664 -0.5751 -0.0886
 8519TIP3   OH247047   5.859   1.302   2.138  0.5816  0.0015  0.0608
 8519TIP3    H147048   5.918   1.346   2.077 -0.4959  0.5590 -0.6165
 8519TIP3    H247049   5.870   1.209   2.118  0.1807  0.1823 -1.0656
 8520TIP3   OH247050   0.819   2.871  13.858  0.1559  0.1163 -0.6014
 8520TIP3    H147051   0.795   2.956  13.821  0.5866  1.1419  1.3396
 8520TIP3    H247052   0.894   2.890  13.915  0.9999 -1.7778 -0.9849
 8521TIP3   OH247053   4.396   4.764   1.016 -0.2443  0.0875  0.2118
 8521TIP3    H147054   4.359   4.676   1.020 -3.3018  1.1186 -1.5974
 8521TIP3    H247055   4.328   4.820   1.053  1.5436  1.7597  1.1480
 8522TIP3   OH247056   4.045   3.049   3.504 -0.1494 -0.3659  0.1079
 8522TIP3    H147057   3.958   3.026   3.473 -0.2930 -0.4705  0.5806
 8522TIP3    H247058   4.104   2.990   3.458 -0.3474 -0.4364 -0.0540
 8523TIP3   OH247059   2.891   1.611  12.217 -0.4057 -0.2733  0.3261
 8523TIP3    H147060   2.903   1.522  12.184 -0.0007 -0.6909  1.5435
 8523TIP3    H247061   2.825   1.602  12.286 -1.4217  0.6198 -0.4835
 8524TIP3   OH247062   4.055   1.550   5.239  0.1691 -0.5031  0.0939
 8524TIP3    H147063   4.110   1.619   5.276 -1.6741 -0.6037  3.4249
 8524TIP3    H247064   4.107   1.470   5.251  0.6641 -0.2006  0.0054
 8525TIP3   OH247065   0.876   2.175  11.690  0.4153 -0.0418 -0.4036
 8525TIP3    H147066   0.923   2.252  11.659  0.0706 -0.7934 -3.0492
 8525TIP3    H247067   0.802   2.210  11.739  0.4309  1.3229 -1.3035
 8526TIP3   OH247068   3.762   5.738   3.076 -0.4736 -0.5915  0.1189
 8526TIP3    H147069   3.784   5.829   3.056  0.2056 -0.7683  0.0277
 8526TIP3    H247070   3.742   5.699   2.991  1.6168 -1.1328 -0.1938
 8527TIP3   OH247071   1.870   5.597  13.911  0.1121 -0.0788 -0.3904
 8527TIP3    H147072   1.871   5.693  13.906 -1.1807 -0.0391 -0.2217
 8527TIP3    H247073   1.806   5.577  13.980 -0.9256 -1.0776 -1.5913
 8528TIP3   OH247074   6.597   4.892   3.817  0.7827 -0.5011  0.1384
 8528TIP3    H147075   6.544   4.931   3.747  0.3653  0.8679  1.1673
 8528TIP3    H247076   6.542   4.898   3.895  1.7775 -0.6746  0.8702
 8529TIP3   OH247077   2.941   4.361  14.789  0.7026  0.1711  0.0415
 8529TIP3    H147078   2.991   4.418  14.847 -1.9263  1.0756  1.6093
 8529TIP3    H247079   2.964   4.391  14.701  1.9766  1.3427  0.7342
 8530TIP3   OH247080   0.582   1.651  14.809  0.5313 -0.1099 -0.1726
 8530TIP3    H147081   0.655   1.631  14.866  0.9625 -0.1184 -0.7161
 8530TIP3    H247082   0.539   1.566  14.794 -0.3213  0.0746  1.1125
 8531TIP3   OH247083   1.030   4.198   5.326  0.1957 -0.2610 -0.1279
 8531TIP3    H147084   1.080   4.162   5.253  0.1830  0.3841 -0.4622
 8531TIP3    H247085   0.961   4.250   5.285  0.5325  0.5772  0.3332
 8532TIP3   OH247086   3.100   4.849   0.794  0.1533 -0.0287  0.0298
 8532TIP3    H147087   3.063   4.934   0.773 -0.8187 -0.4864 -0.1481
 8532TIP3    H247088   3.097   4.845   0.890 -1.0400 -0.3898 -0.0077
 8533TIP3   OH247089   4.732   0.449   0.931  0.1786  0.2963  0.2643
 8533TIP3    H147090   4.698   0.501   0.858  0.6465  0.2575  0.0151
 8533TIP3    H247091   4.765   0.514   0.994  0.0410  0.3211  0.3111
 8534TIP3   OH247092   2.885   2.000   4.510 -0.5564 -0.4854  0.1727
 8534TIP3    H147093   2.835   1.925   4.478 -1.5235  0.0823  0.3267
 8534TIP3    H247094   2.976   1.981   4.484 -1.0132 -0.9883 -1.1463
 8535TIP3   OH247095   1.148   3.135  12.344 -0.5796 -0.1927 -0.4157
 8535TIP3    H147096   1.206   3.171  12.412  0.3408 -1.6276 -0.4002
 8535TIP3    H247097   1.206   3.112  12.272 -1.2443 -0.8216 -0.7690
 8536TIP3   OH247098   5.334   2.038   5.704 -0.0388  0.0844 -0.4968
 8536TIP3    H147099   5.315   2.081   5.621  0.7231 -0.6157 -1.0625
 8536TIP3    H247100   5.320   1.945   5.686 -1.6985  0.0491  0.7016
 8537TIP3   OH247101   4.458   1.534   1.270 -0.3555 -0.1744  0.5600
 8537TIP3    H147102   4.462   1.450   1.315 -1.2662 -0.7005 -0.3224
 8537TIP3    H247103   4.456   1.599   1.341 -3.1854 -1.0304  1.3977
 8538TIP3   OH247104   3.995   3.077  11.857 -0.0698 -0.5721  0.1800
 8538TIP3    H147105   3.917   3.131  11.848 -0.8419 -1.5628  0.6770
 8538TIP3    H247106   4.030   3.069  11.769 -0.8968 -0.6362 -0.1480
 8539TIP3   OH247107   0.253   4.017   1.806 -0.2079  0.0762  0.0211
 8539TIP3    H147108   0.342   4.029   1.839  0.1062  0.4357 -0.9253
 8539TIP3    H247109   0.220   3.940   1.852  1.3369 -1.3269 -1.1389
 8540TIP3   OH247110   0.259   5.329   4.487 -0.4843 -0.1279  0.0910
 8540TIP3    H147111   0.292   5.418   4.494 -1.6532  0.3582 -0.4517
 8540TIP3    H247112   0.248   5.315   4.393 -0.6117 -0.7369  0.1927
 8541TIP3   OH247113   5.326   6.275  16.969 -0.1568  0.0399 -0.1123
 8541TIP3    H147114   5.376   6.195  16.986  0.3442  0.6248  1.3454
 8541TIP3    H247115   5.370   6.342  17.022 -3.0799  0.3827  2.1455
 8542TIP3   OH247116   4.948   1.212   4.914 -0.3743  0.1974  0.3349
 8542TIP3    H147117   4.958   1.149   4.842  1.2447 -0.5629  1.1827
 8542TIP3    H247118   4.872   1.181   4.962  0.3291 -1.0882  0.6726
 8543TIP3   OH247119   0.417   3.915  14.973 -0.3928  0.2063  0.1441
 8543TIP3    H147120   0.442   3.874  15.056 -0.2448  2.0456  1.0587
 8543TIP3    H247121   0.345   3.861  14.941 -0.0735 -0.8806  1.1833
 8544TIP3   OH247122   6.802   5.575   2.138 -0.1427 -0.1789 -0.2822
 8544TIP3    H147123   6.863   5.642   2.108 -0.1478 -0.4303 -0.8727
 8544TIP3    H247124   6.858   5.505   2.171 -0.1036 -0.5197 -1.0651
 8545TIP3   OH247125   3.519   0.892   1.609 -0.8658 -0.1764  0.3503
 8545TIP3    H147126   3.429   0.867   1.588 -1.2888  1.0862  0.5926
 8545TIP3    H247127   3.514   0.986   1.628  0.4075 -0.2079  0.9152
 8546TIP3   OH247128   3.389   2.609   3.478 -0.0948  0.8418  0.4133
 8546TIP3    H147129   3.467   2.558   3.456  0.5579  1.5322  1.0441
 8546TIP3    H247130   3.319   2.571   3.425  0.3716 -0.6726  0.8145
 8547TIP3   OH247131   2.242   4.433  13.284  0.4671 -0.2005  0.0405
 8547TIP3    H147132   2.302   4.373  13.329  1.0411  0.4896  0.2043
 8547TIP3    H247133   2.292   4.513  13.272 -0.2407  0.1968 -0.3313
 8548TIP3   OH247134   3.610   5.413   0.007 -0.1089 -0.3744 -0.6566
 8548TIP3    H147135   3.603   5.362  -0.073  1.4555  0.8658 -1.6613
 8548TIP3    H247136   3.564   5.495  -0.012 -0.2633 -0.3161 -0.0592
 8549TIP3   OH247137   1.675   6.702   3.275 -0.2103  0.5183 -0.0056
 8549TIP3    H147138   1.727   6.771   3.316  1.1086 -0.9792  0.9599
 8549TIP3    H247139   1.597   6.695   3.330 -0.3457  1.2250 -0.1058
 8550TIP3   OH247140   0.328   3.005  15.500  0.0949  0.3304  0.2495
 8550TIP3    H147141   0.375   3.052  15.569  1.8717 -0.0957 -0.6223
 8550TIP3    H247142   0.340   2.912  15.523  3.6193 -0.0359 -2.2817
 8551TIP3   OH247143   3.700   5.406   0.467  0.5646  0.5872 -0.2492
 8551TIP3    H147144   3.725   5.357   0.389  0.5765  1.3886 -0.7694
 8551TIP3    H247145   3.694   5.341   0.536  0.1714 -0.1975 -1.0088
 8552TIP3   OH247146   5.890   2.054   0.828  0.0428  0.1841  0.1470
 8552TIP3    H147147   5.916   1.966   0.856 -0.3868  0.1624  0.4867
 8552TIP3    H247148   5.968   2.108   0.840  0.3183 -0.1558 -0.0930
 8553TIP3   OH247149   4.083   3.824   2.204 -0.1389 -0.1255  0.1200
 8553TIP3    H147150   4.121   3.789   2.285  0.6989  1.2863  0.3933
 8553TIP3    H247151   4.071   3.917   2.223 -0.1505  0.1811 -1.3020
 8554TIP3   OH247152   5.855   6.166   0.319 -0.1550  0.3149  0.3474
 8554TIP3    H147153   5.802   6.237   0.355 -0.6195  0.0231  0.2322
 8554TIP3    H247154   5.937   6.209   0.293 -0.5220  0.8463  0.0652
 8555TIP3   OH247155   2.806   1.574   2.000  0.0510 -0.1409 -0.0130
 8555TIP3    H147156   2.776   1.504   1.942 -1.7036 -0.9734  1.7910
 8555TIP3    H247157   2.898   1.553   2.017  0.0379 -0.9848 -0.8871
 8556TIP3   OH247158   1.151   2.998   3.362 -0.2595  0.1465 -0.3387
 8556TIP3    H147159   1.113   2.913   3.337 -1.9979  0.7296  0.1664
 8556TIP3    H247160   1.197   2.980   3.444  1.7814 -0.8503 -1.6129
 8557TIP3   OH247161   1.051   3.664   1.823  0.3544 -0.2432 -0.1334
 8557TIP3    H147162   1.108   3.595   1.857  1.4038  1.2989  1.3578
 8557TIP3    H247163   1.102   3.706   1.753  0.6022  0.3992  0.4261
 8558TIP3   OH247164   3.910   6.799  16.805  0.2998  0.0778 -0.2848
 8558TIP3    H147165   3.874   6.717  16.840  1.7158 -0.6638 -0.4650
 8558TIP3    H247166   3.924   6.854  16.882 -0.9077  0.2583 -0.1867
 8559TIP3   OH247167   5.648   5.114  13.789 -0.3141  0.2097  0.4551
 8559TIP3    H147168   5.591   5.174  13.838  0.0460  1.1727 -0.2909
 8559TIP3    H247169   5.734   5.156  13.790  0.0306 -0.4754  0.2347
 8560TIP3   OH247170   3.117   5.384  16.149  0.0763  0.4384 -0.2463
 8560TIP3    H147171   3.099   5.458  16.091  0.9579  0.6274 -0.2812
 8560TIP3    H247172   3.107   5.307  16.094  3.2222  0.6732 -1.3305
 8561TIP3   OH247173   3.694   4.820  16.859 -0.4091 -0.3857  0.3201
 8561TIP3    H147174   3.784   4.791  16.844 -0.5391 -1.4176  1.4249
 8561TIP3    H247175   3.703   4.901  16.910 -0.1176 -0.5713  0.5601
 8562TIP3   OH247176   3.020   5.341  13.052 -0.3897 -0.7974 -0.2691
 8562TIP3    H147177   3.072   5.316  12.976 -0.5534 -0.5023 -0.4802
 8562TIP3    H247178   2.941   5.287  13.047  0.5650 -2.3815  0.9013
 8563TIP3   OH247179   5.867   2.229   2.084 -0.0005 -0.3530  0.4974
 8563TIP3    H147180   5.831   2.315   2.064  0.5902 -0.2959 -0.3963
 8563TIP3    H247181   5.798   2.167   2.061 -1.8242 -0.0508  4.3924
 8564TIP3   OH247182   2.256   1.008  16.951 -0.5742  0.6098 -0.2067
 8564TIP3    H147183   2.282   1.033  16.863 -0.3379  1.1972  0.0288
 8564TIP3    H247184   2.329   0.953  16.982 -0.4481  0.7727 -0.2121
 8565TIP3   OH247185   1.116   5.041  10.241  0.0289 -0.1441  0.2601
 8565TIP3    H147186   1.052   5.105  10.273  1.6325  1.9781 -0.6065
 8565TIP3    H247187   1.156   5.082  10.165  3.0138 -1.0234  1.2269
 8566TIP3   OH247188   4.448   5.235   3.211  0.5195  0.7000  0.3768
 8566TIP3    H147189   4.474   5.197   3.127  1.7629  1.4027  0.4130
 8566TIP3    H247190   4.356   5.213   3.220  0.7887 -0.8383 -0.3720
 8567TIP3   OH247191   1.721   3.216  13.829 -0.0111  0.0394 -0.4189
 8567TIP3    H147192   1.757   3.291  13.876  0.5226 -1.2025  1.2778
 8567TIP3    H247193   1.633   3.205  13.865 -0.5477  0.5493 -1.5333
 8568TIP3   OH247194   4.382   1.240  15.752 -0.0505  0.1491  0.3867
 8568TIP3    H147195   4.389   1.170  15.816 -0.8572 -0.4749 -0.1863
 8568TIP3    H247196   4.420   1.204  15.672 -0.5096  0.3351  0.0753
 8569TIP3   OH247197   3.983   4.380   0.695  0.0910  0.6971 -0.0956
 8569TIP3    H147198   3.916   4.443   0.670 -0.1473  0.4275 -0.1427
 8569TIP3    H247199   3.935   4.299   0.710  0.4316  0.4564 -0.3049
 8570TIP3   OH247200   5.979   1.440  15.761 -0.0747 -0.1228 -0.0256
 8570TIP3    H147201   5.930   1.358  15.765  0.7794 -0.6361  0.0233
 8570TIP3    H247202   5.984   1.461  15.668  0.2780 -0.4867 -0.0948
 8571TIP3   OH247203   3.010   2.267   2.406  0.7464 -0.8513  0.1247
 8571TIP3    H147204   2.960   2.307   2.478 -0.1194 -1.5823 -0.0484
 8571TIP3    H247205   2.948   2.266   2.332  1.1918 -1.2941 -0.2500
 8572TIP3   OH247206   1.896   3.236  12.915  0.4140  0.2727 -0.3402
 8572TIP3    H147207   1.876   3.227  13.008 -0.8500 -1.9220 -0.7442
 8572TIP3    H247208   1.834   3.302  12.884  1.5503  1.8069  0.5180
 8573TIP3   OH247209   3.474   2.340   1.648 -0.0141 -0.0413 -0.3823
 8573TIP3    H147210   3.479   2.428   1.686  1.2609 -0.6546  0.9482
 8573TIP3    H247211   3.386   2.310   1.671 -0.2688  0.6766 -0.3863
 8574TIP3   OH247212   6.615   4.711  10.705  0.2751  0.0584  0.3799
 8574TIP3    H147213   6.558   4.682  10.634  0.9419  0.1806 -0.2066
 8574TIP3    H247214   6.697   4.735  10.663 -0.6823  4.4517  0.5446
 8575TIP3   OH247215   0.278   0.928   0.323 -0.3265  0.5069 -0.4093
 8575TIP3    H147216   0.267   1.007   0.376  0.4587  0.4635 -0.1739
 8575TIP3    H247217   0.232   0.948   0.241 -2.2395  0.2855  0.5559
 8576TIP3   OH247218   6.813   3.737   3.405  0.2194 -0.2044 -0.1945
 8576TIP3    H147219   6.763   3.701   3.331  0.7647 -1.3439 -0.0377
 8576TIP3    H247220   6.838   3.825   3.376  1.9657 -1.2550 -2.1642
 8577TIP3   OH247221   2.776   3.531  16.989  0.6197  0.1729 -0.0574
 8577TIP3    H147222   2.817   3.609  17.026 -0.8524  0.3961  1.1637
 8577TIP3    H247223   2.735   3.561  16.908 -1.4086  1.1006  1.2534
 8578TIP3   OH247224   2.850   4.169   0.298 -0.0851  0.6969  0.4442
 8578TIP3    H147225   2.923   4.182   0.237  0.2229 -0.4244  0.5638
 8578TIP3    H247226   2.892   4.147   0.381 -0.5442  0.8685  0.7235
 8579TIP3   OH247227   2.972   6.100  15.517  0.8919 -0.0180  0.4707
 8579TIP3    H147228   2.920   6.176  15.493  1.5188  0.6917  1.2806
 8579TIP3    H247229   2.921   6.055  15.585  0.9639  0.2351  0.6949
 8580TIP3   OH247230   3.760   3.472   5.706 -0.0327  0.2878  0.0255
 8580TIP3    H147231   3.683   3.521   5.679  0.7063  1.4478 -0.0490
 8580TIP3    H247232   3.781   3.506   5.793  0.5750  0.1958 -0.0831
 8581TIP3   OH247233   1.349   5.610   3.574 -0.2504 -0.1727 -0.5455
 8581TIP3    H147234   1.407   5.658   3.632  0.0411 -0.1749 -0.8348
 8581TIP3    H247235   1.407   5.567   3.511 -0.5801  0.0627 -1.0148
 8582TIP3   OH247236   3.189   3.790  16.503  0.9008 -0.5608  0.3346
 8582TIP3    H147237   3.202   3.791  16.408  0.4181  0.7874  0.2594
 8582TIP3    H247238   3.224   3.705  16.531  0.5071 -1.2353 -1.1145
 8583TIP3   OH247239   2.203   2.615   4.660  0.0783  0.1791  0.1233
 8583TIP3    H147240   2.217   2.706   4.688 -5.1509  0.6601  2.1862
 8583TIP3    H247241   2.211   2.564   4.740  1.6624 -1.1403 -0.7998
 8584TIP3   OH247242   3.202   4.221  15.691  0.1415  0.7471 -0.3092
 8584TIP3    H147243   3.136   4.271  15.644 -0.1714  0.8274  0.2131
 8584TIP3    H247244   3.271   4.206  15.626  0.6929  2.6828 -0.2097
 8585TIP3   OH247245   6.495   1.639   1.160  0.0658  0.3200  0.2363
 8585TIP3    H147246   6.450   1.665   1.240  1.5081  0.6680  0.9731
 8585TIP3    H247247   6.585   1.669   1.172  1.1380 -2.4517 -0.1297
 8586TIP3   OH247248   1.185   4.957   2.264  0.3859 -0.3147  0.9392
 8586TIP3    H147249   1.177   4.914   2.180  1.1914  0.0673  0.6504
 8586TIP3    H247250   1.257   5.019   2.252 -0.3028  0.6234  1.5409
 8587TIP3   OH247251   6.628   5.937   0.940 -0.3327 -0.0390 -0.2556
 8587TIP3    H147252   6.624   6.010   0.878 -0.0060 -0.1175 -0.3658
 8587TIP3    H247253   6.691   5.876   0.903  0.1072  0.0630  0.3082
 8588TIP3   OH247254   5.386   1.677   4.687 -0.1329 -0.0872 -0.5369
 8588TIP3    H147255   5.381   1.602   4.747  0.4282  0.8212  0.6795
 8588TIP3    H247256   5.300   1.719   4.695 -0.0988 -0.0333 -0.4465
 8589TIP3   OH247257   5.717   6.286   2.148 -0.4259 -0.3540  0.9189
 8589TIP3    H147258   5.808   6.279   2.118 -0.4535  1.3462  0.3256
 8589TIP3    H247259   5.714   6.367   2.198 -2.2151  1.2058 -1.5214
 8590TIP3   OH247260   6.154   0.657   3.020 -0.4658  0.3965  0.0808
 8590TIP3    H147261   6.199   0.726   3.068  0.1451  1.3302 -1.7439
 8590TIP3    H247262   6.064   0.659   3.054 -0.3410  1.7896  0.3853
 8591TIP3   OH247263   2.747   5.159  12.151 -0.1669 -0.5211  0.2503
 8591TIP3    H147264   2.782   5.134  12.237 -0.0051 -0.0486  0.3212
 8591TIP3    H247265   2.653   5.169  12.166  0.1117  1.6264  0.8813
 8592TIP3   OH247266   1.781   6.221   5.285  0.0628 -0.3360 -0.1895
 8592TIP3    H147267   1.774   6.137   5.330  0.1623 -0.3326 -0.1694
 8592TIP3    H247268   1.868   6.221   5.247 -0.3390 -0.7331 -1.1563
 8593TIP3   OH247269   2.895   2.525   3.241  0.5259 -0.2900 -0.4093
 8593TIP3    H147270   2.886   2.554   3.150  0.7815 -0.8515 -0.6229
 8593TIP3    H247271   2.851   2.439   3.242 -0.8517  0.3889  0.3710
 8594TIP3   OH247272   1.252   1.298  13.850  0.9498 -0.4178 -0.4163
 8594TIP3    H147273   1.346   1.286  13.856  0.7087 -2.4415 -0.0146
 8594TIP3    H247274   1.220   1.220  13.804 -0.7370 -0.9333  1.4627
 8595TIP3   OH247275   3.644   3.057   2.875  0.4930 -0.2561 -0.2053
 8595TIP3    H147276   3.733   3.092   2.883  0.4959 -0.1183 -0.8411
 8595TIP3    H247277   3.599   3.118   2.817 -0.0478 -0.2786  0.1837
 8596TIP3   OH247278   3.924   6.361   2.025 -0.1748 -0.1675  0.0550
 8596TIP3    H147279   3.939   6.441   2.076 -0.2235 -0.2019  0.1233
 8596TIP3    H247280   3.970   6.293   2.074  1.1632  0.0791 -0.7946
 8597TIP3   OH247281   3.256   6.783   3.986  0.3895 -0.3594 -0.3126
 8597TIP3    H147282   3.300   6.723   3.925  0.3523  0.4183 -1.1217
 8597TIP3    H247283   3.202   6.726   4.041 -0.9133 -0.9559 -2.1232
 8598TIP3   OH247284   3.118   6.600   4.207  0.0769  0.1700 -0.3719
 8598TIP3    H147285   3.169   6.532   4.251  0.1020  1.3610  1.5282
 8598TIP3    H247286   3.040   6.554   4.174 -0.9668 -0.4989  2.7126
 8599TIP3   OH247287   4.719   3.333  16.765  0.6461  0.1147  0.2728
 8599TIP3    H147288   4.643   3.364  16.716  0.4304  2.4219  1.8927
 8599TIP3    H247289   4.787   3.322  16.698 -0.8249 -1.1763 -1.0885
 8600TIP3   OH247290   5.536   6.289   5.574  0.1452 -0.3954 -0.3350
 8600TIP3    H147291   5.519   6.246   5.658  1.5380 -0.6771 -0.1703
 8600TIP3    H247292   5.568   6.376   5.598 -1.8196  0.4748 -0.6527
 8601TIP3   OH247293   4.583   0.641  13.784  0.0626  0.0265 -0.0567
 8601TIP3    H147294   4.538   0.686  13.712 -0.6550  1.3231  1.1730
 8601TIP3    H247295   4.516   0.627  13.850  0.7200 -1.1598  0.3930
 8602TIP3   OH247296   4.293   0.904  10.817  0.5414  0.0069  0.2371
 8602TIP3    H147297   4.384   0.924  10.838  0.4287 -0.0021  0.7373
 8602TIP3    H247298   4.286   0.925  10.723  0.8365  0.8406  0.3860
 8603TIP3   OH247299   5.259   3.152   1.192  0.2612  0.4268  0.1070
 8603TIP3    H147300   5.178   3.201   1.206  0.8635  1.9964 -1.4911
 8603TIP3    H247301   5.327   3.220   1.186  1.2679 -0.6376 -1.3129
 8604TIP3   OH247302   1.223   0.242  13.616  0.2900  0.0432  0.1814
 8604TIP3    H147303   1.199   0.333  13.600 -1.0788 -0.3644 -0.2567
 8604TIP3    H247304   1.315   0.237  13.590  0.6536  1.4928  1.0794
 8605TIP3   OH247305   2.584   1.257   2.386  0.1539  0.3117  0.2686
 8605TIP3    H147306   2.600   1.194   2.316  1.7401 -0.9837  1.6985
 8605TIP3    H247307   2.621   1.339   2.354  0.2548 -0.0909 -0.6718
 8606TIP3   OH247308   1.943   1.084  15.225  0.0808  0.4612  0.2837
 8606TIP3    H147309   1.974   1.006  15.271 -0.5360 -1.3932 -2.2077
 8606TIP3    H247310   1.889   1.050  15.153 -2.1146  3.2891  0.3991
 8607TIP3   OH247311   1.185   5.040   0.784 -0.0278 -0.2752 -0.0760
 8607TIP3    H147312   1.263   4.988   0.765  0.3222 -0.4359  1.6504
 8607TIP3    H247313   1.213   5.130   0.772 -0.5113 -0.3917 -2.6351
 8608TIP3   OH247314   6.237   1.196  10.872 -0.1570  0.4706 -0.2475
 8608TIP3    H147315   6.152   1.240  10.861  0.1349  0.9410 -0.6708
 8608TIP3    H247316   6.219   1.105  10.851 -0.2962  0.7944 -1.6337
 8609TIP3   OH247317   3.899   4.403   5.119  0.0954  0.0211 -0.0510
 8609TIP3    H147318   3.824   4.357   5.082  0.5215 -0.0202 -0.8800
 8609TIP3    H247319   3.893   4.491   5.082 -0.7296  0.6843  1.5362
 8610TIP3   OH247320   4.075   0.683  14.976 -0.0399 -0.2667 -0.5860
 8610TIP3    H147321   4.101   0.605  15.025  0.5868  0.3211  0.0385
 8610TIP3    H247322   3.981   0.690  14.991  0.0936 -0.2505  0.3205
 8611TIP3   OH247323   0.099   1.185   3.275  0.1941 -0.7670 -0.6112
 8611TIP3    H147324   0.022   1.199   3.219 -2.3788 -0.3296  2.7130
 8611TIP3    H247325   0.072   1.117   3.336  2.1112  0.0041  1.2257
 8612TIP3   OH247326   1.908   6.831  10.650 -0.2427 -0.3148 -0.1242
 8612TIP3    H147327   1.974   6.764  10.636  0.5808  0.5628 -0.5672
 8612TIP3    H247328   1.876   6.853  10.563 -1.5273 -1.1093  0.1252
 8613TIP3   OH247329   3.616   2.121  16.717 -0.0289 -0.0747  0.2848
 8613TIP3    H147330   3.574   2.207  16.712  0.7749  0.3416  0.5069
 8613TIP3    H247331   3.550   2.064  16.757 -0.9693  0.1674 -0.8973
 8614TIP3   OH247332   5.748   0.379   6.627  0.0085  0.6995 -0.3523
 8614TIP3    H147333   5.797   0.341   6.555 -0.1073 -0.4933  0.1827
 8614TIP3    H247334   5.707   0.458   6.590  1.9712  1.5065 -0.9026
 8615TIP3   OH247335   6.222   5.271  11.667  0.2293 -0.5319  0.6435
 8615TIP3    H147336   6.217   5.334  11.738  0.1790 -0.5377  0.6451
 8615TIP3    H247337   6.260   5.319  11.594 -1.9527  0.1873 -0.1003
 8616TIP3   OH247338   2.128   1.887   6.006 -0.0882  0.1666  0.2798
 8616TIP3    H147339   2.198   1.942   6.042  0.9069 -0.7502 -0.2044
 8616TIP3    H247340   2.057   1.948   5.987 -0.5950  0.7909  3.4983
 8617TIP3   OH247341   2.317   5.579   1.814  0.1782 -0.4547 -0.6353
 8617TIP3    H147342   2.386   5.610   1.874 -1.4465 -0.1960  1.1967
 8617TIP3    H247343   2.263   5.656   1.799 -0.1914 -0.8543 -1.3889
 8618TIP3   OH247344   1.446   4.964   1.218 -0.4464  0.0994  0.9057
 8618TIP3    H147345   1.387   4.911   1.273  0.3732 -0.2119  1.5031
 8618TIP3    H247346   1.442   4.921   1.132 -1.3933  0.3222  0.8281
 8619TIP3   OH247347   4.157   1.441  10.877 -0.0248 -1.0726  0.2662
 8619TIP3    H147348   4.240   1.445  10.831  0.1826  0.4333  0.7181
 8619TIP3    H247349   4.115   1.361  10.845  0.0185 -0.0246 -2.6511
 8620TIP3   OH247350   1.390   5.659   6.411 -0.1260  0.1847 -0.2432
 8620TIP3    H147351   1.464   5.714   6.388 -1.8441  2.3354 -0.9142
 8620TIP3    H247352   1.346   5.641   6.328 -0.0852 -1.5357  0.0703
 8621TIP3   OH247353   6.644   6.605  13.572  0.2924 -0.1938  0.2982
 8621TIP3    H147354   6.623   6.520  13.535 -0.8684  0.4956 -0.7045
 8621TIP3    H247355   6.739   6.607  13.576  0.3526 -1.2570 -0.3390
 8622TIP3   OH247356   1.462   1.007  10.769 -0.1302  0.1996 -0.2113
 8622TIP3    H147357   1.450   0.923  10.727  0.6377 -0.4908  0.8780
 8622TIP3    H247358   1.495   1.065  10.700  0.9097 -0.8402 -0.6224
 8623TIP3   OH247359   2.167   2.299   5.561  0.1904  0.1585 -0.4289
 8623TIP3    H147360   2.261   2.280   5.565  0.2161  0.2251 -0.6927
 8623TIP3    H247361   2.155   2.376   5.616  0.4666  0.8155 -1.2654
 8624TIP3   OH247362   4.569   4.833   2.963 -0.3648 -0.1613  0.9604
 8624TIP3    H147363   4.595   4.803   2.876  1.7146  1.0837  1.0684
 8624TIP3    H247364   4.474   4.843   2.958 -0.1885  1.1845 -1.6585
 8625TIP3   OH247365   2.525   3.976  13.691  0.3914 -0.3843  0.3525
 8625TIP3    H147366   2.490   3.914  13.755 -0.3126 -1.4376 -0.9833
 8625TIP3    H247367   2.456   4.042  13.681  0.0527 -0.7914 -0.0583
 8626TIP3   OH247368   3.040   3.046   5.512 -0.5252 -0.1438  0.1458
 8626TIP3    H147369   2.947   3.023   5.519 -0.9410  0.9802 -1.1863
 8626TIP3    H247370   3.060   3.087   5.596 -0.8953 -1.4223  0.8949
 8627TIP3   OH247371   1.294   1.082  12.849  0.4463 -0.2019 -0.2176
 8627TIP3    H147372   1.348   1.160  12.836 -0.4950  1.0981  2.8021
 8627TIP3    H247373   1.211   1.103  12.808  0.2900  0.2860  0.3404
 8628TIP3   OH247374   6.358   0.656   1.725 -0.5430  0.4055 -0.0582
 8628TIP3    H147375   6.435   0.619   1.683 -0.9555  1.2450 -1.6583
 8628TIP3    H247376   6.285   0.632   1.668 -1.5848 -0.7825  1.6643
 8629TIP3   OH247377   3.752   5.266  14.111  0.2150  0.5104  0.6176
 8629TIP3    H147378   3.667   5.260  14.067 -0.0004 -1.3220  1.2042
 8629TIP3    H247379   3.771   5.360  14.112 -0.5049  0.7820 -1.9440
 8630TIP3   OH247380   1.833   0.924  16.521  0.7836  0.2972  0.1670
 8630TIP3    H147381   1.801   0.835  16.535  0.2556  0.1092 -1.9399
 8630TIP3    H247382   1.754   0.977  16.508  1.1395  0.5248 -1.3166
 8631TIP3   OH247383   3.110   1.570  14.223  0.2605 -0.1888  0.3457
 8631TIP3    H147384   3.053   1.494  14.232 -1.6883  1.1927  0.1732
 8631TIP3    H247385   3.124   1.579  14.129 -0.1159  0.0888  0.3148
 8632TIP3   OH247386   2.073   3.128   6.115 -0.3026  0.1625  0.1591
 8632TIP3    H147387   2.020   3.124   6.195 -1.5291  0.4073 -0.6063
 8632TIP3    H247388   2.087   3.037   6.091 -0.5812  0.0900  0.2593
 8633TIP3   OH247389   3.214   1.886  16.354  0.3500 -0.3385  0.7786
 8633TIP3    H147390   3.161   1.807  16.361 -0.7884  0.3800  0.5052
 8633TIP3    H247391   3.212   1.907  16.260 -1.0379  1.1033  1.0815
 8634TIP3   OH247392   2.688   6.651   5.136 -0.5685  0.3407  0.4605
 8634TIP3    H147393   2.710   6.743   5.151 -2.0996  0.9668 -0.8755
 8634TIP3    H247394   2.723   6.633   5.048 -1.0718 -0.0731  0.3463
 8635TIP3   OH247395   3.540   5.568  11.214 -0.1277 -0.2644 -0.0164
 8635TIP3    H147396   3.604   5.633  11.242  0.1265  0.0060 -1.1557
 8635TIP3    H247397   3.584   5.520  11.144  0.0522 -2.3232  1.4273
 8636TIP3   OH247398   4.104   1.642  15.755  0.0014 -0.3460 -0.0489
 8636TIP3    H147399   4.056   1.663  15.675  0.5221 -1.1102 -0.5830
 8636TIP3    H247400   4.157   1.565  15.731 -0.0142 -0.7288  1.0994
 8637TIP3   OH247401   1.106   2.866  14.593  0.2069 -0.2599 -0.5731
 8637TIP3    H147402   1.094   2.841  14.685  1.8939  0.0390 -0.2422
 8637TIP3    H247403   1.022   2.903  14.567  0.2202  1.3036  1.3919
 8638TIP3   OH247404   5.769   4.969   4.611 -0.3161 -0.4711 -0.3816
 8638TIP3    H147405   5.854   4.931   4.632  0.2388  0.7906 -0.2968
 8638TIP3    H247406   5.706   4.906   4.646  0.5823 -0.8974  0.5201
 8639TIP3   OH247407   0.195   4.407   0.716 -0.3179 -0.5671 -0.3331
 8639TIP3    H147408   0.155   4.384   0.632 -1.2184 -1.6401  0.3599
 8639TIP3    H247409   0.162   4.341   0.777  1.9433 -1.0680  0.4547
 8640TIP3   OH247410   2.240   3.442  12.396 -0.2552 -0.0564  0.3619
 8640TIP3    H147411   2.240   3.525  12.443  0.3974 -0.2367  0.6853
 8640TIP3    H247412   2.253   3.467  12.304 -0.4814  0.2205  0.4014
 8641TIP3   OH247413   5.988   0.601  15.899  0.3398 -0.4509  0.2320
 8641TIP3    H147414   6.001   0.659  15.824 -0.9430 -1.5137 -0.8556
 8641TIP3    H247415   5.895   0.609  15.919  0.6128 -0.3894  1.5663
 8642TIP3   OH247416   2.756   4.967   3.222  0.1145 -0.1719  0.2224
 8642TIP3    H147417   2.821   4.922   3.276 -1.1455 -0.6419  1.4405
 8642TIP3    H247418   2.800   5.045   3.190  1.7965 -1.3327 -0.4354
 8643TIP3   OH247419   5.297   4.635  12.298 -0.1509 -0.2357 -0.2833
 8643TIP3    H147420   5.304   4.559  12.356  0.4760 -1.2979 -1.6894
 8643TIP3    H247421   5.282   4.598  12.211 -0.4238  1.2830 -0.9149
 8644TIP3   OH247422   3.522   0.094  11.840  0.2195 -0.1785 -0.5463
 8644TIP3    H147423   3.520   0.175  11.790 -0.2615  1.0960  1.4106
 8644TIP3    H247424   3.435   0.088  11.879  0.4533 -1.3235 -0.1732
 8645TIP3   OH247425   5.105   2.909   2.623  0.1359 -0.1230 -0.3083
 8645TIP3    H147426   5.022   2.867   2.597  0.4924 -0.6023 -0.6904
 8645TIP3    H247427   5.134   2.857   2.699  0.6988 -0.7347 -0.9282
 8646TIP3   OH247428   5.082   0.977   5.413 -0.9224 -0.0502  0.8666
 8646TIP3    H147429   5.013   1.030   5.454 -1.6573 -0.5765  0.3490
 8646TIP3    H247430   5.051   0.963   5.323 -1.2985 -2.2532  1.2935
 8647TIP3   OH247431   6.102   0.867  11.929 -0.1719  0.1436 -0.0730
 8647TIP3    H147432   6.047   0.903  11.999  0.4371  1.7949 -0.3960
 8647TIP3    H247433   6.047   0.870  11.851 -0.4934 -0.7131  0.1060
 8648TIP3   OH247434   2.439   6.068   4.730 -0.3066 -0.5261  0.3746
 8648TIP3    H147435   2.359   6.086   4.780  1.0617  0.3662  2.3967
 8648TIP3    H247436   2.438   6.132   4.659 -1.4096 -0.5509  0.3541
 8649TIP3   OH247437   4.837   4.063   0.791  0.2760  0.0210  0.0083
 8649TIP3    H147438   4.819   4.156   0.785  0.0366 -0.1014 -1.6989
 8649TIP3    H247439   4.892   4.054   0.869 -2.4104  1.1193  2.1750
 8650TIP3   OH247440   0.134   2.633   3.275  0.3467 -0.3473  0.5844
 8650TIP3    H147441   0.152   2.606   3.365  1.3828  0.1665  0.5456
 8650TIP3    H247442   0.049   2.676   3.280  1.1672  1.2709  1.6757
 8651TIP3   OH247443   0.366   6.296   4.047 -0.4815 -0.0676 -0.0026
 8651TIP3    H147444   0.396   6.301   4.138 -1.8965  2.2668  0.4073
 8651TIP3    H247445   0.433   6.243   4.003  0.3322 -1.1374  2.3298
 8652TIP3   OH247446   5.000   5.748  15.705 -0.7327  0.7318  0.1869
 8652TIP3    H147447   5.088   5.766  15.670 -1.2837  3.1758 -0.1253
 8652TIP3    H247448   5.014   5.727  15.797  0.0535  4.5926  1.1237
 8653TIP3   OH247449   4.673   5.660  12.857  0.2345  0.2183  0.1826
 8653TIP3    H147450   4.692   5.567  12.870  1.2815  0.2479 -0.9627
 8653TIP3    H247451   4.598   5.677  12.914  1.0347 -0.9367  1.6582
 8654TIP3   OH247452   3.109   2.203  15.285  0.0163  0.6041  0.0721
 8654TIP3    H147453   3.139   2.188  15.374 -0.5150  0.4727  0.2314
 8654TIP3    H247454   3.153   2.284  15.259  2.7590 -1.0145 -0.7452
 8655TIP3   OH247455   2.783   4.332  16.687 -0.0344 -0.0391  0.7921
 8655TIP3    H147456   2.832   4.280  16.751 -0.5433 -0.3183  0.9568
 8655TIP3    H247457   2.848   4.393  16.653  0.9681 -1.7150 -0.4710
 8656TIP3   OH247458   3.705   3.002  14.681  0.3763  0.0144  0.3402
 8656TIP3    H147459   3.661   3.082  14.712  1.0082  1.2626 -1.7701
 8656TIP3    H247460   3.640   2.959  14.626  0.5285 -0.1484  0.2874
 8657TIP3   OH247461   2.968   0.812  11.111 -0.4009  0.0784  0.0704
 8657TIP3    H147462   3.006   0.813  11.023 -1.3215  1.3828 -0.3480
 8657TIP3    H247463   2.915   0.731  11.113  0.0305 -0.2223 -0.3872
 8658TIP3   OH247464   4.701   4.035  16.615  0.6188  0.6665 -0.1934
 8658TIP3    H147465   4.648   4.112  16.596 -0.5194  0.0921  0.5649
 8658TIP3    H247466   4.791   4.063  16.596  0.0737  1.6435 -1.5384
 8659TIP3   OH247467   1.028   1.399  12.445 -0.0360 -0.0030  0.3061
 8659TIP3    H147468   1.078   1.414  12.525 -2.0214 -0.3098  1.6916
 8659TIP3    H247469   1.028   1.484  12.400 -0.5754  0.7480  1.6776
 8660TIP3   OH247470   4.649   3.725   1.594  0.2527  0.9553  0.1462
 8660TIP3    H147471   4.662   3.819   1.609 -0.7159  1.1388 -0.0399
 8660TIP3    H247472   4.732   3.695   1.558  0.5832  1.7453  0.2196
 8661TIP3   OH247473   0.735   5.851  13.568 -0.0376 -0.0154  0.2641
 8661TIP3    H147474   0.661   5.876  13.624 -1.3621 -2.3323 -0.2687
 8661TIP3    H247475   0.714   5.888  13.482 -0.4391 -0.3572  0.2063
 8662TIP3   OH247476   4.820   2.932  12.798  0.3380  0.0264  0.3858
 8662TIP3    H147477   4.854   3.005  12.850  0.1035  0.3231  0.1233
 8662TIP3    H247478   4.733   2.915  12.834  0.0313  0.4674 -0.1439
 8663TIP3   OH247479   0.961   1.100  14.341 -0.3915  0.0880 -0.0732
 8663TIP3    H147480   0.895   1.032  14.341  0.7607 -1.0677  0.2235
 8663TIP3    H247481   0.971   1.124  14.433 -1.2836  1.1743 -0.2425
 8664TIP3   OH247482   5.642   2.813   1.993 -0.4890  0.1285 -1.0755
 8664TIP3    H147483   5.631   2.823   2.087  0.8449 -0.2132 -0.8649
 8664TIP3    H247484   5.632   2.719   1.977  0.2183  0.0545 -1.1254
 8665TIP3   OH247485   2.142   2.410   4.066  0.4029 -0.3958 -0.3384
 8665TIP3    H147486   2.199   2.451   4.131 -1.0917  1.1068  0.0648
 8665TIP3    H247487   2.135   2.319   4.094  1.9499 -0.4270  0.0396
 8666TIP3   OH247488   2.878   4.610  15.655 -0.4448  0.2126 -0.4400
 8666TIP3    H147489   2.835   4.695  15.646 -0.9140 -0.0276 -0.4942
 8666TIP3    H247490   2.913   4.610  15.744 -1.0727  0.1760 -0.1913
 8667TIP3   OH247491   3.738   3.756   1.796  0.6157 -0.3208  0.0957
 8667TIP3    H147492   3.645   3.751   1.818  0.7710 -1.0037  0.6169
 8667TIP3    H247493   3.743   3.824   1.729 -0.3755 -0.8583 -0.5439
 8668TIP3   OH247494   4.346   4.485  14.710 -0.4625  0.0091  0.1969
 8668TIP3    H147495   4.254   4.497  14.732 -0.8277 -0.7830 -0.8234
 8668TIP3    H247496   4.375   4.416  14.768 -1.0303 -1.0462 -0.7350
 8669TIP3   OH247497   0.500   3.879  17.167  0.0273 -0.2314 -0.3321
 8669TIP3    H147498   0.493   3.847  17.257 -1.1180 -0.3448 -0.4498
 8669TIP3    H247499   0.459   3.965  17.169 -1.8425 -1.0542 -1.1426
 8670TIP3   OH247500   3.360   1.243   0.840 -0.0016  0.5729 -0.1996
 8670TIP3    H147501   3.329   1.331   0.864 -1.8806  0.0120 -0.4141
 8670TIP3    H247502   3.328   1.187   0.911  0.7829 -0.0179 -0.3030
 8671TIP3   OH247503   6.672   0.042  13.179 -0.7897 -0.3112  0.4220
 8671TIP3    H147504   6.700   0.102  13.248 -1.2817 -1.2386  1.4469
 8671TIP3    H247505   6.601  -0.009  13.218 -0.8447 -1.0976 -0.6553
 8672TIP3   OH247506   3.548   2.277   4.198  0.3461 -0.5440  0.4840
 8672TIP3    H147507   3.580   2.235   4.278  3.0412  1.7307  0.7298
 8672TIP3    H247508   3.589   2.227   4.127  3.0064  1.0443  0.7623
 8673TIP3   OH247509   6.254   1.220  13.182 -0.6163 -0.2232  0.0631
 8673TIP3    H147510   6.170   1.177  13.201 -0.6248 -0.4117 -0.3878
 8673TIP3    H247511   6.278   1.262  13.264 -0.0883 -1.9594  0.8478
 8674TIP3   OH247512   3.418   3.064  13.372 -0.2951 -0.4901 -0.1879
 8674TIP3    H147513   3.367   3.030  13.299  0.6215 -0.9473 -0.6250
 8674TIP3    H247514   3.353   3.107  13.428 -0.7275  2.5172 -2.7123
 8675TIP3   OH247515   3.899   3.689   0.322 -0.5650  0.0240 -0.1325
 8675TIP3    H147516   3.853   3.605   0.325 -2.2593  0.8655 -0.9815
 8675TIP3    H247517   3.922   3.702   0.230 -0.2395  0.4415  0.0016
 8676TIP3   OH247518   1.003   4.956  14.330 -0.2497  0.1616 -0.0874
 8676TIP3    H147519   0.949   4.956  14.251  0.0193 -0.1391 -0.2731
 8676TIP3    H247520   1.093   4.945  14.298 -0.2263 -1.0121  0.3099
 8677TIP3   OH247521   3.052   3.265  12.862  0.1612 -0.0741 -0.7482
 8677TIP3    H147522   3.075   3.328  12.794  0.6224  0.7294  0.1316
 8677TIP3    H247523   3.019   3.318  12.934 -0.3410 -0.9114 -0.3408
 8678TIP3   OH247524   5.261   2.302   6.001 -0.1344  0.1893  0.3109
 8678TIP3    H147525   5.300   2.385   6.028 -1.7769  1.2058 -0.2874
 8678TIP3    H247526   5.232   2.318   5.911 -0.7740 -0.9183  0.3087
 8679TIP3   OH247527   3.126   3.217   5.288 -0.5706  0.2786  0.1038
 8679TIP3    H147528   3.164   3.253   5.367 -1.3012  2.3940 -0.4424
 8679TIP3    H247529   3.032   3.217   5.304 -0.6699 -0.1518 -0.4230
 8680TIP3   OH247530   5.774   4.748   1.153 -0.2174 -0.1012  0.5001
 8680TIP3    H147531   5.850   4.766   1.098 -0.5385 -0.3465 -0.0358
 8680TIP3    H247532   5.810   4.705   1.230  0.1727 -0.3130  0.2032
 8681TIP3   OH247533   5.582   0.705  12.604 -0.0819 -1.0273 -0.0281
 8681TIP3    H147534   5.573   0.699  12.509 -0.7029 -1.1967  0.0356
 8681TIP3    H247535   5.516   0.770  12.630  2.6310  2.0228 -0.0903
 8682TIP3   OH247536   4.987   0.919  15.945  0.2768 -0.4324  0.1951
 8682TIP3    H147537   5.048   0.980  15.903 -2.0650  1.4577 -0.6958
 8682TIP3    H247538   4.965   0.961  16.028 -0.9248 -0.2822 -0.1705
 8683TIP3   OH247539   1.718   3.679   5.782 -0.4550  0.2994  1.0428
 8683TIP3    H147540   1.770   3.713   5.855  3.0574  0.6287 -1.3370
 8683TIP3    H247541   1.683   3.758   5.740  2.6348  0.7872 -0.9597
 8684TIP3   OH247542   5.898   4.546   4.987  0.6987 -0.1136 -0.3124
 8684TIP3    H147543   5.942   4.480   5.040  0.1869  0.6053  1.0843
 8684TIP3    H247544   5.845   4.595   5.050  2.3012  2.6797 -0.9526
 8685TIP3   OH247545   1.617   5.846  11.609  0.2585  0.3621 -0.4562
 8685TIP3    H147546   1.541   5.789  11.600  0.5014 -0.2385  0.9651
 8685TIP3    H247547   1.681   5.793  11.657  0.6566  1.6653  0.5237
 8686TIP3   OH247548   3.910   1.623  11.575  0.2534 -0.6052  0.0287
 8686TIP3    H147549   3.913   1.528  11.583 -0.5198 -0.5430  1.1830
 8686TIP3    H247550   3.818   1.646  11.585  0.1428  0.1437 -2.0933
 8687TIP3   OH247551   6.406   6.754   4.836 -0.5277 -0.0451  0.3011
 8687TIP3    H147552   6.344   6.723   4.902  0.0896  0.0347  0.9293
 8687TIP3    H247553   6.422   6.846   4.859  0.8344 -0.4204  0.9633
 8688TIP3   OH247554   3.488   4.600  11.689  0.0785  0.2838  0.8254
 8688TIP3    H147555   3.555   4.534  11.709  0.0701 -0.0408 -0.1590
 8688TIP3    H247556   3.407   4.549  11.681  0.1137  0.3734 -0.1710
 8689TIP3   OH247557   3.720   0.935   0.406  0.1880 -0.2589 -0.6289
 8689TIP3    H147558   3.643   0.991   0.412  1.0744  0.9287  0.1963
 8689TIP3    H247559   3.759   0.958   0.321 -1.1204 -1.9498 -1.7599
 8690TIP3   OH247560   5.289   1.397   2.430  0.0383  0.1353  0.1143
 8690TIP3    H147561   5.342   1.340   2.374 -0.1516 -0.6477  0.7268
 8690TIP3    H247562   5.284   1.479   2.381 -0.0896 -0.5220 -1.0092
 8691TIP3   OH247563   5.231   3.486   4.807  0.2478  0.0088  0.1608
 8691TIP3    H147564   5.240   3.393   4.785  0.3774 -0.3360  1.5861
 8691TIP3    H247565   5.173   3.521   4.740  0.1680 -1.1085 -0.3726
 8692TIP3   OH247566   0.721   0.529   1.588  0.0132 -0.5115 -0.5411
 8692TIP3    H147567   0.700   0.571   1.505  0.5747  0.1715 -0.3473
 8692TIP3    H247568   0.639   0.533   1.638  0.0232  0.2905 -0.5631
 8693TIP3   OH247569   2.582   5.658   5.884 -0.0638 -0.4797 -0.2926
 8693TIP3    H147570   2.579   5.611   5.968 -0.9110  0.0296 -0.0248
 8693TIP3    H247571   2.603   5.748   5.908  1.0711 -0.6072 -0.7646
 8694TIP3   OH247572   0.239   3.583  16.264  0.2871  0.3110 -0.1151
 8694TIP3    H147573   0.292   3.552  16.337 -0.0734 -0.4202 -0.1519
 8694TIP3    H247574   0.224   3.676  16.283  1.9151  0.6415 -0.3251
 8695TIP3   OH247575   1.638   3.005   5.518  0.2135  0.3268 -0.1629
 8695TIP3    H147576   1.719   3.021   5.567  1.2931 -0.7922 -1.4984
 8695TIP3    H247577   1.568   3.037   5.576  1.6003  1.3938  0.9898
 8696TIP3   OH247578   6.668   2.942  11.749  0.1218  0.3778 -0.3090
 8696TIP3    H147579   6.642   2.943  11.841  0.6934 -2.7584 -0.0047
 8696TIP3    H247580   6.763   2.953  11.750  0.0259  1.3311 -0.6289
 8697TIP3   OH247581   0.124   5.298   2.989 -0.4682  0.0113  0.4487
 8697TIP3    H147582   0.120   5.203   2.995 -0.3633 -0.0319 -0.0993
 8697TIP3    H247583   0.047   5.329   3.037  0.4258 -0.2753  2.1804
 8698TIP3   OH247584   4.584   1.477   5.674 -0.1671  0.1076  0.0883
 8698TIP3    H147585   4.488   1.476   5.676 -0.1976  1.0569  2.4087
 8698TIP3    H247586   4.606   1.548   5.614 -0.8312 -1.3838 -2.0296
 8699TIP3   OH247587   3.784   0.406   2.993 -0.2282  0.1118 -0.3108
 8699TIP3    H147588   3.784   0.313   2.967  0.2852 -0.0406  0.2424
 8699TIP3    H247589   3.735   0.408   3.075 -0.0061  0.2998 -0.1843
 8700TIP3   OH247590   5.279   5.403   4.060 -0.4123 -0.4714 -0.1423
 8700TIP3    H147591   5.302   5.434   4.148  0.5408 -0.7300 -0.2909
 8700TIP3    H247592   5.187   5.425   4.051 -0.9922 -1.8982  1.5626
 8701TIP3   OH247593   1.612   0.905   0.639  0.4165 -0.3546  0.3341
 8701TIP3    H147594   1.667   0.934   0.712  2.3034  1.7186 -1.7333
 8701TIP3    H247595   1.558   0.981   0.619  0.8420 -0.4235 -1.1815
 8702TIP3   OH247596   5.863   5.292  14.952  0.4281  0.1460  0.0829
 8702TIP3    H147597   5.772   5.269  14.971  0.3088 -1.2099 -1.8696
 8702TIP3    H247598   5.898   5.322  15.036 -1.5035 -0.3164  1.1163
 8703TIP3   OH247599   5.046   5.798  16.835 -1.0689 -0.1459  0.1472
 8703TIP3    H147600   5.094   5.732  16.786  3.5250  0.3481  3.3034
 8703TIP3    H247601   5.057   5.879  16.785  0.3805 -0.3162  0.1521
 8704TIP3   OH247602   6.136   1.922   4.003 -0.1280 -0.5284  0.5186
 8704TIP3    H147603   6.050   1.890   3.976  0.1866 -1.2312  0.3375
 8704TIP3    H247604   6.164   1.978   3.931 -0.9062  0.5983  1.0655
 8705TIP3   OH247605   1.016   0.168  13.432  0.0529  0.1224  0.3783
 8705TIP3    H147606   1.080   0.238  13.422 -0.5006  0.5646 -0.1477
 8705TIP3    H247607   1.031   0.134  13.521  0.1581  1.0782  0.7338
 8706TIP3   OH247608   2.518   1.456  13.790 -0.2775  0.4991 -0.5152
 8706TIP3    H147609   2.503   1.468  13.883  2.0952 -1.6848  0.2719
 8706TIP3    H247610   2.539   1.543  13.757  0.3604  1.0956  1.3432
 8707TIP3   OH247611   3.165   4.690  15.505  0.2810  0.1765 -0.0113
 8707TIP3    H147612   3.146   4.651  15.590 -0.4944 -1.1218 -0.7462
 8707TIP3    H247613   3.082   4.724  15.474 -0.3363 -2.5271 -1.7502
 8708TIP3   OH247614   0.975   3.152  14.833 -0.2637 -0.2988 -0.1462
 8708TIP3    H147615   1.057   3.175  14.876 -0.5741  0.2693  0.1565
 8708TIP3    H247616   0.976   3.203  14.751 -0.7240  0.4383  0.2906
 8709TIP3   OH247617   5.117   4.525  16.387  0.1478 -0.0109  0.1452
 8709TIP3    H147618   5.160   4.480  16.314  2.3841 -0.2617  1.5225
 8709TIP3    H247619   5.166   4.497  16.464 -0.2199  2.5495  1.3930
 8710TIP3   OH247620   1.522   1.042  13.568  0.0727  0.5358 -0.1770
 8710TIP3    H147621   1.574   0.998  13.635 -0.3010 -0.8307 -0.7571
 8710TIP3    H247622   1.585   1.096  13.520  0.5119  0.7681  0.6520
 8711TIP3   OH247623   1.368   5.434   5.091 -0.4087  0.5816  0.5504
 8711TIP3    H147624   1.341   5.351   5.130  0.6684  1.0357  2.3927
 8711TIP3    H247625   1.300   5.496   5.116 -0.4685  0.5561  0.4487
 8712TIP3   OH247626   5.643   6.825  14.960 -0.3213 -0.2868 -0.0561
 8712TIP3    H147627   5.659   6.918  14.947 -0.9936 -0.2610 -0.7120
 8712TIP3    H247628   5.675   6.783  14.880 -3.3789 -0.2383 -1.4550
 8713TIP3   OH247629   1.356   4.013  14.209  0.1114 -0.3114 -0.3400
 8713TIP3    H147630   1.410   4.092  14.203  0.0192  0.0157  2.0216
 8713TIP3    H247631   1.381   3.973  14.293 -3.9965  0.4367  1.4956
 8714TIP3   OH247632   2.133   0.813  14.110 -0.0983 -0.2462  0.0634
 8714TIP3    H147633   2.207   0.874  14.119  0.6651 -0.9639 -1.0322
 8714TIP3    H247634   2.076   0.853  14.046 -0.3671  0.0250  0.4674
 8715TIP3   OH247635   6.765   1.574   0.564 -0.2758  0.7103 -0.1816
 8715TIP3    H147636   6.829   1.537   0.503 -0.1743 -0.6827  0.7367
 8715TIP3    H247637   6.770   1.669   0.548  3.0570  0.8450  0.8300
 8716TIP3   OH247638   5.245   4.867  13.522  0.0373 -0.0975 -0.0808
 8716TIP3    H147639   5.295   4.924  13.580  0.8334  0.6896 -1.4887
 8716TIP3    H247640   5.187   4.819  13.580  0.5491  0.9159  1.3224
 8717TIP3   OH247641   0.872   5.466  13.088 -0.8387  0.3590 -0.0374
 8717TIP3    H147642   0.815   5.421  13.151 -0.5867 -0.0077 -0.0637
 8717TIP3    H247643   0.899   5.397  13.028  0.3146  0.3479  0.4765
 8718TIP3   OH247644   2.364   6.299  12.806 -0.0646 -0.0208 -0.4900
 8718TIP3    H147645   2.419   6.283  12.730  2.8628 -2.6975  1.8923
 8718TIP3    H247646   2.313   6.218  12.817 -0.6599  0.4307  0.2260
 8719TIP3   OH247647   5.548   1.104  14.929  0.0591  0.2412  0.3115
 8719TIP3    H147648   5.523   1.022  14.972  2.4187 -0.9581 -0.4427
 8719TIP3    H247649   5.567   1.164  15.001  0.4982 -0.6125  0.9261
 8720TIP3   OH247650   2.455   3.885   6.278 -0.0109 -0.4642 -0.5446
 8720TIP3    H147651   2.399   3.838   6.341  0.7596  0.0710  0.5855
 8720TIP3    H247652   2.530   3.913   6.331  0.0934  1.0405 -1.4543
 8721TIP3   OH247653   4.078   0.063   5.328  0.0040  0.3461 -0.6962
 8721TIP3    H147654   4.148   0.107   5.376 -2.9265  2.6675  1.9320
 8721TIP3    H247655   4.042   0.000   5.390 -0.7710 -0.2152 -1.6776
 8722TIP3   OH247656   6.489   6.062   3.167  0.4489  0.0370 -0.0114
 8722TIP3    H147657   6.524   6.144   3.131  0.7007 -0.3946 -0.7673
 8722TIP3    H247658   6.406   6.088   3.209  1.3938  0.9918  1.3821
 8723TIP3   OH247659   2.157   3.627  16.337 -0.0045 -0.4159 -0.3728
 8723TIP3    H147660   2.155   3.702  16.277  1.0237 -0.0334  0.0555
 8723TIP3    H247661   2.127   3.554  16.283  1.0616 -0.1141 -1.4366
 8724TIP3   OH247662   4.420   5.332   3.894  0.6833 -0.1269 -0.4992
 8724TIP3    H147663   4.461   5.395   3.952  1.0418  1.3632 -2.2584
 8724TIP3    H247664   4.349   5.381   3.851 -0.4130 -1.5362 -0.3872
 8725TIP3   OH247665   1.957   0.855   2.132 -0.2651  0.1935 -0.0439
 8725TIP3    H147666   1.903   0.894   2.064  0.2776  0.3438 -0.3956
 8725TIP3    H247667   2.031   0.817   2.085 -0.2739 -0.3809  0.3916
 8726TIP3   OH247668   1.242   5.768   2.941 -0.1603 -0.2166  0.0089
 8726TIP3    H147669   1.248   5.777   2.846 -1.3389  0.4400 -0.0207
 8726TIP3    H247670   1.150   5.785   2.961  0.4051  1.5262  1.4448
 8727TIP3   OH247671   0.265   5.958  11.050  0.2371 -0.0784 -0.0488
 8727TIP3    H147672   0.279   5.901  11.125  1.3056  1.3449  0.8731
 8727TIP3    H247673   0.278   6.046  11.083 -4.1079  1.0284 -0.7722
 8728TIP3   OH247674   0.477   5.288  13.948 -0.3934  0.3164 -0.0656
 8728TIP3    H147675   0.544   5.357  13.947  1.3411 -1.3004 -0.4185
 8728TIP3    H247676   0.397   5.334  13.972  0.4198  2.6987 -1.5442
 8729TIP3   OH247677   0.543   5.654  16.338 -0.1367  0.0724  0.2062
 8729TIP3    H147678   0.484   5.669  16.411 -1.6133 -1.9586 -0.4969
 8729TIP3    H247679   0.498   5.691  16.262 -0.7137 -1.6888 -0.3729
 8730TIP3   OH247680   3.512   3.527   5.595  0.4262  0.2241 -0.1314
 8730TIP3    H147681   3.484   3.467   5.526 -1.4866  0.4970  0.3529
 8730TIP3    H247682   3.496   3.614   5.558  1.2373  0.4031 -0.0626
 8731TIP3   OH247683   0.205   5.531  13.470 -0.1511 -0.6330 -0.4974
 8731TIP3    H147684   0.252   5.577  13.401  1.0890 -1.0487  0.0581
 8731TIP3    H247685   0.273   5.497  13.528 -1.1516 -0.4876  0.8163
 8732TIP3   OH247686   1.200   2.033   0.514 -0.2501  0.6613 -0.6952
 8732TIP3    H147687   1.108   2.038   0.489 -0.4391 -0.3239 -0.2474
 8732TIP3    H247688   1.248   2.052   0.433 -0.8470  0.2599 -1.1527
 8733TIP3   OH247689   3.458   6.527  13.092  0.6222  0.5276  0.2636
 8733TIP3    H147690   3.398   6.541  13.018 -0.5640  0.6153  1.1937
 8733TIP3    H247691   3.527   6.472  13.057  0.1921  0.7229 -0.9631
 8734TIP3   OH247692   1.959   2.405   0.330 -0.1022 -0.6975 -0.2111
 8734TIP3    H147693   1.877   2.423   0.376  0.3831  1.2820 -0.0224
 8734TIP3    H247694   1.946   2.319   0.290 -2.2012 -0.5036 -0.0428
 8735TIP3   OH247695   0.978   3.348  14.645 -0.5596  0.4223 -0.1029
 8735TIP3    H147696   1.022   3.334  14.561  2.7577 -1.1536  1.6873
 8735TIP3    H247697   0.937   3.435  14.636 -0.1580  0.4090 -3.2045
 8736TIP3   OH247698   0.231   4.675   0.664  0.2844  0.0178 -0.8119
 8736TIP3    H147699   0.228   4.584   0.693  3.6865  0.5161  1.6648
 8736TIP3    H247700   0.151   4.714   0.698 -0.5861 -1.6998 -0.7853
 8737TIP3   OH247701   2.404   5.533   4.087  0.2983  0.9489 -0.1484
 8737TIP3    H147702   2.326   5.578   4.119 -0.8930 -0.3587 -1.1219
 8737TIP3    H247703   2.453   5.511   4.166 -1.9597 -1.1153  0.7921
 8738TIP3   OH247704   2.012   6.766   5.412 -0.4665  0.4870  0.0769
 8738TIP3    H147705   1.936   6.709   5.424  1.2575 -1.6768  1.5285
 8738TIP3    H247706   2.071   6.716   5.356  0.9805  0.9426  1.1309
 8739TIP3   OH247707   4.477   0.542  12.780  0.0031 -0.0209 -0.4781
 8739TIP3    H147708   4.394   0.495  12.778 -0.8376  1.2795  1.3926
 8739TIP3    H247709   4.501   0.551  12.688 -1.8850 -0.4836 -1.0614
 8740TIP3   OH247710   1.198   4.518  14.294 -0.7604 -0.3543  0.1364
 8740TIP3    H147711   1.111   4.549  14.269 -0.3109  0.7578 -0.0686
 8740TIP3    H247712   1.201   4.532  14.389 -0.2938  0.9344 -0.0556
 8741TIP3   OH247713   0.042   5.559   6.315 -0.1576  0.3619 -0.5453
 8741TIP3    H147714   0.068   5.487   6.258 -0.0361  0.1533 -0.2314
 8741TIP3    H247715   0.125   5.592   6.350 -0.3223 -1.7491  2.2419
 8742TIP3   OH247716   6.760   1.991  13.882  0.2564  0.4854  0.4439
 8742TIP3    H147717   6.777   1.928  13.811  0.9287 -0.3502  1.3340
 8742TIP3    H247718   6.712   2.062  13.839  2.0889  0.8069 -1.2111
 8743TIP3   OH247719   4.094   1.694   3.277  0.3905 -0.5236 -0.1575
 8743TIP3    H147720   4.027   1.700   3.345 -0.9405  1.4435 -1.5259
 8743TIP3    H247721   4.058   1.631   3.214 -0.1008  0.3307 -0.7580
 8744TIP3   OH247722   5.146   0.743  13.885  0.4509 -0.4743 -0.9357
 8744TIP3    H147723   5.201   0.775  13.814 -0.6315  0.2323 -1.4790
 8744TIP3    H247724   5.063   0.720  13.844  0.1785 -1.1188 -0.0677
 8745TIP3   OH247725   2.463   2.854   1.864  0.1465  0.0872  0.2106
 8745TIP3    H147726   2.545   2.809   1.845  0.3337  0.5934 -0.2001
 8745TIP3    H247727   2.481   2.905   1.944 -0.1444 -0.7582  0.8251
 8746TIP3   OH247728   5.572   6.796   1.691 -0.6645 -0.1068 -0.0911
 8746TIP3    H147729   5.566   6.819   1.784 -1.6260  1.3155 -0.4789
 8746TIP3    H247730   5.481   6.783   1.664 -0.3270 -1.5459 -0.6038
 8747TIP3   OH247731   5.714   2.716  15.893 -0.2525  0.5127 -0.3252
 8747TIP3    H147732   5.683   2.625  15.892 -1.2638  0.8468 -0.8038
 8747TIP3    H247733   5.713   2.741  15.985 -0.5615  0.2391 -0.2545
 8748TIP3   OH247734   0.263   5.793  12.984 -0.1825 -0.7747  0.5980
 8748TIP3    H147735   0.217   5.712  13.007  0.8186 -1.2132  1.1171
 8748TIP3    H247736   0.209   5.862  13.022 -0.2972 -1.2889  1.4078
 8749TIP3   OH247737   5.295   6.441  11.412  0.0718 -0.2187 -0.5126
 8749TIP3    H147738   5.233   6.393  11.359  0.6859 -0.1668 -1.2955
 8749TIP3    H247739   5.245   6.515  11.447 -0.6346 -0.9051 -0.0509
 8750TIP3   OH247740   6.159   6.654   4.982  0.3216 -0.2153  0.5840
 8750TIP3    H147741   6.088   6.621   5.037 -0.0838  1.7970  1.3216
 8750TIP3    H247742   6.161   6.594   4.907 -2.4252 -0.0676  0.3196
 8751TIP3   OH247743   1.775   6.405  16.670 -0.0040 -0.3138  0.0303
 8751TIP3    H147744   1.681   6.403  16.658  0.1561 -0.8738 -1.2485
 8751TIP3    H247745   1.808   6.461  16.600  0.6084 -0.0276  0.5319
 8752TIP3   OH247746   5.474   1.642   0.156  0.0516  0.0628 -0.0206
 8752TIP3    H147747   5.395   1.588   0.145 -0.7975  1.1969  0.2787
 8752TIP3    H247748   5.446   1.714   0.212  0.8211  1.4294 -1.2998
 8753TIP3   OH247749   3.884   3.516  14.599  0.5326  0.1705 -0.0521
 8753TIP3    H147750   3.795   3.548  14.611  0.0337 -1.7941  2.0675
 8753TIP3    H247751   3.934   3.557  14.669  0.8746 -0.1779 -0.0878
 8754TIP3   OH247752   5.189   0.196   4.690  0.0725  0.1666  0.7539
 8754TIP3    H147753   5.149   0.238   4.767 -1.0464 -0.7563  0.6998
 8754TIP3    H247754   5.211   0.108   4.720 -1.3570 -0.5667 -0.2588
 8755TIP3   OH247755   2.947   5.128   2.598  0.1441 -0.8217 -0.2064
 8755TIP3    H147756   2.993   5.078   2.530 -0.5014 -0.2071 -1.1134
 8755TIP3    H247757   2.921   5.062   2.662  1.8456 -1.2546  0.1095
 8756TIP3   OH247758   3.970   4.016   5.428 -0.1581 -0.3783  0.1157
 8756TIP3    H147759   3.912   3.967   5.371  0.1738 -0.5642 -0.0654
 8756TIP3    H247760   4.011   4.081   5.371  0.1991 -0.5870  0.1309
 8757TIP3   OH247761   6.217   0.341   2.130  0.4755 -0.1416 -0.3990
 8757TIP3    H147762   6.281   0.411   2.142  1.5154 -0.6953 -2.2419
 8757TIP3    H247763   6.231   0.312   2.040 -2.2886 -0.3810 -0.8512
 8758TIP3   OH247764   4.601   5.677  11.334 -0.0734  0.2930  0.5779
 8758TIP3    H147765   4.618   5.633  11.417  0.2232  0.2772  0.5085
 8758TIP3    H247766   4.505   5.676  11.325 -0.1018  0.2530  0.8946
 8759TIP3   OH247767   6.796   2.706   2.795 -0.0238 -0.1980  0.1782
 8759TIP3    H147768   6.816   2.777   2.856  0.0582  0.1541 -0.2536
 8759TIP3    H247769   6.835   2.734   2.712 -1.8724  0.2855 -0.5729
 8760TIP3   OH247770   0.661   2.598   4.141 -0.5902  0.3382 -0.4526
 8760TIP3    H147771   0.607   2.676   4.129  0.4245  1.0532 -0.4224
 8760TIP3    H247772   0.720   2.597   4.066  0.4292  0.4559  0.3202
 8761TIP3   OH247773   5.378   6.367  14.998  0.2161 -0.1675  0.0008
 8761TIP3    H147774   5.395   6.304  14.928 -1.3490 -0.3057 -0.2844
 8761TIP3    H247775   5.344   6.444  14.952 -1.3675 -0.4570  0.6101
 8762TIP3   OH247776   0.275   1.157   1.590  0.1018  0.3315 -0.4008
 8762TIP3    H147777   0.323   1.179   1.670 -0.6740  0.7085 -0.0285
 8762TIP3    H247778   0.264   1.062   1.593  0.2411  0.3249 -0.1499
 8763TIP3   OH247779   1.065   1.492  11.993 -0.2283 -0.4316 -0.2797
 8763TIP3    H147780   1.053   1.398  12.002  1.5961 -0.5809  1.1513
 8763TIP3    H247781   1.160   1.505  11.995 -0.4501  1.5132  0.4367
 8764TIP3   OH247782   1.777   4.119  12.637  0.3001 -0.0072 -0.2824
 8764TIP3    H147783   1.743   4.208  12.645 -0.4981 -0.2574 -0.8104
 8764TIP3    H247784   1.705   4.063  12.665  1.0737 -0.4750  0.8411
 8765TIP3   OH247785   6.654   1.210   6.146  0.2850 -0.5378 -0.0984
 8765TIP3    H147786   6.738   1.190   6.107  1.0920 -0.1302  1.3389
 8765TIP3    H247787   6.649   1.306   6.144 -1.0318 -0.5990 -1.8958
 8766TIP3   OH247788   1.382   1.949  15.637  0.0773  0.2883  0.5160
 8766TIP3    H147789   1.463   1.926  15.682 -0.7970 -0.9804  1.5372
 8766TIP3    H247790   1.345   2.021  15.688  0.7171  1.1273 -0.1720
 8767TIP3   OH247791   5.259   3.063   1.471 -0.5823 -0.3277  0.1172
 8767TIP3    H147792   5.288   3.124   1.403 -0.3363 -1.2554 -0.6352
 8767TIP3    H247793   5.186   3.016   1.431 -2.5863  1.3107  1.6473
 8768TIP3   OH247794   2.839   2.466  12.703  0.0693 -0.4942  0.4797
 8768TIP3    H147795   2.817   2.435  12.615  2.5559 -0.1497 -0.3560
 8768TIP3    H247796   2.800   2.553  12.708  2.2417  0.7036 -1.4743
 8769TIP3   OH247797   2.608   1.055   4.297 -0.1939 -0.6116  0.5290
 8769TIP3    H147798   2.690   1.104   4.305  0.2229 -0.8906 -1.3987
 8769TIP3    H247799   2.601   1.006   4.379  0.2240  1.3433  1.8007
 8770TIP3   OH247800   3.998   4.418   4.350 -0.1350 -0.0368  0.5994
 8770TIP3    H147801   3.998   4.367   4.431  0.0593 -0.3856  0.3812
 8770TIP3    H247802   3.915   4.465   4.352  0.9167  1.8854  2.1961
 8771TIP3   OH247803   2.268   3.828  15.715 -0.4072  0.5918  0.1219
 8771TIP3    H147804   2.203   3.881  15.763 -0.0238  1.0682  0.1249
 8771TIP3    H247805   2.292   3.883  15.640  0.0176  0.4298  0.1393
 8772TIP3   OH247806   0.204   0.604  12.152  0.0277  0.1250 -0.0669
 8772TIP3    H147807   0.138   0.545  12.187 -0.4149  1.2202  1.0001
 8772TIP3    H247808   0.187   0.607  12.058 -1.3322  0.2453  0.1695
 8773TIP3   OH247809   4.100   2.635  14.451  0.1732 -0.2199  0.6332
 8773TIP3    H147810   4.180   2.686  14.457  0.1209 -0.1104  0.3902
 8773TIP3    H247811   4.127   2.550  14.415  0.5012 -0.9041  2.3850
 8774TIP3   OH247812   1.673   5.744  10.881 -0.0006 -0.4063  0.7805
 8774TIP3    H147813   1.625   5.695  10.814 -0.2534 -3.2650  2.8991
 8774TIP3    H247814   1.618   5.821  10.898 -0.9413 -0.6777 -0.7883
 8775TIP3   OH247815   1.773   0.829   5.372  0.8953 -0.2257 -0.2552
 8775TIP3    H147816   1.692   0.783   5.353  1.2758 -1.1019  0.1921
 8775TIP3    H247817   1.822   0.826   5.289 -0.1014  1.5968 -0.9803
 8776TIP3   OH247818   3.254   2.964   1.982 -0.1335  0.1519  0.1639
 8776TIP3    H147819   3.245   3.059   1.972 -0.7793  0.0461 -0.2481
 8776TIP3    H247820   3.216   2.946   2.068 -0.9139  0.1336 -0.1855
 8777TIP3   OH247821   5.521   1.108   1.284 -0.0976 -0.1172  0.2832
 8777TIP3    H147822   5.426   1.098   1.287 -0.1184  0.1593  2.1487
 8777TIP3    H247823   5.553   1.050   1.354  0.9850  0.8070  0.5856
 8778TIP3   OH247824   2.100   1.845  13.140 -0.2934  0.1251  0.5337
 8778TIP3    H147825   2.163   1.773  13.142 -2.4289 -1.8703  0.9291
 8778TIP3    H247826   2.108   1.882  13.052  0.3772 -1.0951  0.0567
 8779TIP3   OH247827   6.067   3.866  12.023  0.5420  0.3745 -0.2916
 8779TIP3    H147828   6.110   3.842  12.105  2.7187  0.0825 -1.4413
 8779TIP3    H247829   5.976   3.841  12.036  1.0104 -0.5446  1.6899
 8780TIP3   OH247830   0.254   1.034  11.304  0.0066  0.2205 -0.3584
 8780TIP3    H147831   0.205   1.091  11.245 -1.6550 -1.0228 -0.2357
 8780TIP3    H247832   0.196   0.959  11.319  2.0786 -1.4639 -0.4220
 8781TIP3   OH247833   1.627   1.763   1.562  0.1867  0.6482 -0.4596
 8781TIP3    H147834   1.645   1.688   1.506  1.1316  0.6853 -0.2260
 8781TIP3    H247835   1.542   1.744   1.601 -1.3088  1.3991 -3.1363
 8782TIP3   OH247836   3.882   1.566   1.139 -0.2328 -0.5503  0.3382
 8782TIP3    H147837   3.895   1.489   1.193 -0.7752 -0.6620  0.3141
 8782TIP3    H247838   3.929   1.547   1.058  2.4111  0.4847  1.5135
 8783TIP3   OH247839   4.090   1.473   0.087 -0.0916  0.1142  0.7595
 8783TIP3    H147840   4.178   1.447   0.115  0.9056  2.1947 -0.2010
 8783TIP3    H247841   4.082   1.564   0.116 -1.2933  0.4639 -0.5732
 8784TIP3   OH247842   1.162   2.756   1.451  0.2074 -0.2774 -0.5891
 8784TIP3    H147843   1.169   2.661   1.456  0.1732 -0.2054  2.0283
 8784TIP3    H247844   1.089   2.778   1.509  0.5983  1.3867 -0.6850
 8785TIP3   OH247845   5.220   0.961   1.740  0.0754 -0.5250 -0.3271
 8785TIP3    H147846   5.153   1.010   1.693 -0.5467 -0.2360  0.8160
 8785TIP3    H247847   5.195   0.968   1.832  2.2090  0.4238  0.2597
 8786TIP3   OH247848   3.781   2.251  12.824  0.0294 -0.2299  0.2061
 8786TIP3    H147849   3.734   2.311  12.881 -0.7789 -0.9142  0.2730
 8786TIP3    H247850   3.781   2.294  12.738 -1.4682 -0.6041  0.0035
 8787TIP3   OH247851   3.688   6.151  16.355 -0.3934  0.7583  0.2136
 8787TIP3    H147852   3.720   6.189  16.436  0.6522  0.8273 -0.2167
 8787TIP3    H247853   3.729   6.204  16.286 -0.6386  0.2037 -0.3660
 8788TIP3   OH247854   1.546   5.719  14.669 -0.3772 -0.3516 -0.0392
 8788TIP3    H147855   1.586   5.804  14.650 -0.0769  0.3194  3.0434
 8788TIP3    H247856   1.469   5.740  14.721 -0.2439 -1.9343  0.8743
 8789TIP3   OH247857   1.661   5.529  14.876  0.0795 -0.0328  0.0563
 8789TIP3    H147858   1.705   5.605  14.839  0.1193 -0.5592 -1.0160
 8789TIP3    H247859   1.703   5.454  14.834  0.6356 -0.6986  1.7361
 8790TIP3   OH247860   2.394   3.792   4.232  0.6958 -0.3618 -0.4417
 8790TIP3    H147861   2.481   3.786   4.270  0.4996  1.1402  0.3326
 8790TIP3    H247862   2.409   3.805   4.138  1.3902  1.5772 -0.1027
 8791TIP3   OH247863   0.856   3.413   0.624 -0.3538  0.1776  0.0082
 8791TIP3    H147864   0.884   3.385   0.536  1.6234  0.1028  0.6064
 8791TIP3    H247865   0.873   3.508   0.625  3.1724 -0.2961  1.3905
 8792TIP3   OH247866   5.174   1.742   1.683 -0.1357 -0.0060 -0.1326
 8792TIP3    H147867   5.222   1.676   1.733 -0.8295  0.4199  1.1252
 8792TIP3    H247868   5.143   1.805   1.748  2.0200  2.6225 -1.3970
 8793TIP3   OH247869   0.345   3.789   5.964  0.1494  0.2692  0.4223
 8793TIP3    H147870   0.438   3.771   5.977  0.1809  0.1754  0.0883
 8793TIP3    H247871   0.328   3.867   6.018  0.1741 -0.3202  1.2940
 8794TIP3   OH247872   3.285   2.970   1.488 -0.1283  0.2048  1.0733
 8794TIP3    H147873   3.342   2.943   1.559 -1.4806 -0.7864  1.8270
 8794TIP3    H247874   3.331   2.942   1.408  0.1491 -1.1684  1.6837
 8795TIP3   OH247875   1.228   1.674  11.217 -0.0933 -0.2443 -0.2663
 8795TIP3    H147876   1.233   1.580  11.200 -1.7270 -0.5691  0.8434
 8795TIP3    H247877   1.224   1.714  11.130 -3.2580 -1.5013 -0.8078
 8796TIP3   OH247878   4.063   6.728  15.808 -0.2784  0.0199 -0.4490
 8796TIP3    H147879   4.114   6.690  15.880 -1.2274  0.5948  0.5568
 8796TIP3    H247880   4.113   6.804  15.780  0.3107 -0.4518 -0.6924
 8797TIP3   OH247881   6.819   4.111  16.400  0.1516  0.2676  0.2032
 8797TIP3    H147882   6.759   4.161  16.455 -0.0157 -1.0802  1.3066
 8797TIP3    H247883   6.791   4.020  16.411 -0.4414 -0.0114 -2.8089
 8798TIP3   OH247884   5.062   5.024   4.855  0.7495 -0.0348 -0.1928
 8798TIP3    H147885   4.978   5.051   4.818  0.0794  0.6777  1.7193
 8798TIP3    H247886   5.111   5.106   4.863  1.3797 -0.3580 -0.6807
 8799TIP3   OH247887   6.425   0.409  15.774  0.1142 -0.4728  0.4686
 8799TIP3    H147888   6.512   0.430  15.806 -0.6210 -0.1866  2.4228
 8799TIP3    H247889   6.369   0.410  15.852 -1.5042 -1.4162 -0.6021
 8800TIP3   OH247890   0.013   2.485  15.774 -0.6803  0.6315  0.2206
 8800TIP3    H147891   0.018   2.457  15.865  1.4324  0.6171  0.1421
 8800TIP3    H247892   0.046   2.411  15.724 -1.7458  0.6679 -0.5831
 8801TIP3   OH247893   1.837   2.186   4.231 -0.1610  0.0471 -0.4369
 8801TIP3    H147894   1.778   2.155   4.162 -1.7187 -0.4706  1.0616
 8801TIP3    H247895   1.893   2.111   4.250 -0.4559 -0.1615 -0.3861
 8802TIP3   OH247896   0.282   5.805  12.007  0.2124 -0.1011 -0.2427
 8802TIP3    H147897   0.294   5.896  12.033 -0.0078 -0.2243  0.2864
 8802TIP3    H247898   0.188   5.795  11.997  0.2740 -0.1064 -0.9254
 8803TIP3   OH247899   2.748   2.350   3.639  0.6770  0.4507  0.5705
 8803TIP3    H147900   2.819   2.369   3.577 -0.1045  0.1102 -0.4726
 8803TIP3    H247901   2.695   2.430   3.640 -0.4096 -0.1886 -0.7770
 8804TIP3   OH247902   0.094   5.664   3.312 -0.1504  0.0405 -0.2449
 8804TIP3    H147903   0.069   5.690   3.224  0.5418  0.4417 -0.3301
 8804TIP3    H247904   0.016   5.679   3.365 -1.1005 -1.6644 -1.0518
 8805TIP3   OH247905   6.455   3.223   0.577  0.4088  0.5481 -0.0978
 8805TIP3    H147906   6.384   3.228   0.642  0.8284  2.2762  0.2893
 8805TIP3    H247907   6.497   3.139   0.595 -0.2292  0.4462  1.0731
 8806TIP3   OH247908   6.686   3.478  12.377  0.1174  0.4297  0.1429
 8806TIP3    H147909   6.626   3.427  12.432  0.8812  0.7223  1.2903
 8806TIP3    H247910   6.755   3.507  12.437  2.0632 -0.8788 -1.3112
 8807TIP3   OH247911   3.227   1.040  16.903  0.6997  0.5168 -0.2932
 8807TIP3    H147912   3.205   0.960  16.854  0.7096  1.3074 -1.6303
 8807TIP3    H247913   3.264   1.008  16.986 -1.8924 -0.8726  0.4438
 8808TIP3   OH247914   3.506   0.398   2.712  0.0720  0.1402  0.2720
 8808TIP3    H147915   3.554   0.420   2.632 -1.1132  2.0501  0.0331
 8808TIP3    H247916   3.470   0.312   2.696 -0.7354  0.7811 -1.5608
 8809TIP3   OH247917   6.375   4.749  14.169  0.4912 -0.2433  0.3632
 8809TIP3    H147918   6.460   4.732  14.210  0.7408  1.5709  0.6778
 8809TIP3    H247919   6.366   4.679  14.104  1.3727 -1.5340  1.5661
 8810TIP3   OH247920   0.424   0.717   4.849 -0.1529 -0.0993  0.2497
 8810TIP3    H147921   0.480   0.748   4.920 -0.7591  1.3092  0.1327
 8810TIP3    H247922   0.373   0.793   4.823 -0.7407 -0.8744 -0.9584
 8811TIP3   OH247923   6.107   6.391  16.284  0.3153 -0.0037 -0.1376
 8811TIP3    H147924   6.054   6.463  16.249  0.0764 -1.4887 -3.0628
 8811TIP3    H247925   6.061   6.312  16.256  0.9624 -1.3685  2.3814
 8812TIP3   OH247926   1.057   4.741  15.968 -0.2553  0.5741 -0.4541
 8812TIP3    H147927   0.973   4.700  15.945 -0.3729 -0.2111  1.1825
 8812TIP3    H247928   1.112   4.728  15.892 -1.2490  0.0122 -1.1004
 8813TIP3   OH247929   5.728   4.535   3.346  0.5861  0.8055 -0.1807
 8813TIP3    H147930   5.814   4.524   3.304 -0.0372  3.3409 -2.3971
 8813TIP3    H247931   5.684   4.451   3.333  2.5376 -0.4284  0.6880
 8814TIP3   OH247932   1.892   3.594  13.255  0.3943 -0.1895 -0.5029
 8814TIP3    H147933   1.870   3.676  13.298 -0.2687  0.4546 -2.0163
 8814TIP3    H247934   1.923   3.538  13.326 -1.9498  0.3443  1.0793
 8815TIP3   OH247935   3.278   1.339  10.817  0.0287  0.3336 -0.5088
 8815TIP3    H147936   3.311   1.275  10.754  0.7127  4.2199 -4.6232
 8815TIP3    H247937   3.349   1.348  10.881  1.7568 -0.0409 -2.2704
 8816TIP3   OH247938   5.814   1.390   3.280  0.7042 -0.2006  0.1251
 8816TIP3    H147939   5.856   1.304   3.281  2.2052  0.4484  2.9056
 8816TIP3    H247940   5.785   1.404   3.370 -0.4205  1.8137 -0.4742
 8817TIP3   OH247941   1.991   6.459  10.308 -0.1471 -0.5502  0.2902
 8817TIP3    H147942   1.964   6.367  10.301 -1.7777 -0.1789  1.0891
 8817TIP3    H247943   2.082   6.456  10.334 -0.6579 -1.9935  2.0769
 8818TIP3   OH247944   0.577   2.560   2.456 -0.3625  0.0804  0.4702
 8818TIP3    H147945   0.483   2.552   2.443 -0.2671 -0.4206  0.0529
 8818TIP3    H247946   0.607   2.614   2.383 -0.3320  0.2905  0.6357
 8819TIP3   OH247947   4.141   5.618   1.173  0.1198 -0.2396  0.3140
 8819TIP3    H147948   4.094   5.539   1.198  0.8368 -1.2476 -1.3583
 8819TIP3    H247949   4.184   5.648   1.253 -0.9303 -0.9958  1.1718
 8820TIP3   OH247950   1.203   0.369   4.071  0.7176  0.5389  0.5414
 8820TIP3    H147951   1.128   0.344   4.017  0.5674 -3.3523  2.2576
 8820TIP3    H247952   1.165   0.425   4.139 -0.5644 -0.8358  1.0088
 8821TIP3   OH247953   6.155   4.154  15.136  0.4088 -0.3260 -0.2602
 8821TIP3    H147954   6.066   4.132  15.164 -0.5159  0.3682 -2.3932
 8821TIP3    H247955   6.207   4.076  15.156 -1.0296 -1.3458 -0.3665
 8822TIP3   OH247956   5.592   5.360  13.970 -0.2698 -0.3136  0.0721
 8822TIP3    H147957   5.595   5.438  13.914  0.2012  0.3446  0.9707
 8822TIP3    H247958   5.506   5.363  14.011 -0.0389  0.0902  0.5548
 8823TIP3   OH247959   2.086   1.399   5.362  0.5196 -0.2582 -0.6643
 8823TIP3    H147960   2.118   1.370   5.447 -0.2359  1.4034  0.2404
 8823TIP3    H247961   2.103   1.493   5.361  0.5486 -0.2486 -2.3816
 8824TIP3   OH247962   4.002   4.648   1.444  0.0896  1.1592 -0.0727
 8824TIP3    H147963   3.974   4.619   1.357 -0.7385  0.6646  0.3421
 8824TIP3    H247964   3.959   4.733   1.457 -0.8915  0.6203  0.3701
 8825TIP3   OH247965   2.602   3.083   3.003  0.4208  0.0525 -0.4184
 8825TIP3    H147966   2.695   3.103   2.990  0.3540  0.8825  0.3087
 8825TIP3    H247967   2.602   3.008   3.063  0.6427 -1.4058 -2.1447
 8826TIP3   OH247968   4.071   4.902  12.887 -0.1517  0.1687 -0.5409
 8826TIP3    H147969   4.060   4.967  12.817  1.1016  0.5030 -0.4383
 8826TIP3    H247970   4.156   4.863  12.871 -0.8805 -1.4942 -0.6011
 8827TIP3   OH247971   0.138   6.765  15.826  0.5434  0.0511  0.1482
 8827TIP3    H147972   0.154   6.697  15.892  1.3526 -0.2758 -0.3724
 8827TIP3    H247973   0.224   6.806  15.813  0.1015  1.0604  0.3260
 8828TIP3   OH247974   3.942   4.839   2.791  0.1220  0.4772 -0.2151
 8828TIP3    H147975   3.909   4.749   2.788  0.1843  0.4674 -1.4197
 8828TIP3    H247976   3.896   4.880   2.864 -0.3413 -0.3747 -0.0178
 8829TIP3   OH247977   4.351   5.295  12.234  0.4731  0.3834  0.3307
 8829TIP3    H147978   4.336   5.380  12.275  0.1872  0.2108  0.5940
 8829TIP3    H247979   4.264   5.256  12.226  0.4183  0.7909 -1.3043
 8830TIP3   OH247980   0.401   6.093  15.433  0.5561 -0.3537 -0.7664
 8830TIP3    H147981   0.468   6.033  15.467  0.5967 -0.4723 -1.0564
 8830TIP3    H247982   0.369   6.139  15.511  2.1247  0.8822 -0.7957
 8831TIP3   OH247983   4.738   0.800  11.896  0.3034 -0.2926  0.1089
 8831TIP3    H147984   4.809   0.811  11.833  0.7004 -0.0150  0.6019
 8831TIP3    H247985   4.693   0.885  11.897 -0.1690 -0.5295 -0.3534
 8832TIP3   OH247986   0.432   1.807  12.604  0.6555 -0.5963  0.6712
 8832TIP3    H147987   0.464   1.877  12.660  1.7805 -0.0484 -0.5859
 8832TIP3    H247988   0.449   1.727  12.653  1.3010 -0.1132  1.2562
 8833TIP3   OH247989   3.132   3.906   0.457 -0.4653  0.4593  0.4171
 8833TIP3    H147990   3.088   3.941   0.534  2.3047  1.1709  1.7778
 8833TIP3    H247991   3.166   3.821   0.484 -0.1384  0.3620 -0.2745
 8834TIP3   OH247992   3.389   2.008   1.934  0.1014 -0.0756  0.4791
 8834TIP3    H147993   3.461   1.955   1.968  1.0520  1.4692  0.9779
 8834TIP3    H247994   3.312   1.952   1.943  1.4231 -2.5186 -1.8096
 8835TIP3   OH247995   2.318   1.964  16.406 -0.2482  0.5557  0.1460
 8835TIP3    H147996   2.261   1.923  16.341  1.6903  0.0289 -1.3207
 8835TIP3    H247997   2.354   2.041  16.361  0.4564  0.6856  0.9003
 8836TIP3   OH247998   5.998   3.295   6.942  0.3196 -0.1391  0.1173
 8836TIP3    H147999   6.088   3.323   6.929 -0.7146  2.9410 -1.1952
 8836TIP3    H248000   5.954   3.312   6.858 -1.3274 -2.5053  0.3778
 8837TIP3   OH248001   2.050   2.658   2.659  0.2414 -0.1409 -0.8361
 8837TIP3    H148002   2.112   2.596   2.622 -0.6902 -1.4440 -0.2906
 8837TIP3    H248003   1.974   2.654   2.601  0.1459  0.4489 -0.7613
 8838TIP3   OH248004   5.210   3.667   1.793 -0.1483  0.1862 -0.2292
 8838TIP3    H148005   5.253   3.703   1.871  1.1685  1.0202 -1.2911
 8838TIP3    H248006   5.216   3.736   1.728 -0.3419 -0.8474 -1.3848
 8839TIP3   OH248007   4.142   2.370   3.684 -0.0679  0.0268  0.2554
 8839TIP3    H148008   4.180   2.456   3.671  2.2017 -0.5870  2.0916
 8839TIP3    H248009   4.218   2.311   3.693 -1.4311 -1.5894  2.2720
 8840TIP3   OH248010   0.777   6.569  12.968 -0.0712  0.6920  0.1799
 8840TIP3    H148011   0.824   6.642  13.008  0.8052  0.8100 -1.0011
 8840TIP3    H248012   0.826   6.491  12.993 -0.5266  0.5821  0.7515
 8841TIP3   OH248013   6.388   4.754  15.576  0.0133  0.2006  0.4402
 8841TIP3    H148014   6.482   4.759  15.595  0.6437  0.0351 -2.3013
 8841TIP3    H248015   6.382   4.708  15.493 -2.7198 -2.1633  1.7557
 8842TIP3   OH248016   1.659   6.116   2.902 -0.5135 -0.0460 -0.2592
 8842TIP3    H148017   1.568   6.088   2.894 -0.6129  0.2606 -0.2068
 8842TIP3    H248018   1.692   6.115   2.812 -0.7243  0.3644 -0.3434
 8843TIP3   OH248019   3.783   3.630  15.741 -0.4113 -0.0102 -0.1049
 8843TIP3    H148020   3.844   3.583  15.798  0.3956  0.1987 -0.7799
 8843TIP3    H248021   3.697   3.593  15.762 -0.0661 -0.2777  0.8872
 8844TIP3   OH248022   3.165   0.521   5.118 -0.5070  0.0167  0.3968
 8844TIP3    H148023   3.187   0.511   5.211 -1.1543 -0.0942  0.5404
 8844TIP3    H248024   3.127   0.437   5.092  0.5511 -0.2947 -0.2311
 8845TIP3   OH248025   2.527   1.409  16.527  0.2925  0.2244  0.3685
 8845TIP3    H148026   2.559   1.488  16.483  1.5700 -0.4288  0.0520
 8845TIP3    H248027   2.487   1.356  16.457 -0.6496  0.6189  0.5967
 8846TIP3   OH248028   0.947   5.643  11.194  0.2048 -0.2124 -0.3352
 8846TIP3    H148029   0.979   5.733  11.194 -0.6640  0.1049 -0.8086
 8846TIP3    H248030   0.947   5.618  11.287  0.8766  0.1099 -0.2416
 8847TIP3   OH248031   3.622   1.678  11.553  0.0705 -0.3693 -0.0423
 8847TIP3    H148032   3.627   1.666  11.458  0.7659  0.9060 -0.1913
 8847TIP3    H248033   3.531   1.659  11.575  0.1323 -1.6613 -0.8049
 8848TIP3   OH248034   1.985   4.056  12.175 -0.5116 -0.1459  0.4797
 8848TIP3    H148035   1.968   4.141  12.135 -1.0085 -0.4711 -0.0233
 8848TIP3    H248036   2.007   4.076  12.266 -1.4520  0.4722  0.5936
 8849TIP3   OH248037   5.634   3.265   6.722 -0.1849  0.7541  0.3415
 8849TIP3    H148038   5.615   3.301   6.635 -0.0480 -0.0028 -0.0036
 8849TIP3    H248039   5.721   3.227   6.714 -1.4254 -2.2414 -0.1635
 8850TIP3   OH248040   0.827   2.115   0.149  0.5838  0.0248  0.1299
 8850TIP3    H148041   0.795   2.184   0.207 -0.6638 -0.8292  0.4705
 8850TIP3    H248042   0.790   2.034   0.183  0.2569 -0.5660 -1.5261
 8851TIP3   OH248043   4.860   2.649  14.041 -0.2581  0.6587 -0.0858
 8851TIP3    H148044   4.852   2.674  13.949  0.9534  1.3833 -0.0236
 8851TIP3    H248045   4.929   2.582  14.042  0.0822  1.0032  0.3340
 8852TIP3   OH248046   2.808   5.213   5.272  0.1582  0.4840  0.6529
 8852TIP3    H148047   2.789   5.244   5.183 -1.6355  1.2830  1.2654
 8852TIP3    H248048   2.902   5.228   5.283  1.4981 -3.6658 -2.5888
 8853TIP3   OH248049   5.046   5.506  13.460 -0.4949  0.1167 -0.6460
 8853TIP3    H148050   5.076   5.504  13.369 -0.4580 -2.6836 -0.6811
 8853TIP3    H248051   4.993   5.427  13.469  0.6699 -0.4843  2.1185
 8854TIP3   OH248052   3.228   5.079   5.655 -0.4352  0.0693 -0.2185
 8854TIP3    H148053   3.319   5.097   5.677 -0.1190 -1.7070  0.0515
 8854TIP3    H248054   3.198   5.158   5.609 -0.2665  2.8133  3.9058
 8855TIP3   OH248055   3.626   3.544   2.949 -0.4042 -0.4427  0.5024
 8855TIP3    H148056   3.580   3.465   2.978 -0.3568  0.1890  2.4000
 8855TIP3    H248057   3.610   3.608   3.018  1.4283  0.5148  0.1002
 8856TIP3   OH248058   0.605   4.950   3.475 -0.6490 -0.1177 -0.3786
 8856TIP3    H148059   0.513   4.928   3.460 -0.4944  1.1680 -4.5485
 8856TIP3    H248060   0.606   5.045   3.481  0.3960 -0.1395  0.0069
 8857TIP3   OH248061   1.944   1.961   1.827 -0.1615  0.6351 -0.2256
 8857TIP3    H148062   1.939   1.999   1.915 -1.5492  0.5643 -0.2594
 8857TIP3    H248063   1.857   1.975   1.789  0.1476 -0.1155 -1.2665
 8858TIP3   OH248064   6.619   0.637  16.576 -0.6127  0.0926  0.2645
 8858TIP3    H148065   6.553   0.591  16.628 -0.0385 -0.9354  0.1212
 8858TIP3    H248066   6.572   0.666  16.498  0.0322 -5.8768 -2.9749
 8859TIP3   OH248067   4.417   1.839  13.854 -0.0770 -0.3367  0.3722
 8859TIP3    H148068   4.486   1.905  13.859 -0.2619 -0.1524  0.5548
 8859TIP3    H248069   4.438   1.777  13.923  0.6443 -1.0132 -0.4391
 8860TIP3   OH248070   2.920   6.043   1.448  0.5781 -0.0428 -0.7954
 8860TIP3    H148071   2.941   5.950   1.444 -2.2575 -0.7105 -1.7801
 8860TIP3    H248072   2.929   6.074   1.358  3.2812  1.1876 -0.2262
 8861TIP3   OH248073   1.307   5.558  14.374  0.2385 -0.1961 -0.3270
 8861TIP3    H148074   1.398   5.533  14.359  0.1560 -0.7679  0.1148
 8861TIP3    H248075   1.258   5.511  14.306  0.1946 -0.4498 -0.1202
 8862TIP3   OH248076   1.201   1.504   1.510 -0.0287  0.3091  0.3962
 8862TIP3    H148077   1.124   1.558   1.499 -0.0990  0.3868  1.2328
 8862TIP3    H248078   1.258   1.529   1.437 -1.4410 -0.9173 -1.2045
 8863TIP3   OH248079   6.135   0.577   2.735  0.3344 -0.0922  0.0634
 8863TIP3    H148080   6.144   0.596   2.828 -0.6093  1.8518 -0.1767
 8863TIP3    H248081   6.075   0.503   2.732 -1.2098  1.0518  1.0032
 8864TIP3   OH248082   6.147   0.828  13.878  0.3867  0.4465 -0.1833
 8864TIP3    H148083   6.112   0.890  13.943  1.0491  0.8317 -0.1785
 8864TIP3    H248084   6.074   0.811  13.819  0.9325  3.6323 -2.0294
 8865TIP3   OH248085   1.579   2.793  11.421  0.0160  0.0739 -0.0193
 8865TIP3    H148086   1.514   2.762  11.358  0.4814 -0.3882 -0.2848
 8865TIP3    H248087   1.535   2.789  11.506  0.6149 -3.2615  0.2745
 8866TIP3   OH248088   2.170   6.161  16.165 -0.2003  0.4053  0.0979
 8866TIP3    H148089   2.235   6.186  16.100  1.2885 -2.1946  0.4268
 8866TIP3    H248090   2.154   6.068  16.148 -2.7902  0.5997  0.9813
 8867TIP3   OH248091   3.980   0.051   0.235  0.1066  0.3538  0.0012
 8867TIP3    H148092   3.890   0.028   0.213  0.6729 -0.5460 -1.5232
 8867TIP3    H248093   3.981   0.146   0.236 -0.5691  0.3906 -1.3308
 8868TIP3   OH248094   3.012   3.477  16.861  0.0014  0.3572 -0.0065
 8868TIP3    H148095   3.020   3.446  16.770  3.9656  1.8395 -0.3434
 8868TIP3    H248096   2.919   3.467  16.881 -1.0091 -0.3588 -4.1004
 8869TIP3   OH248097   1.613   1.501   3.847 -0.2129 -0.0592 -0.1299
 8869TIP3    H148098   1.608   1.460   3.760 -0.1839 -0.2094 -0.0609
 8869TIP3    H248099   1.522   1.516   3.872 -0.2088  0.4184 -0.3911
 8870TIP3   OH248100   4.719   0.092   4.417  0.0135  0.7558  0.3845
 8870TIP3    H148101   4.672   0.053   4.490  1.2689  0.1781  0.9149
 8870TIP3    H248102   4.717   0.025   4.349  0.2877  0.6259  0.5032
 8871TIP3   OH248103   3.021   4.145  17.115 -0.3101  0.3716  0.9541
 8871TIP3    H148104   3.101   4.168  17.069 -1.9442  1.8900 -1.3608
 8871TIP3    H248105   3.036   4.172  17.206  1.9216  0.1199  0.7201
 8872TIP3   OH248106   2.423   2.783   6.079 -0.3133  0.1096 -0.5858
 8872TIP3    H148107   2.352   2.735   6.036 -1.5154 -1.9652  3.2270
 8872TIP3    H248108   2.486   2.715   6.104  1.0846  1.4090 -0.4158
 8873TIP3   OH248109   5.881   6.026   0.625 -0.1858 -0.1336  0.1732
 8873TIP3    H148110   5.843   6.028   0.713  1.9958  2.2952  1.1616
 8873TIP3    H248111   5.882   6.117   0.596  1.0134 -0.6362 -1.5428
 8874TIP3   OH248112   4.413   1.680   3.151  1.1535 -0.2866 -0.0810
 8874TIP3    H148113   4.431   1.597   3.106 -0.2887 -0.6757  0.0358
 8874TIP3    H248114   4.390   1.655   3.240 -1.5713  0.0052 -0.6291
 8875TIP3   OH248115   0.902   1.867   5.590 -0.1374  0.1356 -0.2161
 8875TIP3    H148116   0.854   1.950   5.583  1.0910  0.8845  0.0537
 8875TIP3    H248117   0.966   1.882   5.659  2.7619  0.3428 -2.7594
 8876TIP3   OH248118   6.433   6.664  13.069 -0.0179 -0.3811 -0.4173
 8876TIP3    H148119   6.423   6.683  13.162 -0.9823 -0.7375 -0.4390
 8876TIP3    H248120   6.516   6.616  13.063  1.4295  1.9284 -0.1066
 8877TIP3   OH248121   4.440   6.575   1.086 -0.5749  0.1329  0.3421
 8877TIP3    H148122   4.529   6.547   1.062 -1.1320 -2.4262  0.9645
 8877TIP3    H248123   4.400   6.602   1.004 -0.0928 -1.4107 -0.4352
 8878TIP3   OH248124   6.496   4.309  12.010  0.2618 -0.3203  0.1863
 8878TIP3    H148125   6.467   4.275  12.095 -0.8917 -0.9816 -0.4508
 8878TIP3    H248126   6.478   4.403  12.015  0.4096 -0.3178  0.7574
 8879TIP3   OH248127   2.038   0.857  15.384 -0.3439 -0.2158  0.3246
 8879TIP3    H148128   2.077   0.832  15.468 -0.8523 -1.1261  0.3023
 8879TIP3    H248129   2.039   0.776  15.332  0.8838  0.5417 -0.9353
 8880TIP3   OH248130   2.848   3.424   1.244  0.6926 -0.0882  0.4567
 8880TIP3    H148131   2.827   3.517   1.246 -0.0105 -0.2350  0.5156
 8880TIP3    H248132   2.886   3.405   1.330 -2.6955 -0.5928  2.0295
 8881TIP3   OH248133   4.367   4.302  13.765  0.3694 -0.2907 -0.0216
 8881TIP3    H148134   4.329   4.387  13.742  0.4015  0.0146  1.0097
 8881TIP3    H248135   4.297   4.256  13.810  0.9323 -0.0456  1.1504
 8882TIP3   OH248136   2.709   4.345   1.119 -0.7392  0.7220 -0.5030
 8882TIP3    H148137   2.683   4.315   1.206 -0.0142  2.5880  0.4204
 8882TIP3    H248138   2.771   4.278   1.088  0.4697  0.9650  1.2556
 8883TIP3   OH248139   1.303   0.874  13.315  0.2765 -0.0440 -0.3611
 8883TIP3    H148140   1.227   0.837  13.270 -0.4342 -0.6361  1.2435
 8883TIP3    H248141   1.352   0.919  13.247 -0.5404 -1.2195 -1.7856
 8884TIP3   OH248142   4.384   2.740  15.442  0.4749 -0.3772 -0.1805
 8884TIP3    H148143   4.351   2.651  15.454  0.4980 -0.2235  1.1224
 8884TIP3    H248144   4.321   2.795  15.489  1.1223  0.1682  0.0546
 8885TIP3   OH248145   5.495   5.177   5.938  0.0859  0.0064 -0.1035
 8885TIP3    H148146   5.512   5.225   6.018  0.3747  0.7041 -0.5709
 8885TIP3    H248147   5.577   5.184   5.888  0.3919 -1.5972  0.1260
 8886TIP3   OH248148   0.069   0.324   3.658 -0.0144  0.1244 -0.5716
 8886TIP3    H148149   0.078   0.411   3.618 -1.9642  0.4227 -0.4529
 8886TIP3    H248150   0.021   0.273   3.594  0.4591 -0.6543 -0.3159
 8887TIP3   OH248151   2.501   0.468  15.672  0.2647 -0.4154 -0.7520
 8887TIP3    H148152   2.413   0.493  15.643  0.3826  0.6441 -0.2625
 8887TIP3    H248153   2.486   0.409  15.745 -0.0969  1.4671  0.7719
 8888TIP3   OH248154   1.667   6.570  15.034 -0.1431 -0.8513 -0.8769
 8888TIP3    H148155   1.698   6.660  15.040 -1.6407 -0.4018  1.1872
 8888TIP3    H248156   1.628   6.563  14.946 -0.8180  0.8001 -0.7359
 8889TIP3   OH248157   5.588   5.055  16.384  0.6097  0.5535 -0.1965
 8889TIP3    H148158   5.677   5.045  16.419  0.0902  0.1993  1.0919
 8889TIP3    H248159   5.539   5.097  16.455 -0.6079 -0.6734 -0.2679
 8890TIP3   OH248160   6.044   4.865   4.649  0.2070  0.5864 -0.1549
 8890TIP3    H148161   6.100   4.882   4.724  1.8494 -0.4067 -1.0938
 8890TIP3    H248162   5.990   4.791   4.675 -0.5479  1.3937  0.6679
 8891TIP3   OH248163   6.042   1.133  14.321 -0.3745 -0.3171  0.0887
 8891TIP3    H148164   6.122   1.088  14.347  0.8516  1.9988  0.6286
 8891TIP3    H248165   5.993   1.145  14.402  0.8897  2.1319  0.5802
 8892TIP3   OH248166   4.317   4.147  13.307  0.6094  0.3180 -0.4551
 8892TIP3    H148167   4.351   4.075  13.254  0.9307 -0.0236  0.2021
 8892TIP3    H248168   4.263   4.198  13.246 -0.1011 -0.8013 -0.8026
 8893TIP3   OH248169   2.270   6.270  14.684  0.2490  0.2836  0.2953
 8893TIP3    H148170   2.269   6.343  14.747  0.9781  0.3262  0.2625
 8893TIP3    H248171   2.307   6.197  14.733 -2.0934 -0.6084  0.8838
 8894TIP3   OH248172   3.997   2.206   4.068 -0.1505  0.5491 -0.1147
 8894TIP3    H148173   3.950   2.150   4.008  0.8189  1.1215 -1.4629
 8894TIP3    H248174   3.931   2.235   4.131 -1.0095 -0.7055 -0.4058
 8895TIP3   OH248175   4.414   0.678  15.212  0.3070 -0.4259  0.6157
 8895TIP3    H148176   4.462   0.634  15.282 -1.8486 -4.8160 -0.3243
 8895TIP3    H248177   4.472   0.673  15.136  0.7932  0.0558  0.9502
 8896TIP3   OH248178   4.639   0.405  14.946 -0.1037 -0.0769 -0.5285
 8896TIP3    H148179   4.680   0.471  14.891 -1.2913  1.1073 -0.0562
 8896TIP3    H248180   4.622   0.331  14.888  3.2767 -0.9407 -0.5903
 8897TIP3   OH248181   1.251   4.472  14.569 -0.5992 -0.1176 -0.2076
 8897TIP3    H148182   1.302   4.392  14.579 -0.8431 -0.0421  2.3802
 8897TIP3    H248183   1.211   4.486  14.655 -1.4753  2.1715 -0.9056
 8898TIP3   OH248184   5.542   0.188   5.492 -0.0905  0.3639 -0.1812
 8898TIP3    H148185   5.547   0.128   5.419  0.3276 -1.0426  0.9652
 8898TIP3    H248186   5.629   0.187   5.532 -0.3077  1.0898  0.3576
 8899TIP3   OH248187   0.193   4.836  15.505 -0.2791  0.7513 -0.0889
 8899TIP3    H148188   0.130   4.906  15.485  0.4170  1.0567 -1.3131
 8899TIP3    H248189   0.154   4.758  15.465 -1.6124  0.1366  2.2355
 8900TIP3   OH248190   2.804   5.172   0.070 -0.1212  0.3104  0.3183
 8900TIP3    H148191   2.764   5.096   0.027  1.2859 -1.4742  1.9145
 8900TIP3    H248192   2.746   5.245   0.049 -1.5672 -1.1942 -1.3131
 8901TIP3   OH248193   5.505   1.100   5.143  0.9264 -0.0532  0.0213
 8901TIP3    H148194   5.593   1.138   5.151  0.5446  1.0267 -0.7150
 8901TIP3    H248195   5.486   1.104   5.049 -0.0611  0.0619  0.2189
 8902TIP3   OH248196   6.437   6.428   5.722 -0.6555 -0.3586 -0.1393
 8902TIP3    H148197   6.403   6.506   5.676  1.9079  1.4377  0.7887
 8902TIP3    H248198   6.454   6.459   5.811  3.7270 -0.8080 -0.5921
 8903TIP3   OH248199   1.041   2.472  11.093  0.2022  0.3543  0.8280
 8903TIP3    H148200   0.951   2.439  11.094 -0.1267  1.1277 -0.7817
 8903TIP3    H248201   1.092   2.400  11.057 -0.3359  1.0835 -1.5433
 8904TIP3   OH248202   5.403   4.364  14.017  0.1582 -0.0977  0.2013
 8904TIP3    H148203   5.317   4.404  14.006 -0.2862 -1.3397 -1.0957
 8904TIP3    H248204   5.390   4.272  13.994  1.0303 -1.1809  3.4981
 8905TIP3   OH248205   1.575   1.326  11.066 -0.0347 -0.2353 -0.0132
 8905TIP3    H148206   1.558   1.390  11.135  1.8545  0.0361  0.2397
 8905TIP3    H248207   1.500   1.335  11.006 -0.4188  1.3222  0.6538
 8906TIP3   OH248208   0.494   3.534   5.323 -0.3114  0.0621 -0.4002
 8906TIP3    H148209   0.522   3.455   5.370  0.2363  0.3865 -0.1686
 8906TIP3    H248210   0.424   3.504   5.265 -0.3860 -0.5151 -0.0204
 8907TIP3   OH248211   6.446   3.885  12.010 -0.5412 -0.4525  1.0284
 8907TIP3    H148212   6.385   3.948  11.971  1.8773  0.6920 -1.2177
 8907TIP3    H248213   6.391   3.830  12.066 -3.2260  1.8452  0.8634
 8908TIP3   OH248214   6.273   4.869  17.177 -0.2945 -0.2415 -0.4339
 8908TIP3    H148215   6.180   4.880  17.156 -0.1533 -0.0050 -0.9626
 8908TIP3    H248216   6.318   4.889  17.095  0.4768  3.8704  0.7505
 8909TIP3   OH248217   5.610   1.447   2.019 -0.2017  0.4430 -0.6637
 8909TIP3    H148218   5.619   1.352   2.007  2.6241  0.5818 -0.3258
 8909TIP3    H248219   5.639   1.485   1.936  0.1018  1.0349 -0.2927
 8910TIP3   OH248220   4.043   3.624  13.447 -0.2002  0.5186  0.2997
 8910TIP3    H148221   4.113   3.649  13.386  0.6273  0.5766  1.2455
 8910TIP3    H248222   4.042   3.693  13.512 -0.9821  0.3847  0.4388
 8911TIP3   OH248223   4.145   0.515  14.745  0.4570  0.3084  0.1005
 8911TIP3    H148224   4.201   0.540  14.819  2.4121  1.1760 -1.5572
 8911TIP3    H248225   4.198   0.452  14.696 -0.5180  0.2503 -0.9079
 8912TIP3   OH248226   6.750   2.785  11.279  0.3296  0.5560  0.1229
 8912TIP3    H148227   6.787   2.775  11.367 -2.5431  0.3841  1.4331
 8912TIP3    H248228   6.722   2.697  11.255  0.0598  0.8031 -0.4763
 8913TIP3   OH248229   6.277   0.026   3.408 -0.4181  0.3395  0.2842
 8913TIP3    H148230   6.296   0.061   3.321 -0.3813  1.2165  0.6331
 8913TIP3    H248231   6.357  -0.018   3.435 -1.0728 -1.7267 -0.9431
 8914TIP3   OH248232   0.138   4.404   3.513  0.0335 -0.2068 -0.3804
 8914TIP3    H148233   0.139   4.350   3.434 -2.7146 -0.9786 -0.0080
 8914TIP3    H248234   0.090   4.352   3.577  3.1110 -0.0894  2.2797
 8915TIP3   OH248235   5.513   5.692   2.654  0.2488  0.3815  0.1564
 8915TIP3    H148236   5.446   5.647   2.602  0.2362 -0.6145  1.0074
 8915TIP3    H248237   5.596   5.665   2.615  0.1888  0.8797 -0.3201
 8916TIP3   OH248238   1.518   2.346   4.329 -0.1149 -0.2744 -0.0470
 8916TIP3    H148239   1.441   2.403   4.331  0.1660  0.1559 -1.0257
 8916TIP3    H248240   1.483   2.257   4.327 -0.5595 -0.1400  0.9652
 8917TIP3   OH248241   3.312   4.137   3.044 -0.6443 -0.0906 -0.0290
 8917TIP3    H148242   3.366   4.117   2.967 -0.3937 -1.2474  0.4266
 8917TIP3    H248243   3.245   4.070   3.044 -0.4073 -0.3477  0.9839
 8918TIP3   OH248244   6.597   6.708  15.126  0.0758 -0.4773  0.4485
 8918TIP3    H148245   6.649   6.779  15.089  0.1821 -0.6638  0.2387
 8918TIP3    H248246   6.568   6.741  15.211 -2.5488  1.0984 -0.9276
 8919TIP3   OH248247   3.048   3.148  15.903 -0.2970  0.4034  0.1324
 8919TIP3    H148248   3.069   3.192  15.820 -1.7624 -0.7441 -0.9063
 8919TIP3    H248249   2.955   3.127  15.896 -0.1589 -0.8239  1.5605
 8920TIP3   OH248250   4.082   6.622   3.771 -0.0157  0.3548  0.0877
 8920TIP3    H148251   4.153   6.558   3.757  0.9410  1.2999  0.4611
 8920TIP3    H248252   4.084   6.678   3.693 -2.3071 -1.3312 -1.3106
 8921TIP3   OH248253   0.447   4.291  12.117 -0.0125 -0.6336 -1.1027
 8921TIP3    H148254   0.401   4.252  12.192 -1.8298  2.3769 -0.4692
 8921TIP3    H248255   0.537   4.303  12.147 -0.3276 -0.9343 -0.0020
 8922TIP3   OH248256   0.067   2.376  13.288  0.1261  0.3868  0.5139
 8922TIP3    H148257   0.097   2.353  13.200  0.3747 -0.4657  0.8130
 8922TIP3    H248258   0.017   2.300  13.317  2.0145 -0.3817  2.0080
 8923TIP3   OH248259   4.307   3.583   0.744 -0.1953  0.3256 -0.1659
 8923TIP3    H148260   4.302   3.561   0.650  1.5752 -0.5034 -0.1070
 8923TIP3    H248261   4.310   3.678   0.746  1.4678  0.3470 -1.1186
 8924TIP3   OH248262   1.250   0.209  14.854 -0.3299  0.7892 -0.2054
 8924TIP3    H148263   1.288   0.236  14.938  1.8054  0.2140 -0.9296
 8924TIP3    H248264   1.299   0.130  14.830 -0.8443  0.9952 -2.0381
 8925TIP3   OH248265   2.547   1.710   3.029 -0.4311 -0.1831 -0.2796
 8925TIP3    H148266   2.604   1.784   3.050 -0.2150 -0.8430  1.6444
 8925TIP3    H248267   2.607   1.635   3.026 -0.6126 -0.3153 -2.4123
 8926TIP3   OH248268   2.658   4.067   0.010 -0.1005  0.2983 -0.6294
 8926TIP3    H148269   2.655   4.162   0.014  0.0528  0.2677  0.9817
 8926TIP3    H248270   2.566   4.040   0.010 -0.1650  0.4371 -1.9802
 8927TIP3   OH248271   6.822   1.887  12.995  0.1866  0.1261 -0.1847
 8927TIP3    H148272   6.913   1.859  13.005 -0.5266 -2.7821 -1.0278
 8927TIP3    H248273   6.786   1.827  12.930 -2.0875  1.9092 -0.6943
 8928TIP3   OH248274   4.402   1.668   4.420  0.7463 -0.2706 -0.1150
 8928TIP3    H148275   4.367   1.684   4.333  3.6053  4.2964 -0.7054
 8928TIP3    H248276   4.324   1.647   4.473 -2.4926  4.5122 -2.2443
 8929TIP3   OH248277   1.602   2.658  15.313  0.0482 -0.0568  0.5994
 8929TIP3    H148278   1.517   2.701  15.324 -0.2466 -0.2318 -0.7430
 8929TIP3    H248279   1.600   2.585  15.375 -1.8825 -1.5977 -1.1050
 8930TIP3   OH248280   1.924   6.368   4.493  0.0944 -0.2447 -0.0716
 8930TIP3    H148281   1.976   6.422   4.552  0.9528 -1.7043  0.5520
 8930TIP3    H248282   1.931   6.279   4.528 -1.7371 -0.7096 -0.7345
 8931TIP3   OH248283   2.935   0.347  12.054  0.0598  0.1525  0.5550
 8931TIP3    H148284   2.983   0.423  12.021 -0.7908  0.8903  0.9653
 8931TIP3    H248285   2.949   0.349  12.148  1.5692 -1.3103  0.4224
 8932TIP3   OH248286   3.695   5.805   5.820 -0.8103  0.2245 -0.5733
 8932TIP3    H148287   3.707   5.776   5.910 -1.5722 -0.0640 -0.5534
 8932TIP3    H248288   3.771   5.771   5.773  0.3832  1.6656  0.2396
 8933TIP3   OH248289   4.326   4.029  11.617  0.2532  0.8265 -0.0471
 8933TIP3    H148290   4.241   4.003  11.582  1.2553 -0.9121 -1.4246
 8933TIP3    H248291   4.375   3.947  11.622  1.0596  1.3710  3.1620
 8934TIP3   OH248292   1.089   4.607  12.459  0.1109 -0.5007 -0.0590
 8934TIP3    H148293   1.018   4.613  12.522  1.6327 -0.0248  1.7111
 8934TIP3    H248294   1.159   4.562  12.507  1.6236  0.6208 -1.1211
 8935TIP3   OH248295   0.956   5.990   3.879 -0.0741 -0.4661  0.5880
 8935TIP3    H148296   0.980   5.897   3.873 -0.0267 -0.4357  0.2900
 8935TIP3    H248297   1.031   6.031   3.922 -0.8707 -0.8652  2.4671
 8936TIP3   OH248298   5.355   4.239   2.797  0.4116 -0.4039 -0.2278
 8936TIP3    H148299   5.443   4.264   2.826  0.0248 -0.5422  1.1645
 8936TIP3    H248300   5.322   4.316   2.750 -0.5463  1.7342  3.5097
 8937TIP3   OH248301   6.332   2.256   5.005  0.1703 -0.2887  0.4756
 8937TIP3    H148302   6.329   2.164   5.031  0.0398 -0.5528 -0.4358
 8937TIP3    H248303   6.264   2.265   4.939  1.5775 -0.0549 -1.0227
 8938TIP3   OH248304   3.471   1.240  12.850  0.2278  0.8396 -0.4281
 8938TIP3    H148305   3.425   1.323  12.864  0.2230  0.7530  0.0711
 8938TIP3    H248306   3.433   1.180  12.914  1.3140  0.8758  0.2703
 8939TIP3   OH248307   0.231   3.373   5.748  0.1449 -0.3474  0.0365
 8939TIP3    H148308   0.252   3.467   5.743  0.6977 -0.4497  0.4126
 8939TIP3    H248309   0.199   3.351   5.660  1.3713 -0.1328 -0.4723
 8940TIP3   OH248310   6.038   1.518  11.574  0.2224  0.0315 -0.4226
 8940TIP3    H148311   6.017   1.610  11.592 -0.1223 -0.1353  0.0336
 8940TIP3    H248312   6.000   1.502  11.487 -1.4251 -0.2126  0.3115
 8941TIP3   OH248313   1.885   0.805  11.213  0.0680 -0.5376 -0.1115
 8941TIP3    H148314   1.812   0.841  11.265 -1.6823 -2.2188 -1.2785
 8941TIP3    H248315   1.916   0.731  11.265  1.1610  0.3328  0.5071
 8942TIP3   OH248316   2.353   6.597  10.203 -0.4869 -0.2249  0.2009
 8942TIP3    H148317   2.326   6.642  10.123  1.3868 -0.5984 -0.7013
 8942TIP3    H248318   2.272   6.559  10.238 -1.4545  0.4965 -1.1504
 8943TIP3   OH248319   2.673   6.519  15.921  0.2414 -0.3455  0.1546
 8943TIP3    H148320   2.615   6.466  15.977 -2.9703  1.2104 -1.4390
 8943TIP3    H248321   2.675   6.472  15.838  0.9557 -0.1806  0.0777
 8944TIP3   OH248322   3.712   6.403  11.296 -0.2149  0.3388 -0.1685
 8944TIP3    H148323   3.716   6.324  11.242  0.8368  0.6350 -0.5584
 8944TIP3    H248324   3.692   6.473  11.234 -0.0824  0.5243 -0.0014
 8945TIP3   OH248325   5.766   5.596  12.886 -0.1132 -0.0793  0.1213
 8945TIP3    H148326   5.845   5.589  12.940 -1.0247  1.7936  1.8332
 8945TIP3    H248327   5.700   5.545  12.934 -0.4495  0.0517 -0.2027
 8946TIP3   OH248328   1.295   5.127  10.918 -0.1063  0.0393  0.5284
 8946TIP3    H148329   1.351   5.071  10.863 -0.2428 -1.0191  1.4425
 8946TIP3    H248330   1.206   5.106  10.891 -0.1159  1.4388 -0.6489
 8947TIP3   OH248331   1.047   3.302  10.962 -0.1161 -0.2772 -0.3846
 8947TIP3    H148332   1.102   3.224  10.973  0.9464  0.5427  0.4267
 8947TIP3    H248333   1.109   3.372  10.946 -0.9141  0.7333  0.8169
 8948TIP3   OH248334   4.073   2.416   2.790 -0.1122  0.1228  0.1083
 8948TIP3    H148335   4.127   2.395   2.714 -0.6437 -0.6202 -0.0735
 8948TIP3    H248336   4.109   2.499   2.823  0.5592  0.0961 -0.5358
 8949TIP3   OH248337   0.203   3.186  16.526  0.1805 -0.4288  0.4028
 8949TIP3    H148338   0.259   3.133  16.583  1.2307  0.5777  0.3392
 8949TIP3    H248339   0.131   3.214  16.583  0.0947 -1.1665  0.6667
 8950TIP3   OH248340   6.718   1.182  14.837 -0.4665  0.1422 -0.0111
 8950TIP3    H148341   6.669   1.135  14.769  0.2286  1.4700 -1.4949
 8950TIP3    H248342   6.731   1.117  14.906  1.8887 -2.4917 -2.6470
 8951TIP3   OH248343   2.132   0.308   0.912  0.3425 -0.1766 -0.0719
 8951TIP3    H148344   2.112   0.229   0.862 -2.0465  0.3528 -0.0925
 8951TIP3    H248345   2.217   0.291   0.952  0.4764 -2.2134 -1.1128
 8952TIP3   OH248346   6.491   0.945   1.731 -0.0868 -0.4195  0.3521
 8952TIP3    H148347   6.567   0.887   1.736  0.8484  0.7208 -0.1077
 8952TIP3    H248348   6.480   0.962   1.637  0.0785  0.6374  0.5037
 8953TIP3   OH248349   2.234   5.094  14.989 -0.0543 -0.0969  0.2633
 8953TIP3    H148350   2.232   5.169  15.048  0.5385  0.7617 -0.7801
 8953TIP3    H248351   2.324   5.062  14.994 -0.1072 -0.2724  0.1134
 8954TIP3   OH248352   1.569   0.544  14.101 -0.0470 -0.6017  0.4845
 8954TIP3    H148353   1.661   0.526  14.082  0.1178  0.4694  0.2303
 8954TIP3    H248354   1.572   0.607  14.173 -0.4538  1.9899 -1.5971
 8955TIP3   OH248355   0.062   4.528   3.202  0.2320  0.1089 -0.1668
 8955TIP3    H148356   0.112   4.555   3.279  0.2215 -1.0735  0.2713
 8955TIP3    H248357  -0.027   4.560   3.219  0.2376 -0.1166  0.3013
 8956TIP3   OH248358   0.504   1.113   0.736 -0.3639  0.3680  0.3997
 8956TIP3    H148359   0.593   1.082   0.718 -0.6029 -0.3041  0.3575
 8956TIP3    H248360   0.512   1.164   0.816 -0.0613 -0.2613  0.7765
 8957TIP3   OH248361   1.313   6.188  12.536  0.3090  0.3954  0.1643
 8957TIP3    H148362   1.271   6.260  12.490  0.7338  0.6979  0.2392
 8957TIP3    H248363   1.403   6.188  12.502  0.1437 -0.5006 -0.3076
 8958TIP3   OH248364   0.580   6.287  12.847  0.2364  0.5295  0.1077
 8958TIP3    H148365   0.516   6.357  12.864 -3.8988 -2.1105 -2.6042
 8958TIP3    H248366   0.595   6.248  12.933 -1.9224  1.2615  0.9078
 8959TIP3   OH248367   3.270   3.382  16.926 -0.0917 -0.0905  0.1078
 8959TIP3    H148368   3.185   3.399  16.884  0.0645  2.5103  0.6988
 8959TIP3    H248369   3.334   3.402  16.858  0.0921 -2.0080 -0.3226
 8960TIP3   OH248370   3.160   0.077  14.413 -0.4614 -0.3271  0.9054
 8960TIP3    H148371   3.202   0.138  14.353 -1.0818  1.6186  2.3423
 8960TIP3    H248372   3.068   0.104  14.414 -0.8743 -1.6666  1.1603
 8961TIP3   OH248373   4.004   2.603  15.754 -0.0669  0.4236 -0.0690
 8961TIP3    H148374   3.973   2.553  15.679 -1.0357 -0.2443  0.7596
 8961TIP3    H248375   4.037   2.537  15.815  2.9297  1.0609 -0.8094
 8962TIP3   OH248376   5.692   5.161   1.145  0.0185  0.0347 -0.0313
 8962TIP3    H148377   5.731   5.242   1.177  0.8432 -1.3028  2.6908
 8962TIP3    H248378   5.763   5.117   1.098 -0.1442  0.4121 -0.6472
 8963TIP3   OH248379   0.406   4.070   3.693  0.1402  0.1559  0.4218
 8963TIP3    H148380   0.494   4.104   3.676  1.6221 -1.9164  3.1296
 8963TIP3    H248381   0.362   4.139   3.742 -0.1952  1.6231 -1.8384
 8964TIP3   OH248382   3.039   5.535  15.606 -0.6286 -0.7613  0.0272
 8964TIP3    H148383   2.966   5.476  15.628 -1.2243  0.4077  1.3854
 8964TIP3    H248384   3.113   5.502  15.657 -0.7477 -0.8182  0.1658
 8965TIP3   OH248385   3.667   0.950   5.745 -0.8984 -0.2652 -0.1235
 8965TIP3    H148386   3.615   0.881   5.704 -1.5967  0.6883 -0.8822
 8965TIP3    H248387   3.727   0.980   5.677 -0.4437 -0.2775  0.2661
 8966TIP3   OH248388   2.448   5.755  14.084 -0.5068 -0.0744 -0.1329
 8966TIP3    H148389   2.385   5.694  14.123 -0.7097 -0.3341 -0.8606
 8966TIP3    H248390   2.461   5.723  13.995 -2.2058  2.0880 -1.2791
 8967TIP3   OH248391   0.353   2.129   5.283 -0.2673 -0.6047 -0.3702
 8967TIP3    H148392   0.330   2.045   5.323  0.0519 -0.2480  0.5954
 8967TIP3    H248393   0.368   2.109   5.191  0.7382 -1.7985  0.0262
 8968TIP3   OH248394   6.320   1.404   1.537 -0.4229 -0.1522 -0.0022
 8968TIP3    H148395   6.267   1.457   1.477  0.3144 -0.0139 -0.5495
 8968TIP3    H248396   6.394   1.376   1.484 -0.5549 -1.3422  0.4132
 8969TIP3   OH248397   5.713   2.036   4.562 -0.1968 -0.1487 -0.9560
 8969TIP3    H148398   5.768   1.962   4.585  3.5174  2.1407 -1.5929
 8969TIP3    H248399   5.670   2.061   4.644  0.2451 -1.6234 -0.2543
 8970TIP3   OH248400   0.579   4.245   0.947  0.4202 -0.1491 -0.2574
 8970TIP3    H148401   0.533   4.266   1.028  0.1635  3.4167 -1.1589
 8970TIP3    H248402   0.655   4.304   0.947  2.1271 -2.1898 -1.2822
 8971TIP3   OH248403   2.125   5.767  14.021  0.0322  0.0853  0.2116
 8971TIP3    H148404   2.121   5.771  13.925  0.2370  2.1835  0.2469
 8971TIP3    H248405   2.093   5.680  14.043  1.5102 -1.0574 -1.8379
 8972TIP3   OH248406   5.938   5.054   2.838  0.0382 -0.0318 -0.3580
 8972TIP3    H148407   5.900   5.143   2.837  0.0719 -0.0184 -0.8499
 8972TIP3    H248408   5.889   5.008   2.906 -1.4719 -0.2614 -1.5249
 8973TIP3   OH248409   6.817   3.215   0.147 -0.2201 -0.3854 -0.3463
 8973TIP3    H148410   6.743   3.275   0.135 -0.0761 -0.3058 -0.8877
 8973TIP3    H248411   6.778   3.128   0.146 -0.3409 -0.3315 -0.3409
 8974TIP3   OH248412   6.684   3.773   3.673  0.0382  0.0312  0.4694
 8974TIP3    H148413   6.673   3.679   3.683 -0.6674  0.1627  1.0148
 8974TIP3    H248414   6.743   3.783   3.598  0.1828 -0.8396  0.4625
 8975TIP3   OH248415   2.278   0.511   5.243  0.4588  0.3818  0.1555
 8975TIP3    H148416   2.340   0.454   5.197  0.0361 -0.3360  0.4481
 8975TIP3    H248417   2.245   0.457   5.315 -3.4872 -0.7584 -2.2002
 8976TIP3   OH248418   2.882   4.021  13.076 -0.1045 -0.2701 -0.2219
 8976TIP3    H148419   2.897   3.926  13.074 -0.7384 -0.4139  0.7447
 8976TIP3    H248420   2.878   4.042  13.169  0.7298  0.8374 -0.4208
 8977TIP3   OH248421   5.285   2.774  16.665  0.0148 -0.7792  0.0071
 8977TIP3    H148422   5.334   2.817  16.595  0.6920 -0.9378  0.3732
 8977TIP3    H248423   5.199   2.758  16.627 -0.4407  1.3441  0.0362
 8978TIP3   OH248424   0.747   0.162   1.279 -0.4337  0.1651 -0.7326
 8978TIP3    H148425   0.766   0.074   1.311  2.4567  0.6166 -0.9615
 8978TIP3    H248426   0.702   0.205   1.351 -0.5946 -1.0556 -0.0783
 8979TIP3   OH248427   6.492   1.646  12.936  0.7532 -0.1758 -0.0539
 8979TIP3    H148428   6.448   1.618  13.016 -1.5431  1.7266 -0.5533
 8979TIP3    H248429   6.433   1.711  12.897  3.3153  1.3673 -1.6228
 8980TIP3   OH248430   6.764   6.408   2.766  0.2530  0.0242  0.5504
 8980TIP3    H148431   6.698   6.476   2.751 -0.9354 -0.7396  2.0227
 8980TIP3    H248432   6.782   6.373   2.679  0.0093  1.4131 -0.0835
 8981TIP3   OH248433   2.009   5.551  15.514  0.0428 -0.0024 -0.1083
 8981TIP3    H148434   1.967   5.564  15.598  0.3187 -1.6257  0.3144
 8981TIP3    H248435   2.073   5.622  15.508  0.4146 -0.1822  1.3254
 8982TIP3   OH248436   0.122   5.003   4.743  0.1563 -0.0349 -0.6320
 8982TIP3    H148437   0.115   4.967   4.832 -1.7165  1.5632 -0.0503
 8982TIP3    H248438   0.145   4.928   4.689  0.7875 -1.1734  1.1123
 8983TIP3   OH248439   4.939   1.112  11.203 -0.5554  0.2826  0.1397
 8983TIP3    H148440   4.978   1.032  11.168 -1.0245  0.1323 -0.0503
 8983TIP3    H248441   4.861   1.082  11.249 -0.1494  0.5152  1.0105
 8984TIP3   OH248442   2.990   6.353   6.034 -0.0551 -0.1679 -0.5733
 8984TIP3    H148443   2.997   6.259   6.047 -3.6135 -0.6000 -0.8690
 8984TIP3    H248444   2.947   6.385   6.113 -0.1847  0.9833 -1.0859
 8985TIP3   OH248445   4.313   1.361  11.205 -0.0234 -0.8599  0.2040
 8985TIP3    H148446   4.218   1.357  11.195 -0.0555 -0.3967  0.2877
 8985TIP3    H248447   4.327   1.365  11.299  0.1044 -1.4185  0.2115
 8986TIP3   OH248448   2.728   0.513  11.909 -0.4053 -0.3456  0.2935
 8986TIP3    H148449   2.768   0.521  11.822  0.0993 -1.2070  0.4387
 8986TIP3    H248450   2.786   0.455  11.957 -2.6958 -3.1549 -0.0472
 8987TIP3   OH248451   6.808   2.884   2.081  0.1820 -0.0249 -0.4344
 8987TIP3    H148452   6.831   2.976   2.096  1.3632 -0.0624 -1.7915
 8987TIP3    H248453   6.888   2.845   2.046 -0.5043 -1.4192 -0.5009
 8988TIP3   OH248454   0.253   0.869  10.856  0.0557 -0.1225 -0.1674
 8988TIP3    H148455   0.165   0.891  10.887  0.7982  1.8615  0.6983
 8988TIP3    H248456   0.244   0.863  10.761 -1.3344 -1.6882  0.0176
 8989TIP3   OH248457   2.605   2.054   0.392  0.1644  0.1269  0.6891
 8989TIP3    H148458   2.543   1.984   0.371  0.9475 -0.2718 -0.3546
 8989TIP3    H248459   2.657   2.065   0.312  2.4314 -0.5737  1.9780
 8990TIP3   OH248460   5.482   1.532  11.825  0.6537  0.4221 -0.2630
 8990TIP3    H148461   5.413   1.507  11.886  1.6342  0.8418  1.0786
 8990TIP3    H248462   5.502   1.452  11.777 -1.0290  0.3989 -0.9827
 8991TIP3   OH248463   0.091   1.139  15.505 -0.2161 -0.4135 -0.2701
 8991TIP3    H148464   0.184   1.150  15.521 -0.7473  0.6847  2.5548
 8991TIP3    H248465   0.069   1.205  15.440  0.6898  0.4621  0.2948
 8992TIP3   OH248466   3.801   1.499  12.292 -0.1237 -0.2658 -0.2178
 8992TIP3    H148467   3.828   1.407  12.285 -0.0054 -0.1961 -0.6807
 8992TIP3    H248468   3.761   1.505  12.379 -0.0304 -0.7291 -0.1393
 8993TIP3   OH248469   5.920   2.882   4.943 -0.0725 -0.1775 -0.3686
 8993TIP3    H148470   5.853   2.835   4.993  0.4419 -0.4016  0.1227
 8993TIP3    H248471   5.977   2.814   4.908  0.6152  0.0541  0.2541
 8994TIP3   OH248472   2.485   6.466   3.982  0.6848 -0.4170  0.8262
 8994TIP3    H148473   2.543   6.391   3.967 -0.1277 -0.7545 -0.8412
 8994TIP3    H248474   2.465   6.498   3.894 -0.7249  0.4214  1.4291
 8995TIP3   OH248475   6.145   0.862  13.491  0.4126 -0.3234  0.2848
 8995TIP3    H148476   6.089   0.856  13.568  0.8495 -0.7742  0.5749
 8995TIP3    H248477   6.175   0.773  13.476  2.0130  0.0850  0.8636
 8996TIP3   OH248478   6.402   2.785  16.650  0.6235  0.2528 -1.0310
 8996TIP3    H148479   6.374   2.861  16.701 -1.1458 -1.4017  0.6515
 8996TIP3    H248480   6.482   2.814  16.605  1.8866  2.1223  2.0843
 8997TIP3   OH248481   3.233   6.778  15.218  0.4703  0.7708 -0.1943
 8997TIP3    H148482   3.305   6.748  15.163  0.9972 -1.8191  1.7629
 8997TIP3    H248483   3.163   6.715  15.203 -0.7386  2.1249 -0.5452
 8998TIP3   OH248484   0.891   1.316  14.565 -0.4332 -0.0139 -0.8747
 8998TIP3    H148485   0.877   1.410  14.556  0.1695  0.6299  2.9789
 8998TIP3    H248486   0.813   1.284  14.610  0.1752 -0.9750 -0.4587
 8999TIP3   OH248487   4.632   4.178  14.690 -0.3641  0.0961  0.1961
 8999TIP3    H148488   4.711   4.231  14.677  0.4018 -0.7741  1.2083
 8999TIP3    H248489   4.589   4.178  14.604  0.1825  1.4336 -0.1016
 9000TIP3   OH248490   3.424   3.146   6.026 -0.0081  0.3823 -0.0983
 9000TIP3    H148491   3.364   3.221   6.018 -0.0971  0.1798 -1.5229
 9000TIP3    H248492   3.366   3.070   6.035  0.0823  0.4687  1.3399
 9001TIP3   OH248493   4.175   1.507  11.621  0.6071 -0.2812 -0.5003
 9001TIP3    H148494   4.151   1.489  11.530 -1.6333 -1.3320  0.2524
 9001TIP3    H248495   4.146   1.431  11.670 -4.3475  2.7347  2.0602
 9002TIP3   OH248496   5.511   3.318   0.682 -0.3483  0.1247 -0.6802
 9002TIP3    H148497   5.501   3.405   0.645  0.8710  0.7075  0.2989
 9002TIP3    H248498   5.595   3.287   0.649 -1.2686 -1.1746 -1.9305
 9003TIP3   OH248499   0.431   5.689  17.045 -0.4025  0.0187  0.1575
 9003TIP3    H148500   0.411   5.658  17.134  0.0387 -2.0826 -0.4362
 9003TIP3    H248501   0.435   5.610  16.992 -1.9064  1.2953 -2.0351
 9004TIP3   OH248502   3.257   5.949  10.631 -0.1590  0.2517  0.2174
 9004TIP3    H148503   3.258   5.854  10.621 -0.3265  0.4333 -1.8828
 9004TIP3    H248504   3.283   5.983  10.546 -2.1187  2.1298  0.2777
 9005TIP3   OH248505   3.188   5.420  11.788  0.0869  0.3003  0.0325
 9005TIP3    H148506   3.179   5.344  11.845  0.0913  2.2913  2.8772
 9005TIP3    H248507   3.101   5.431  11.749 -0.2276 -0.4406  0.4986
 9006TIP3   OH248508   6.622   2.867  14.693 -0.2336 -0.5532 -0.0101
 9006TIP3    H148509   6.572   2.786  14.684 -2.1880  0.5377  0.4852
 9006TIP3    H248510   6.628   2.880  14.788 -1.8679  0.9581 -0.0657
 9007TIP3   OH248511   2.853   2.788  13.126 -0.0158  0.1867 -0.3844
 9007TIP3    H148512   2.876   2.846  13.199 -2.6863  0.1955  0.5765
 9007TIP3    H248513   2.866   2.700  13.161  0.2706  0.1937 -0.4714
 9008TIP3   OH248514   5.610   5.841   1.577 -0.4582 -0.1019  0.2588
 9008TIP3    H148515   5.700   5.874   1.571 -1.0758  1.5273 -0.6889
 9008TIP3    H248516   5.556   5.917   1.557 -2.1076 -0.7399  2.0411
 9009TIP3   OH248517   0.524   1.568   4.269  0.1279  0.0146 -0.4164
 9009TIP3    H148518   0.584   1.510   4.222 -0.9598 -2.1613  0.6957
 9009TIP3    H248519   0.482   1.511   4.334 -2.4493  1.6132 -0.5213
 9010TIP3   OH248520   1.996   6.416  17.196  0.1564 -0.0958  0.1080
 9010TIP3    H148521   2.059   6.431  17.125  0.6483 -2.4212 -0.0246
 9010TIP3    H248522   1.947   6.339  17.169 -0.4674 -0.3172  1.7484
 9011TIP3   OH248523   6.269   3.585   5.796  0.2456 -0.4582  0.6158
 9011TIP3    H148524   6.187   3.627   5.820  0.3032  0.2308 -0.3268
 9011TIP3    H248525   6.250   3.540   5.714  1.2220  1.1793 -0.5678
 9012TIP3   OH248526   6.352   0.499  16.477 -0.0194 -0.6825  0.3162
 9012TIP3    H148527   6.325   0.457  16.559  0.9228 -0.9990  0.4755
 9012TIP3    H248528   6.363   0.591  16.500 -0.2670 -0.6742  0.4131
 9013TIP3   OH248529   1.755   6.229   1.945 -0.0589 -0.5877  0.0630
 9013TIP3    H148530   1.720   6.149   1.906  0.9659 -2.0836  2.0139
 9013TIP3    H248531   1.707   6.238   2.027  0.7330  0.0563  0.4669
 9014TIP3   OH248532   1.918   1.724  15.778  0.3165  0.8598 -0.2601
 9014TIP3    H148533   1.871   1.749  15.698 -0.2346  1.9853  0.3995
 9014TIP3    H248534   2.008   1.750  15.761  0.5711 -0.4828 -1.1719
 9015TIP3   OH248535   3.528   5.286   2.486  0.4462 -0.3173 -0.7990
 9015TIP3    H148536   3.623   5.274   2.488  0.6253  1.0017  0.3948
 9015TIP3    H248537   3.511   5.328   2.402  1.1806  1.0905 -0.2749
 9016TIP3   OH248538   5.932   5.114  12.796  0.4431 -0.1772 -0.3706
 9016TIP3    H148539   5.992   5.177  12.836  1.0936 -0.9624 -0.1057
 9016TIP3    H248540   5.845   5.152  12.810  0.6530 -0.3526  1.6858
 9017TIP3   OH248541   5.104   0.460  15.378 -0.6971  0.4186  0.2070
 9017TIP3    H148542   5.126   0.389  15.318  0.8826  1.6174 -0.7110
 9017TIP3    H248543   5.156   0.444  15.456 -2.1328 -0.6879  0.9856
 9018TIP3   OH248544   4.632   3.421  15.347  0.2591  0.3296 -0.8538
 9018TIP3    H148545   4.540   3.416  15.322  0.1922  0.4808 -0.6366
 9018TIP3    H248546   4.650   3.514  15.354 -0.1984  0.3156  1.3758
 9019TIP3   OH248547   4.040   6.198   1.365 -0.1543  0.4135 -0.4215
 9019TIP3    H148548   4.044   6.103   1.352 -0.5032  0.0095  1.8790
 9019TIP3    H248549   3.949   6.214   1.389  0.3659  0.9581  1.3276
 9020TIP3   OH248550   3.667   2.754  14.870 -0.5775 -0.3950 -0.2167
 9020TIP3    H148551   3.704   2.825  14.923 -1.2220 -0.8459  0.8525
 9020TIP3    H248552   3.670   2.789  14.780  2.0724 -0.2592 -0.1801
 9021TIP3   OH248553   6.720   0.840  16.147 -0.1695  0.9656 -0.6084
 9021TIP3    H148554   6.685   0.762  16.104  0.6450 -0.4935  1.2030
 9021TIP3    H248555   6.802   0.858  16.101  0.5737 -0.4287  0.1061
 9022TIP3   OH248556   1.012   0.476  11.525  0.4347  0.2833 -0.1036
 9022TIP3    H148557   0.916   0.472  11.530  0.4752 -0.3010  0.3162
 9022TIP3    H248558   1.030   0.505  11.436 -0.1074 -1.1167 -0.7052
 9023TIP3   OH248559   2.854   2.007   1.774  0.2531 -0.9029 -0.0455
 9023TIP3    H148560   2.844   1.959   1.856 -1.5113 -0.5391 -0.0078
 9023TIP3    H248561   2.864   2.099   1.801  0.2843 -0.8551 -0.2176
 9024TIP3   OH248562   1.156   3.326  12.999  0.3009  0.1186 -0.2025
 9024TIP3    H148563   1.061   3.318  12.994  0.2873 -1.0799  1.1946
 9024TIP3    H248564   1.188   3.242  12.966  0.9171  0.6578 -1.0311
 9025TIP3   OH248565   6.366   2.511   3.422  0.2028  0.0272  0.1567
 9025TIP3    H148566   6.288   2.558   3.450 -1.3619 -1.8424 -0.8105
 9025TIP3    H248567   6.389   2.552   3.338 -1.2233 -0.9097 -0.7428
 9026TIP3   OH248568   1.028   1.712  14.681  0.1030 -0.1275 -0.3329
 9026TIP3    H148569   1.018   1.728  14.775  1.3989 -1.9173  0.1716
 9026TIP3    H248570   1.115   1.748  14.660  0.5132 -1.1650 -0.4631
 9027TIP3   OH248571   3.180   3.487   1.348  0.2854 -0.4898  0.2844
 9027TIP3    H148572   3.164   3.571   1.390  0.0165 -1.4066  2.1220
 9027TIP3    H248573   3.115   3.428   1.386  0.5253 -1.5606 -0.8809
 9028TIP3   OH248574   5.599   5.632  15.771 -0.1400  0.3966 -0.3067
 9028TIP3    H148575   5.651   5.658  15.696 -0.9231 -3.2299 -2.3031
 9028TIP3    H248576   5.653   5.655  15.847  3.1042 -0.6199 -2.1476
 9029TIP3   OH248577   1.733   4.954   3.553 -0.2499  0.2876  0.1878
 9029TIP3    H148578   1.674   4.949   3.478  0.8023 -0.0162 -0.6335
 9029TIP3    H248579   1.796   5.021   3.529  0.1049  0.1788  0.8059
 9030TIP3   OH248580   5.871   0.013  13.528 -0.0296  0.1135  0.7209
 9030TIP3    H148581   5.796   0.067  13.506  0.7711  1.1152  0.3743
 9030TIP3    H248582   5.880  -0.048  13.454 -0.7202 -0.2824  0.9501
 9031TIP3   OH248583   1.870   3.367  16.444 -0.1906  0.0101 -0.2006
 9031TIP3    H148584   1.807   3.389  16.376  0.7739 -0.0594 -1.1556
 9031TIP3    H248585   1.905   3.282  16.417  1.5431  0.8193 -0.6497
 9032TIP3   OH248586   4.250   6.214   4.046 -0.1335 -0.2295  0.1848
 9032TIP3    H148587   4.216   6.142   3.994  0.5571 -0.4273 -0.0051
 9032TIP3    H248588   4.342   6.221   4.021 -0.4700  1.5552 -0.7546
 9033TIP3   OH248589   2.717   0.934  11.168 -0.4628  0.3560  0.0165
 9033TIP3    H148590   2.808   0.911  11.186  0.0659  1.3817 -1.1851
 9033TIP3    H248591   2.683   0.859  11.119  0.6099  1.1088 -2.0068
 9034TIP3   OH248592   2.630   3.642  11.472  0.4688  0.4392 -0.3826
 9034TIP3    H148593   2.570   3.705  11.511  0.0076  0.5326 -1.2063
 9034TIP3    H248594   2.669   3.596  11.546  0.4067  1.3253  0.2069
 9035TIP3   OH248595   5.048   0.277  13.361  0.4288 -0.0796 -0.3307
 9035TIP3    H148596   5.068   0.205  13.420 -1.7330 -1.3016 -0.9925
 9035TIP3    H248597   5.079   0.247  13.275  0.2589  0.1217 -0.4635
 9036TIP3   OH248598   2.343   2.916  16.076  0.1455  0.0626  0.1880
 9036TIP3    H148599   2.357   3.010  16.086 -0.1110  0.0106  1.1447
 9036TIP3    H248600   2.425   2.883  16.038 -0.2282  0.8392 -1.3416
 9037TIP3   OH248601   1.885   6.654  13.667 -0.3406  1.0418  0.2199
 9037TIP3    H148602   1.866   6.570  13.625 -0.7961  1.8420 -1.2680
 9037TIP3    H248603   1.923   6.631  13.751  0.5914 -0.6640 -0.6170
 9038TIP3   OH248604   4.207   4.227  16.950 -0.2190  0.4627  0.1975
 9038TIP3    H148605   4.133   4.176  16.980  0.5908 -0.4618  0.6624
 9038TIP3    H248606   4.181   4.260  16.864 -0.8122 -0.6068 -0.0375
 9039TIP3   OH248607   2.872   6.478   2.391  0.2383  0.1374 -0.1533
 9039TIP3    H148608   2.789   6.489   2.343  0.7898  0.4168 -1.0633
 9039TIP3    H248609   2.915   6.404   2.349 -0.2720 -1.1030  1.3998
 9040TIP3   OH248610   6.001   2.397   5.533 -0.5160  0.1941  0.1169
 9040TIP3    H148611   6.075   2.384   5.592  0.7749 -1.2944 -1.7179
 9040TIP3    H248612   6.029   2.359   5.450 -2.1690  2.3539 -1.5541
 9041TIP3   OH248613   2.474   5.880  12.037  0.2478 -0.8949 -0.3582
 9041TIP3    H148614   2.471   5.972  12.013  3.7243 -0.4839  0.1976
 9041TIP3    H248615   2.427   5.874  12.120  1.9750  0.9376  0.8375
 9042TIP3   OH248616   2.880   6.669  17.171  0.0420  0.1144  0.0510
 9042TIP3    H148617   2.928   6.638  17.248 -1.4981  0.4153  1.1838
 9042TIP3    H248618   2.948   6.701  17.112  1.3405 -1.1103  0.8117
 9043TIP3   OH248619   6.313   5.448  16.778 -0.0099 -0.2063 -0.5178
 9043TIP3    H148620   6.262   5.529  16.765 -1.6209 -0.6807  2.0346
 9043TIP3    H248621   6.266   5.402  16.848  2.4919 -1.9915  0.1124
 9044TIP3   OH248622   4.701   1.640  15.842  0.3783  0.0020  0.1063
 9044TIP3    H148623   4.761   1.714  15.854  0.3239  0.0788 -0.0852
 9044TIP3    H248624   4.652   1.636  15.924 -1.1200  1.5452 -0.6421
 9045TIP3   OH248625   1.677   4.241   2.229  0.5594 -0.1154  0.5515
 9045TIP3    H148626   1.678   4.152   2.264  1.6131 -0.5060 -0.4314
 9045TIP3    H248627   1.611   4.238   2.160  1.6301 -0.5464 -0.4759
 9046TIP3   OH248628   5.347   1.660   4.283 -0.7332 -0.2106 -0.2542
 9046TIP3    H148629   5.279   1.632   4.344  0.0131 -0.3925  0.5130
 9046TIP3    H248630   5.341   1.756   4.283  2.7556  0.3869  4.4755
 9047TIP3   OH248631   1.449   2.468   4.043 -0.1262  0.2737  0.1188
 9047TIP3    H148632   1.522   2.438   3.989 -0.1819 -0.8114  0.6340
 9047TIP3    H248633   1.384   2.398   4.039 -0.8773  0.9401  0.1939
 9048TIP3   OH248634   3.291   5.850   1.127 -0.2688  0.2484  0.4765
 9048TIP3    H148635   3.209   5.838   1.174 -0.4636  1.4832  0.4979
 9048TIP3    H248636   3.296   5.945   1.111  0.4593  0.0261 -0.7815
 9049TIP3   OH248637   5.386   6.289   2.631 -0.0247  0.1990  0.4090
 9049TIP3    H148638   5.412   6.220   2.570 -0.2575 -1.0387  1.6676
 9049TIP3    H248639   5.466   6.311   2.678 -0.0077  0.6024  0.1925
 9050TIP3   OH248640   1.577   3.083  13.371  0.7174 -0.0923  0.1310
 9050TIP3    H148641   1.614   2.997  13.354  0.6840  0.2586 -1.8811
 9050TIP3    H248642   1.648   3.133  13.412  0.2133 -1.5344  3.0709
 9051TIP3   OH248643   6.272   1.208  15.863 -0.0163 -0.0386  0.2182
 9051TIP3    H148644   6.223   1.164  15.794 -0.6029  0.3266  0.3954
 9051TIP3    H248645   6.251   1.159  15.943  1.3565 -1.0129  0.0234
 9052TIP3   OH248646   5.928   3.367   1.235  0.2661  0.4964  0.2459
 9052TIP3    H148647   5.843   3.365   1.190  0.2287  1.0463  0.2879
 9052TIP3    H248648   5.913   3.419   1.314  0.7783  1.1119 -0.0454
 9053TIP3   OH248649   4.969   6.445  15.714 -0.2920 -0.5006  0.2663
 9053TIP3    H148650   4.922   6.373  15.672 -1.9752  0.2923  0.7275
 9053TIP3    H248651   4.929   6.454  15.800 -2.0668  2.6673 -0.6940
 9054TIP3   OH248652   1.992   6.510   5.689 -0.7437  0.2707 -0.6495
 9054TIP3    H148653   1.959   6.564   5.762  0.6851 -0.2982  0.4756
 9054TIP3    H248654   1.934   6.435   5.687 -1.5157  0.8672 -0.8808
 9055TIP3   OH248655   4.387   0.668  14.630 -0.1189 -0.2622 -0.1897
 9055TIP3    H148656   4.474   0.684  14.595 -0.2218  1.6980  0.3412
 9055TIP3    H248657   4.402   0.636  14.719  0.0525 -0.8796 -0.4328
 9056TIP3   OH248658   4.020   5.121  16.365  0.1758 -0.9898  0.1208
 9056TIP3    H148659   3.928   5.097  16.361 -0.5203  1.1386  1.3222
 9056TIP3    H248660   4.049   5.126  16.274 -1.3317 -0.2235 -0.3363
 9057TIP3   OH248661   5.543   1.073   6.050  0.3475 -0.1138  0.7422
 9057TIP3    H148662   5.484   1.099   5.980  1.9258 -0.1765 -0.6650
 9057TIP3    H248663   5.485   1.052   6.124 -1.4916 -1.5583 -0.9892
 9058TIP3   OH248664   6.434   3.634   3.866 -0.2071  0.4211  0.2261
 9058TIP3    H148665   6.361   3.594   3.819  0.2952  1.9153 -1.9728
 9058TIP3    H248666   6.485   3.560   3.899 -0.8304 -0.6936 -1.2413
 9059TIP3   OH248667   5.685   0.253   1.252  0.5792 -0.1618 -0.3710
 9059TIP3    H148668   5.627   0.237   1.327  0.7059  0.0209 -0.2320
 9059TIP3    H248669   5.681   0.172   1.201  0.0330 -0.0698 -0.4820
 9060TIP3   OH248670   6.118   5.282   0.598 -0.1440 -0.1058 -0.0440
 9060TIP3    H148671   6.023   5.267   0.598 -0.3336  0.9723  1.0845
 9060TIP3    H248672   6.128   5.364   0.549 -0.0056  0.8491  1.5400
 9061TIP3   OH248673   3.410   6.257  12.379 -0.2940  0.3186  0.0344
 9061TIP3    H148674   3.371   6.171  12.365  0.4008  0.0843 -0.5247
 9061TIP3    H248675   3.347   6.319  12.342 -0.7825  0.0503  0.4161
 9062TIP3   OH248676   4.990   3.089  11.955 -0.1130  0.5692  0.2778
 9062TIP3    H148677   4.916   3.029  11.959 -0.4917  1.0102 -0.0584
 9062TIP3    H248678   5.019   3.098  12.046 -0.9980  1.0422  0.5229
 9063TIP3   OH248679   1.550   3.071  15.115 -0.2940 -0.1723 -0.2348
 9063TIP3    H148680   1.502   3.006  15.064 -1.5535  0.2821  0.3262
 9063TIP3    H248681   1.585   3.132  15.051 -1.0851 -0.1069 -0.6021
 9064TIP3   OH248682   3.595   6.392   5.836  0.2285 -0.1790  0.3526
 9064TIP3    H148683   3.601   6.429   5.748  0.7445  0.9611  0.8475
 9064TIP3    H248684   3.679   6.413   5.877  2.3327 -5.2781 -0.5670
 9065TIP3   OH248685   3.638   3.274  14.760  0.5391 -0.3587 -0.3117
 9065TIP3    H148686   3.545   3.290  14.744  0.7738  0.3554 -1.0271
 9065TIP3    H248687   3.661   3.335  14.830  0.7262  0.2742 -0.9199
 9066TIP3   OH248688   6.440   3.080  12.862  0.2296  0.0785  0.3142
 9066TIP3    H148689   6.463   3.160  12.816  0.2710 -0.3681 -0.4564
 9066TIP3    H248690   6.438   3.012  12.794 -1.0554 -0.3379  0.7411
 9067TIP3   OH248691   4.259   4.476  14.160 -0.4911 -0.1789  0.1211
 9067TIP3    H148692   4.289   4.416  14.229  3.4678 -0.4785 -1.5928
 9067TIP3    H248693   4.233   4.555  14.208  2.3350 -0.2704  2.1070
 9068TIP3   OH248694   6.744   0.721  14.467  0.1319  0.6347  0.3297
 9068TIP3    H148695   6.695   0.716  14.385 -1.2471 -0.6426  1.1709
 9068TIP3    H248696   6.796   0.641  14.468 -0.0526  0.5128  0.7870
 9069TIP3   OH248697   2.630   1.175  11.283  0.4196  0.0106 -0.0806
 9069TIP3    H148698   2.593   1.111  11.222  0.1086  2.5318 -2.7744
 9069TIP3    H248699   2.724   1.174  11.266  0.2366  1.3488 -1.3754
 9070TIP3   OH248700   1.368   2.707   0.835  0.0317 -0.6158 -0.1497
 9070TIP3    H148701   1.389   2.740   0.922  2.8542 -2.2530 -0.0747
 9070TIP3    H248702   1.372   2.784   0.778  0.8578  0.0586  0.7868
 9071TIP3   OH248703   2.932   5.556  12.902  0.8707  0.0423  0.3546
 9071TIP3    H148704   2.966   5.477  12.945  0.5257 -0.2283  0.1421
 9071TIP3    H248705   2.897   5.524  12.819  0.2480  0.3360  0.4977
 9072TIP3   OH248706   5.380   5.237   5.046 -0.4233  0.7030  0.0987
 9072TIP3    H148707   5.449   5.191   4.998  0.3933  1.5879  0.3899
 9072TIP3    H248708   5.359   5.178   5.120 -0.3878  0.1757 -0.3043
 9073TIP3   OH248709   1.167   3.562  16.970  0.3139  0.3995  0.6980
 9073TIP3    H148710   1.257   3.549  16.940  0.3845 -0.2103  1.1573
 9073TIP3    H248711   1.114   3.564  16.890  0.5199 -1.0185  0.5044
 9074TIP3   OH248712   1.353   4.346  11.280 -0.4272 -0.0751 -0.3362
 9074TIP3    H148713   1.446   4.353  11.301 -0.5442 -1.8682  1.0041
 9074TIP3    H248714   1.351   4.318  11.188  0.3489 -0.0463 -0.3663
 9075TIP3   OH248715   3.084   4.913  16.806  0.5373  0.1696  0.5924
 9075TIP3    H148716   3.025   4.881  16.737  1.5128  2.7337 -1.6073
 9075TIP3    H248717   3.027   4.960  16.867 -0.0313  0.3615 -0.0769
 9076TIP3   OH248718   6.147   1.548   5.703 -0.3351  0.0658 -0.8168
 9076TIP3    H148719   6.155   1.454   5.717 -3.0623 -0.2481 -0.8038
 9076TIP3    H248720   6.120   1.557   5.612 -4.6839  0.3074  0.2395
 9077TIP3   OH248721   1.183   5.898   6.011 -0.2502 -0.1134 -0.0654
 9077TIP3    H148722   1.101   5.948   6.010 -0.3519  0.0105  3.3784
 9077TIP3    H248723   1.245   5.955   6.057  1.3345 -0.8713 -1.1908
 9078TIP3   OH248724   3.711   3.836  16.470  0.5140 -0.6113  0.3321
 9078TIP3    H148725   3.779   3.854  16.536 -0.1768  1.3268  0.5940
 9078TIP3    H248726   3.635   3.811  16.522  0.1362  0.3536  0.2690
 9079TIP3   OH248727   6.612   5.199  13.466  0.3580 -0.1106 -0.1935
 9079TIP3    H148728   6.686   5.259  13.457  0.5740 -0.5141 -1.2714
 9079TIP3    H248729   6.537   5.247  13.431  0.5534 -0.4977 -1.1619
 9080TIP3   OH248730   3.924   2.131  13.782  0.1590 -0.1970 -0.2348
 9080TIP3    H148731   3.967   2.131  13.697 -0.2123  1.2700 -0.4607
 9080TIP3    H248732   3.994   2.111  13.844  0.3926 -1.4599 -0.8853
 9081TIP3   OH248733   6.770   3.159   4.365 -0.4645 -0.4467  0.5312
 9081TIP3    H148734   6.775   3.141   4.459 -0.4049 -1.6339  0.3129
 9081TIP3    H248735   6.762   3.073   4.324 -0.3210  0.0430 -0.5701
 9082TIP3   OH248736   2.739   6.709  15.586  0.0336 -0.1645  0.2747
 9082TIP3    H148737   2.827   6.745  15.569 -0.7741  0.9933 -1.9780
 9082TIP3    H248738   2.704   6.765  15.655  0.6436  0.1137  0.3711
 9083TIP3   OH248739   0.143   0.658   5.433  0.2415  0.2392  0.2929
 9083TIP3    H148740   0.195   0.661   5.513  0.2821  0.4085  0.2622
 9083TIP3    H248741   0.171   0.735   5.384  0.0535  0.2607  0.2179
 9084TIP3   OH248742   5.460   3.100  12.903  0.1732  0.2500  0.4039
 9084TIP3    H148743   5.440   3.045  12.827  0.2905  0.4569  0.2194
 9084TIP3    H248744   5.452   3.042  12.978 -0.8052  0.2547  0.3073
 9085TIP3   OH248745   3.220   1.624   5.055 -0.5193  0.3268 -0.2774
 9085TIP3    H148746   3.155   1.558   5.032 -0.1285 -0.1016 -0.1801
 9085TIP3    H248747   3.294   1.606   4.997 -0.0699  0.1138  0.3502
 9086TIP3   OH248748   3.813   3.483   2.772 -0.5700 -0.1900  1.3288
 9086TIP3    H148749   3.785   3.539   2.700  0.6088 -1.3636 -0.0926
 9086TIP3    H248750   3.755   3.507   2.844 -1.0813  1.7859  0.3436
 9087TIP3   OH248751   4.618   6.410  12.263  0.0582  0.3508  0.5042
 9087TIP3    H148752   4.537   6.358  12.266  0.1104  0.2995  2.4833
 9087TIP3    H248753   4.663   6.380  12.184 -1.7773  0.2796 -0.5537
 9088TIP3   OH248754   3.666   4.996   1.279 -0.0376 -0.3355 -0.7356
 9088TIP3    H148755   3.753   4.960   1.261 -0.2315 -0.9141 -0.5395
 9088TIP3    H248756   3.625   4.931   1.336 -0.7974 -0.3361 -1.2632
 9089TIP3   OH248757   0.278   3.500  11.356  0.5180  0.7129  0.2008
 9089TIP3    H148758   0.244   3.461  11.437  0.0502  0.6530 -0.0236
 9089TIP3    H248759   0.209   3.485  11.292  0.0505  2.4514  0.2559
 9090TIP3   OH248760   1.350   5.100  11.540 -0.1436 -0.3198  0.5785
 9090TIP3    H148761   1.372   5.032  11.476  0.9883  0.1231  0.4716
 9090TIP3    H248762   1.281   5.061  11.594 -1.4186 -0.5555 -1.1366
 9091TIP3   OH248763   4.446   3.841  15.906 -0.4008 -0.2075 -0.5088
 9091TIP3    H148764   4.372   3.841  15.966  0.4975  1.2136  0.6674
 9091TIP3    H248765   4.523   3.839  15.962  0.4706  1.1726 -1.5699
 9092TIP3   OH248766   1.382   4.063  12.282 -0.2508 -0.1363 -0.2124
 9092TIP3    H148767   1.404   4.073  12.375 -2.3362 -0.4658  0.3791
 9092TIP3    H248768   1.352   4.149  12.255 -1.4763 -0.4846 -0.0182
 9093TIP3   OH248769   3.956   2.581   4.106  0.4248  0.2558  0.0318
 9093TIP3    H148770   3.900   2.597   4.030  1.3049 -0.6154 -0.8191
 9093TIP3    H248771   3.914   2.509   4.153  1.6404 -1.5437 -1.5074
 9094TIP3   OH248772   2.742   3.677   0.648  0.0637 -0.0707 -0.3854
 9094TIP3    H148773   2.778   3.590   0.664  0.0447  0.1284  0.8111
 9094TIP3    H248774   2.804   3.718   0.588  1.1603 -0.2036  0.6309
 9095TIP3   OH248775   2.513   2.617   3.074 -0.5525  0.0507  0.1363
 9095TIP3    H148776   2.466   2.537   3.051  0.2672  0.2618 -2.7378
 9095TIP3    H248777   2.604   2.598   3.051 -0.4967  2.0708 -1.7024
 9096TIP3   OH248778   3.987   2.136   5.097 -0.3642  0.3663 -0.4000
 9096TIP3    H148779   3.914   2.157   5.156  0.6306 -0.6255  1.2789
 9096TIP3    H248780   4.055   2.200   5.119  0.6576 -1.0524  0.8597
 9097TIP3   OH248781   2.939   4.510   1.907 -0.1730 -0.1677  0.5377
 9097TIP3    H148782   3.015   4.492   1.962  0.7393  1.0265 -0.2584
 9097TIP3    H248783   2.964   4.480   1.820 -0.2493  1.0017  0.0839
 9098TIP3   OH248784   1.394   0.660  12.102 -0.1614  0.1014 -0.2954
 9098TIP3    H148785   1.408   0.674  12.008 -1.6123  0.2968 -0.5066
 9098TIP3    H248786   1.335   0.585  12.107  0.6089 -0.4606  0.5047
 9099TIP3   OH248787   5.507   1.192  10.425  0.3331  0.1514  0.6240
 9099TIP3    H148788   5.462   1.238  10.496  2.1507  0.6188  1.5223
 9099TIP3    H248789   5.560   1.259  10.382  0.8573 -0.5504  0.1482
 9100TIP3   OH248790   1.033   2.778   5.529  0.2786  0.2334  0.0157
 9100TIP3    H148791   1.101   2.839   5.558 -1.9939  2.1046  1.7267
 9100TIP3    H248792   1.064   2.692   5.558  1.6576  1.1001  1.2601
 9101TIP3   OH248793   0.769   4.241  15.163 -0.8907  0.3150 -0.6642
 9101TIP3    H148794   0.735   4.152  15.170 -0.3725  0.1110 -0.7579
 9101TIP3    H248795   0.736   4.285  15.242  1.8846 -0.9606  1.3647
 9102TIP3   OH248796   2.275   1.321  12.430 -0.2743 -0.1036  0.1618
 9102TIP3    H148797   2.349   1.259  12.433  0.3137  0.5334 -0.8171
 9102TIP3    H248798   2.202   1.272  12.469  0.2196 -1.3661 -0.4302
 9103TIP3   OH248799   2.552   3.661   6.563 -0.5299 -0.0326  0.0618
 9103TIP3    H148800   2.637   3.682   6.524 -0.6240  0.0994 -0.0717
 9103TIP3    H248801   2.492   3.728   6.529 -0.9042 -0.7166 -0.6350
 9104TIP3   OH248802   0.330   4.238  11.208 -0.1059  0.1053  0.1329
 9104TIP3    H148803   0.263   4.231  11.276 -1.7704  0.6086 -1.3798
 9104TIP3    H248804   0.402   4.183  11.239 -1.6844 -1.4207  1.2969
 9105TIP3   OH248805   3.185   3.492   1.042  0.0239  0.2869  0.0465
 9105TIP3    H148806   3.203   3.483   1.136  1.5512  1.4136 -0.1084
 9105TIP3    H248807   3.104   3.544   1.038 -0.4310 -0.3484  0.7260
 9106TIP3   OH248808   6.368   3.428  15.059 -0.2440  0.3890 -0.3692
 9106TIP3    H148809   6.376   3.485  15.136 -2.1516 -0.5697  0.6300
 9106TIP3    H248810   6.436   3.362  15.070 -0.5830  0.1883  0.5770
 9107TIP3   OH248811   0.328   5.457  11.861 -0.4271  0.1316 -0.2436
 9107TIP3    H148812   0.278   5.379  11.835 -1.6785  0.5539  0.7912
 9107TIP3    H248813   0.406   5.422  11.904  0.5975 -0.5542 -2.4900
 9108TIP3   OH248814   1.537   0.940  15.810  0.1581 -0.2166  0.4631
 9108TIP3    H148815   1.476   0.957  15.738 -1.2740  1.1856  1.9352
 9108TIP3    H248816   1.617   0.986  15.785 -0.2003 -0.0387 -0.3970
 9109TIP3   OH248817   5.071   2.292   0.735  0.3006  0.4353  0.4682
 9109TIP3    H148818   5.127   2.293   0.813 -0.2389 -1.9631  0.9474
 9109TIP3    H248819   5.089   2.209   0.693 -2.5527 -0.2765  0.4216
 9110TIP3   OH248820   3.426   2.069   5.690  0.2875 -0.0872  0.0438
 9110TIP3    H148821   3.451   2.072   5.783  0.0555 -0.6124  0.1279
 9110TIP3    H248822   3.490   2.125   5.646  1.0119 -0.6367  0.3866
 9111TIP3   OH248823   5.117   2.575  13.523 -0.0766 -0.1225 -0.1541
 9111TIP3    H148824   5.080   2.547  13.439  0.7211  0.4586 -0.7238
 9111TIP3    H248825   5.045   2.622  13.566 -0.6712 -0.9319 -0.2486
 9112TIP3   OH248826   2.298   0.018  11.762 -0.5648 -0.2552  0.0551
 9112TIP3    H148827   2.301  -0.076  11.781 -0.1187 -0.3607 -0.4997
 9112TIP3    H248828   2.270   0.058  11.844 -2.7225 -1.0246 -0.2452
 9113TIP3   OH248829   2.450   2.919  14.273 -0.0042  0.0128  0.1961
 9113TIP3    H148830   2.451   2.874  14.188 -0.4480  0.7119 -0.1844
 9113TIP3    H248831   2.418   3.007  14.254 -1.7127 -0.3190  1.3231
 9114TIP3   OH248832   3.440   2.726  12.414 -0.2915  0.3627  0.0065
 9114TIP3    H148833   3.385   2.677  12.475  0.6509 -0.0720  0.5381
 9114TIP3    H248834   3.450   2.812  12.455 -0.4458  0.3839 -0.0030
 9115TIP3   OH248835   3.467   0.877  11.552  0.0712  0.2464  0.2756
 9115TIP3    H148836   3.493   0.959  11.509 -0.4558  0.1103 -0.3000
 9115TIP3    H248837   3.373   0.870  11.536  0.1452 -0.5672  0.1650
 9116TIP3   OH248838   6.530   6.017  12.383 -0.4162  0.1522 -0.0859
 9116TIP3    H148839   6.498   5.952  12.446  0.2159 -0.3798 -0.2882
 9116TIP3    H248840   6.624   5.999  12.377 -0.4477  0.2485 -1.1062
 9117TIP3   OH248841   0.230   0.765   3.871 -0.2732  0.1940 -0.1714
 9117TIP3    H148842   0.219   0.687   3.924  1.9934  0.0841  0.2468
 9117TIP3    H248843   0.310   0.749   3.821  0.1020  2.1151 -0.2632
 9118TIP3   OH248844   5.709   3.330   2.787  0.2694  0.0514 -0.2537
 9118TIP3    H148845   5.638   3.356   2.729  1.8888  0.4666 -2.1729
 9118TIP3    H248846   5.782   3.386   2.762  1.7814 -1.5081  0.4493
 9119TIP3   OH248847   4.338   4.976  15.746  0.4310 -0.2003 -0.0646
 9119TIP3    H148848   4.363   4.913  15.678 -1.0301 -1.7201  0.7464
 9119TIP3    H248849   4.421   5.010  15.779  1.2023 -0.3736 -1.7277
 9120TIP3   OH248850   3.068   6.587  11.431  0.3618  0.2230 -0.1382
 9120TIP3    H148851   3.146   6.563  11.480  0.0800 -0.0951  0.1666
 9120TIP3    H248852   3.100   6.609  11.343  0.8072  0.2598  0.0312
 9121TIP3   OH248853   6.330   0.606  16.200 -0.0849 -0.1353  0.2604
 9121TIP3    H148854   6.338   0.529  16.143 -2.6100 -0.3653  0.1301
 9121TIP3    H248855   6.328   0.570  16.288 -1.5875 -0.3119  0.1852
 9122TIP3   OH248856   0.443   4.744   1.262  0.4072  0.5837  0.0826
 9122TIP3    H148857   0.371   4.759   1.323 -0.5333  0.4653 -0.9579
 9122TIP3    H248858   0.414   4.671   1.208  0.7594  1.3176 -1.1524
 9123TIP3   OH248859   6.798   6.663   3.287  0.0731  0.3655  0.1283
 9123TIP3    H148860   6.778   6.602   3.217  1.7202  0.1494 -0.1822
 9123TIP3    H248861   6.778   6.749   3.251 -0.4693  0.1591 -0.0773
 9124TIP3   OH248862   0.905   3.185   1.692  0.1738  0.4575 -0.7314
 9124TIP3    H148863   0.997   3.198   1.716  0.2039 -1.2202  0.2255
 9124TIP3    H248864   0.877   3.270   1.658  1.8078  1.2736 -0.1602
 9125TIP3   OH248865   2.210   3.307  15.935  0.0644 -0.5515  0.1021
 9125TIP3    H148866   2.218   3.381  15.875  1.9677 -1.0729 -0.3575
 9125TIP3    H248867   2.185   3.234  15.879  2.3426 -1.1543 -0.2213
 9126TIP3   OH248868   3.148   4.833  12.484 -0.1802 -0.5380  0.2534
 9126TIP3    H148869   3.062   4.794  12.502 -1.2186  1.7000  0.4303
 9126TIP3    H248870   3.198   4.819  12.565 -1.1400  0.0553  0.9686
 9127TIP3   OH248871   3.336   0.050  15.432  0.2718 -0.2609  0.0970
 9127TIP3    H148872   3.293   0.031  15.349  1.9839 -0.5778 -0.7571
 9127TIP3    H248873   3.410  -0.010  15.435  0.0483 -0.5030  2.0456
 9128TIP3   OH248874   1.730   1.964  12.928  0.4177 -0.0611 -0.1989
 9128TIP3    H148875   1.762   2.023  12.996 -1.7604  1.7975 -0.6638
 9128TIP3    H248876   1.732   2.016  12.848  0.5737 -1.3917 -1.0941
 9129TIP3   OH248877   6.600   6.269  16.820 -0.4978 -0.3912  0.8954
 9129TIP3    H148878   6.515   6.227  16.820 -0.1754 -1.0662  0.0781
 9129TIP3    H248879   6.644   6.236  16.899 -0.4036 -1.2637  0.4830
 9130TIP3   OH248880   6.514   3.527  13.217  0.4375  0.5990 -0.9186
 9130TIP3    H148881   6.466   3.451  13.251  1.0570  0.7395  0.3347
 9130TIP3    H248882   6.588   3.488  13.169 -0.0579  0.4012 -1.5289
 9131TIP3   OH248883   0.402   6.053  16.095 -0.5241 -0.4078  0.1087
 9131TIP3    H148884   0.382   5.960  16.106 -0.9508 -0.2659  0.6070
 9131TIP3    H248885   0.419   6.084  16.184 -0.6591  0.0551 -0.0257
 9132TIP3   OH248886   5.031   5.773   0.690 -0.5920 -0.6257 -0.3510
 9132TIP3    H148887   5.096   5.754   0.621 -1.9862 -2.3853 -1.2710
 9132TIP3    H248888   4.964   5.825   0.646 -0.5841 -0.1517  0.1864
 9133TIP3   OH248889   6.499   4.378   3.082  0.0969 -0.1386  0.1459
 9133TIP3    H148890   6.528   4.403   2.995 -1.1821 -0.6179 -0.4399
 9133TIP3    H248891   6.577   4.384   3.136  0.1724  4.4047 -0.0477
 9134TIP3   OH248892   5.926   6.387   3.364  0.2520 -0.2535 -0.1515
 9134TIP3    H148893   5.834   6.401   3.386 -0.2674 -1.6076 -1.2946
 9134TIP3    H248894   5.969   6.469   3.389 -1.0536  0.0145  1.4090
 9135TIP3   OH248895   5.815   2.403  15.058  0.7361 -0.1869  0.4479
 9135TIP3    H148896   5.849   2.330  15.005  1.4395  1.6566 -1.8583
 9135TIP3    H248897   5.720   2.391  15.058  0.9221 -2.0490  1.6898
 9136TIP3   OH248898   6.550   2.893  14.952  0.0639 -0.0882  0.0196
 9136TIP3    H148899   6.458   2.873  14.970  0.3479 -0.9339  0.5982
 9136TIP3    H248900   6.599   2.842  15.017  0.9550  0.1794 -0.4220
 9137TIP3   OH248901   1.021   1.787  13.771 -0.4026  0.5280 -0.3714
 9137TIP3    H148902   0.989   1.743  13.849 -0.1940  2.4932  0.8936
 9137TIP3    H248903   1.079   1.723  13.729 -0.5216 -0.5701  1.0727
 9138TIP3   OH248904   0.166   3.264   2.278 -0.2435  0.1208 -0.5581
 9138TIP3    H148905   0.165   3.360   2.279  0.7761  0.1391 -0.7107
 9138TIP3    H248906   0.237   3.241   2.218 -1.6108 -0.7466 -1.9209
 9139TIP3   OH248907   0.545   1.934  16.659  0.0764 -0.9080  0.1905
 9139TIP3    H148908   0.630   1.934  16.703  0.8763  0.5670 -1.2708
 9139TIP3    H248909   0.539   2.020  16.617 -1.1810 -1.7821 -1.5456
 9140TIP3   OH248910   1.718   4.216  15.525  0.3856 -0.2418 -0.1107
 9140TIP3    H148911   1.763   4.135  15.550 -0.6628 -1.2090 -1.2072
 9140TIP3    H248912   1.649   4.187  15.466 -1.2288  1.2800  0.9612
 9141TIP3   OH248913   4.285   0.889   2.326  0.2075 -0.1896 -0.0600
 9141TIP3    H148914   4.275   0.795   2.314 -2.1114 -0.2648  1.7134
 9141TIP3    H248915   4.326   0.898   2.412  0.9270  0.4420 -0.4575
 9142TIP3   OH248916   0.545   6.504   4.020  0.5696  0.5707  1.2771
 9142TIP3    H148917   0.489   6.512   3.942  2.1288 -0.8387 -0.0605
 9142TIP3    H248918   0.519   6.420   4.059 -0.0676  1.1796  2.1975
 9143TIP3   OH248919   3.048   0.250  12.676  0.1594 -0.5454  0.2584
 9143TIP3    H148920   3.088   0.335  12.696  0.6226 -0.7283  0.1383
 9143TIP3    H248921   3.116   0.186  12.698  0.0997 -0.8396 -0.3836
 9144TIP3   OH248922   5.044   3.862   0.657 -0.0925 -0.0674  0.6401
 9144TIP3    H148923   4.961   3.910   0.648  0.1980  0.1804 -1.0579
 9144TIP3    H248924   5.111   3.929   0.641  0.3460 -0.8307 -0.8220
 9145TIP3   OH248925   4.723   2.391  16.989 -0.1643  0.2473  0.2708
 9145TIP3    H148926   4.686   2.397  17.077 -1.0961  0.3464 -0.1196
 9145TIP3    H248927   4.670   2.326  16.944  1.4075 -1.1099  0.2902
 9146TIP3   OH248928   0.886   2.527   5.101  0.5800  0.7183  0.2585
 9146TIP3    H148929   0.866   2.572   5.183  0.4468 -0.5400  0.9362
 9146TIP3    H248930   0.804   2.527   5.053  0.4351  0.6946  0.5048
 9147TIP3   OH248931   1.892   1.915  11.565  0.3759 -0.1711 -0.3076
 9147TIP3    H148932   1.908   1.939  11.474 -0.6595 -2.9523 -1.3469
 9147TIP3    H248933   1.801   1.885  11.566  0.4737 -0.5079  1.5721
 9148TIP3   OH248934   1.837   5.811  15.430  0.1467  0.2243 -0.1649
 9148TIP3    H148935   1.767   5.776  15.485  1.4417 -0.0137  1.4126
 9148TIP3    H248936   1.842   5.750  15.356  0.0273 -0.9193  0.7379
 9149TIP3   OH248937   1.454   1.767   0.423  0.5374  0.0928  0.5453
 9149TIP3    H148938   1.535   1.725   0.453  1.0050  0.4416 -0.2104
 9149TIP3    H248939   1.479   1.813   0.344 -0.9098 -1.7311 -1.0694
 9150TIP3   OH248940   0.392   4.849   3.316 -0.5060  0.4761  0.4876
 9150TIP3    H148941   0.324   4.893   3.368 -3.4817 -2.1746 -0.8756
 9150TIP3    H248942   0.385   4.757   3.339  3.0727  0.0913  0.6006
 9151TIP3   OH248943   2.410   6.337  15.655  0.2899 -0.1078  0.8095
 9151TIP3    H148944   2.471   6.409  15.669 -0.0741  0.0576  1.6137
 9151TIP3    H248945   2.419   6.315  15.562  1.0773  0.3534  0.7667
 9152TIP3   OH248946   6.461   3.211   5.519  0.1557  0.2002  0.1516
 9152TIP3    H148947   6.521   3.255   5.458 -0.3907  0.5407 -0.1448
 9152TIP3    H248948   6.383   3.267   5.521  0.3976  0.5415  1.6456
 9153TIP3   OH248949   0.659   1.281   5.054 -0.5870  1.0167 -0.1566
 9153TIP3    H148950   0.743   1.237   5.071 -1.5787 -0.6355  0.7952
 9153TIP3    H248951   0.658   1.355   5.114  0.7202  1.8395 -1.1000
 9154TIP3   OH248952   1.584   2.039  14.054  0.1363  0.1556  0.1288
 9154TIP3    H148953   1.669   2.084  14.047  0.1542 -0.0507 -1.3593
 9154TIP3    H248954   1.520   2.107  14.031 -0.0999  0.2508  1.0328
 9155TIP3   OH248955   1.663   1.013  11.748 -0.1677  0.0724 -0.1461
 9155TIP3    H148956   1.633   1.057  11.668  1.0257  1.3337  0.0760
 9155TIP3    H248957   1.748   0.976  11.724  0.6104  1.2199  0.7798
 9156TIP3   OH248958   6.266   0.973  13.030 -0.1858 -0.5861  0.0485
 9156TIP3    H148959   6.259   1.068  13.027  1.4743 -0.4113  0.6338
 9156TIP3    H248960   6.179   0.943  13.057 -0.7808  0.7446 -0.3210
 9157TIP3   OH248961   1.187   1.267  16.361 -0.6632  1.1043 -0.7301
 9157TIP3    H148962   1.195   1.339  16.424 -1.3220  0.4817  0.0955
 9157TIP3    H248963   1.272   1.223  16.364 -0.7025  1.0595 -0.2520
 9158TIP3   OH248964   3.746   3.830  12.802 -0.0262 -0.1195  0.2742
 9158TIP3    H148965   3.770   3.904  12.746  0.3057 -0.6793 -0.3311
 9158TIP3    H248966   3.821   3.771  12.796 -0.5175 -0.7501  0.3453
 9159TIP3   OH248967   6.472   3.902  12.805 -0.3577 -0.2490  0.5868
 9159TIP3    H148968   6.433   3.989  12.815 -1.3312 -0.7285  1.0908
 9159TIP3    H248969   6.467   3.863  12.892  0.1310 -0.7997  0.3798
 9160TIP3   OH248970   2.374   2.930   3.204 -0.7612 -0.2413  0.0019
 9160TIP3    H148971   2.332   2.955   3.122 -3.3389  0.0803  1.3030
 9160TIP3    H248972   2.303   2.935   3.269  0.8919 -1.6299  2.0323
 9161TIP3   OH248973   4.395   1.628  12.053  0.2220  0.3076 -0.1659
 9161TIP3    H148974   4.451   1.706  12.050  2.0355 -0.6715  3.3803
 9161TIP3    H248975   4.316   1.657  12.100  0.7687  0.0912  0.8954
 9162TIP3   OH248976   1.849   0.296  13.029 -0.3112 -0.0117  0.4085
 9162TIP3    H148977   1.799   0.253  13.099 -0.6162 -1.4606 -0.6451
 9162TIP3    H248978   1.878   0.379  13.067 -3.6335  0.9994  1.0532
 9163TIP3   OH248979   5.761   1.038   6.602 -0.1519  0.0863  0.2276
 9163TIP3    H148980   5.740   0.996   6.686 -1.1633  1.9045  0.9349
 9163TIP3    H248981   5.676   1.064   6.566  0.2923 -0.4102 -1.2659
 9164TIP3   OH248982   5.388   1.572   0.518  0.1631  0.7666 -0.0873
 9164TIP3    H148983   5.345   1.540   0.438 -2.2150  1.7532  0.7282
 9164TIP3    H248984   5.390   1.667   0.508 -0.7822  0.9538  1.3108
 9165TIP3   OH248985   0.360   1.429  14.730  0.2225  0.0393 -0.0627
 9165TIP3    H148986   0.306   1.496  14.773  0.6753 -0.3228  1.1194
 9165TIP3    H248987   0.313   1.347  14.747  0.5009 -0.1288 -0.0975
 9166TIP3   OH248988   3.840   2.531   3.031 -0.0220 -0.1017  0.3467
 9166TIP3    H148989   3.853   2.626   3.026 -1.5864  0.2274  1.7549
 9166TIP3    H248990   3.835   2.503   2.940  0.9743  1.0822 -0.0954
 9167TIP3   OH248991   5.097   5.890  17.080  0.4911 -0.2637  0.3586
 9167TIP3    H148992   5.097   5.868  16.987  1.4411 -1.4693  0.6142
 9167TIP3    H248993   5.099   5.805  17.125  2.0735  0.2893  1.4404
 9168TIP3   OH248994   2.009   5.427  12.498  0.1121 -0.2855  0.2819
 9168TIP3    H148995   2.032   5.470  12.581  2.0273 -0.5029 -0.0775
 9168TIP3    H248996   1.991   5.336  12.522  1.1488 -0.4691  0.4364
 9169TIP3   OH248997   3.048   3.995  10.862  0.2684  0.1779  0.0217
 9169TIP3    H148998   3.136   3.962  10.846  0.0547 -1.0242  1.1624
 9169TIP3    H248999   3.057   4.091  10.857  1.0276  0.0303 -2.7350
 9170TIP3   OH249000   1.124   5.082   3.503 -0.0348  0.3134 -0.8844
 9170TIP3    H149001   1.199   5.026   3.486 -0.5741 -0.6307 -0.2445
 9170TIP3    H249002   1.048   5.031   3.476 -0.7538 -0.4107  2.0711
 9171TIP3   OH249003   6.207   3.902  13.558  0.0684 -0.7846  0.5009
 9171TIP3    H149004   6.160   3.939  13.632 -0.5867 -0.2063 -0.1866
 9171TIP3    H249005   6.203   3.807  13.572 -1.6331 -0.7736  0.2775
 9172TIP3   OH249006   2.289   0.278   0.080 -0.2707  0.8288 -0.1184
 9172TIP3    H149007   2.312   0.262  -0.011 -1.4075 -0.1409 -0.2656
 9172TIP3    H249008   2.362   0.241   0.130 -0.4616 -0.2575 -0.6117
 9173TIP3   OH249009   5.784   5.659  15.552  0.0456 -0.1496  0.1538
 9173TIP3    H149010   5.837   5.587  15.518  0.9682 -0.8908  2.9634
 9173TIP3    H249011   5.839   5.737  15.541 -0.0364 -0.2091 -0.7782
 9174TIP3   OH249012   4.371   2.292  16.338  0.2868  0.3632 -0.1060
 9174TIP3    H149013   4.449   2.319  16.290 -0.3612  0.8469 -0.9179
 9174TIP3    H249014   4.334   2.220  16.287 -0.8867  1.4472 -0.8722
 9175TIP3   OH249015   3.528   0.110   0.485  0.1495 -0.2758  0.4376
 9175TIP3    H149016   3.595   0.046   0.462  0.5851  0.3117  0.0600
 9175TIP3    H249017   3.572   0.172   0.542 -0.3702 -0.5093  1.1077
 9176TIP3   OH249018   3.513   3.521  13.424  0.2874 -0.0714 -0.3647
 9176TIP3    H149019   3.422   3.518  13.453  0.2897 -0.4529 -0.3814
 9176TIP3    H249020   3.556   3.451  13.474  0.5291 -0.0108 -0.4882
 9177TIP3   OH249021   6.785   0.150  15.587  0.7266 -0.1192 -0.1291
 9177TIP3    H149022   6.769   0.220  15.523 -0.1435  1.0266  1.3007
 9177TIP3    H249023   6.880   0.135  15.582  1.0098  1.5008 -0.1241
 9178TIP3   OH249024   3.445   4.532   3.517  0.3315 -0.4766  0.6604
 9178TIP3    H149025   3.486   4.446   3.511 -1.5207 -1.3694  0.2476
 9178TIP3    H249026   3.487   4.573   3.593  0.8775 -1.9398  1.1819
 9179TIP3   OH249027   0.593   6.587   3.487 -0.3268  0.4045  0.0161
 9179TIP3    H149028   0.537   6.661   3.510 -1.1117 -0.7971  2.3230
 9179TIP3    H249029   0.534   6.523   3.449 -0.4312 -0.5027  1.6068
 9180TIP3   OH249030   3.987   1.620  12.575  0.4037 -0.4376  1.1652
 9180TIP3    H149031   3.932   1.694  12.602 -1.1661 -1.7763  1.7242
 9180TIP3    H249032   3.984   1.622  12.479  1.7302  1.1635  1.0985
 9181TIP3   OH249033   1.663   0.935   4.993 -0.2789  0.2394 -0.0234
 9181TIP3    H149034   1.717   0.966   4.920 -1.0773 -1.2124 -1.2819
 9181TIP3    H249035   1.723   0.930   5.068  0.8995  0.3685 -0.9333
 9182TIP3   OH249036   1.328   6.223   3.112  0.2223  0.2435 -0.6238
 9182TIP3    H149037   1.413   6.266   3.127  1.0118 -0.2958 -3.1169
 9182TIP3    H249038   1.272   6.257   3.183  1.9624  2.0889 -0.0077
 9183TIP3   OH249039   1.213   6.389   2.255  0.0017 -0.2318 -0.3630
 9183TIP3    H149040   1.219   6.482   2.273  0.5105 -0.6719  2.1605
 9183TIP3    H249041   1.240   6.380   2.164 -1.1499  2.1691 -1.0131
 9184TIP3   OH249042   2.603   0.198  11.698 -0.3076 -0.0212  0.1302
 9184TIP3    H149043   2.649   0.266  11.648  0.7647  0.5797  1.8385
 9184TIP3    H249044   2.668   0.130  11.711 -0.9564 -0.7446 -0.3455
 9185TIP3   OH249045   0.621   5.481  15.598 -0.1481 -0.5672 -0.0992
 9185TIP3    H149046   0.697   5.445  15.552 -0.0005 -0.4362  0.0358
 9185TIP3    H249047   0.605   5.565  15.555  0.6097  0.0173  0.7181
 9186TIP3   OH249048   4.391   6.286   1.092  0.0641 -0.5564  0.1870
 9186TIP3    H149049   4.448   6.275   1.016  0.2320 -0.7412  0.3405
 9186TIP3    H249050   4.385   6.380   1.105  0.4266 -0.5422  0.2445
 9187TIP3   OH249051   3.484   2.638  14.087  0.7148  0.2694 -0.5671
 9187TIP3    H149052   3.442   2.718  14.120 -3.3335 -2.3102  1.3130
 9187TIP3    H249053   3.531   2.603  14.162 -0.5728 -0.8540 -0.2498
 9188TIP3   OH249054   6.708   1.779  14.144 -0.0254 -0.3938  0.0017
 9188TIP3    H149055   6.663   1.863  14.151 -0.9475 -0.8654 -0.1200
 9188TIP3    H249056   6.694   1.751  14.054  1.8709  0.1715 -0.5204
 9189TIP3   OH249057   3.620   5.733   3.304  0.0324  0.1925  0.0182
 9189TIP3    H149058   3.673   5.719   3.225  1.6081 -1.2348  1.2312
 9189TIP3    H249059   3.644   5.821   3.333  0.9272  0.0028 -0.0881
 9190TIP3   OH249060   0.382   2.322  16.696 -0.2340 -0.0115 -0.5500
 9190TIP3    H149061   0.355   2.279  16.777  1.6570  0.1276  0.2129
 9190TIP3    H249062   0.457   2.271  16.666  2.1579  2.6463  0.4233
 9191TIP3   OH249063   6.109   1.247   1.321 -0.2996  0.0103 -0.2677
 9191TIP3    H149064   6.056   1.203   1.387  0.7614 -0.8904  0.0245
 9191TIP3    H249065   6.059   1.324   1.296 -1.9691 -1.0495 -0.3629
 9192TIP3   OH249066   1.511   3.934   1.094 -0.9412  0.0758 -0.0826
 9192TIP3    H149067   1.535   3.842   1.079 -0.0890  0.4966 -1.4826
 9192TIP3    H249068   1.416   3.936   1.078 -0.8502 -0.4462 -0.7854
 9193TIP3   OH249069   0.691   0.862   4.315  0.2361  0.0852 -0.0830
 9193TIP3    H149070   0.775   0.894   4.281  1.4190 -2.1650  0.5065
 9193TIP3    H249071   0.653   0.938   4.359  0.8966  1.7692 -2.2128
 9194TIP3   OH249072   3.481   3.497  15.809 -0.1175  0.1263  0.0130
 9194TIP3    H149073   3.452   3.558  15.876 -0.8586  1.1383 -1.1662
 9194TIP3    H249074   3.418   3.509  15.738  0.2109 -1.4314 -0.5700
 9195TIP3   OH249075   2.071   0.855  14.451 -0.5441  0.3911  0.0091
 9195TIP3    H149076   2.116   0.904  14.382  0.8662  2.0653  2.0110
 9195TIP3    H249077   1.993   0.907  14.469  0.2872  1.2830  1.2259
 9196TIP3   OH249078   1.383   2.174  15.463  0.1488 -0.2027  0.5992
 9196TIP3    H149079   1.294   2.178  15.497  0.6491  1.0336  1.8575
 9196TIP3    H249080   1.410   2.083  15.477 -0.2041 -0.0859  2.1345
 9197TIP3   OH249081   1.983   5.647   2.016 -0.6128  0.1367  0.6751
 9197TIP3    H149082   1.930   5.701   2.074 -1.6891 -1.9045  1.6870
 9197TIP3    H249083   2.057   5.618   2.070 -0.1084  0.4785  0.1822
 9198TIP3   OH249084   2.201   0.224  16.527 -0.6204  0.7524 -0.0494
 9198TIP3    H149085   2.288   0.262  16.514  1.2564 -3.2697 -0.7949
 9198TIP3    H249086   2.165   0.214  16.439 -0.9007  0.4686  0.0900
 9199TIP3   OH249087   2.425   4.323  12.145 -0.1475 -0.6380 -0.0364
 9199TIP3    H149088   2.517   4.349  12.138 -0.5020  0.5281 -0.6863
 9199TIP3    H249089   2.399   4.301  12.056 -0.7859  0.0825 -0.0361
 9200TIP3   OH249090   5.441   1.862  16.209 -0.7402  0.5048 -0.5828
 9200TIP3    H149091   5.442   1.891  16.118 -0.7100  2.2633 -0.0529
 9200TIP3    H249092   5.501   1.921  16.254 -1.9489  0.7033  0.8651
 9201TIP3   OH249093   3.858   2.083  15.006  0.1676 -0.0440 -0.3755
 9201TIP3    H149094   3.860   2.175  15.033  0.1753  0.0661 -0.7451
 9201TIP3    H249095   3.919   2.039  15.065 -2.3831 -0.4594  2.1409
 9202TIP3   OH249096   2.150   1.699  12.866  0.1639  0.0531 -0.0397
 9202TIP3    H149097   2.135   1.788  12.834 -0.1104  0.6264  1.6108
 9202TIP3    H249098   2.245   1.692  12.874  0.1219  0.8882  1.5994
 9203TIP3   OH249099   6.244   0.118  14.368  0.0348  0.4656 -0.1174
 9203TIP3    H149100   6.288   0.202  14.357  2.1487 -0.5211  0.3480
 9203TIP3    H249101   6.191   0.129  14.447 -0.0419  1.4641 -0.2859
 9204TIP3   OH249102   3.321   5.324  11.418 -0.2378 -0.2286  0.3845
 9204TIP3    H149103   3.308   5.313  11.324  2.0860 -0.5062  0.0482
 9204TIP3    H249104   3.412   5.353  11.427 -0.7253  0.8567  2.4896
 9205TIP3   OH249105   4.408   6.044  13.534  0.3616  0.2743 -0.8165
 9205TIP3    H149106   4.338   6.011  13.478  0.7192  0.3769 -1.3317
 9205TIP3    H249107   4.484   5.990  13.512 -0.0448 -1.2532  1.2365
 9206TIP3   OH249108   3.050   3.976   1.997  0.2192  0.0232  0.3702
 9206TIP3    H149109   3.064   4.020   2.081  0.0942  0.0007  0.4023
 9206TIP3    H249110   2.972   3.922   2.011  1.0925 -1.1901  0.7218
 9207TIP3   OH249111   3.826   6.354  16.561  0.5166 -0.5480  0.1754
 9207TIP3    H149112   3.910   6.389  16.589  1.6002 -2.2854 -0.7051
 9207TIP3    H249113   3.782   6.327  16.641  1.0073 -0.0711  0.6076
 9208TIP3   OH249114   3.773   0.415   0.337 -0.8887  0.1030  0.0627
 9208TIP3    H149115   3.714   0.416   0.412 -0.2091 -0.3642  0.6084
 9208TIP3    H249116   3.722   0.376   0.267 -1.4876  0.4259  0.3089
 9209TIP3   OH249117   4.119   3.338  12.846 -0.0903 -0.2985 -0.4554
 9209TIP3    H149118   4.083   3.421  12.878 -2.7515 -1.3566 -0.3807
 9209TIP3    H249119   4.101   3.276  12.916  1.9133 -0.9576 -0.4891
 9210TIP3   OH249120   3.962   3.135   3.784  0.1690 -0.0481 -0.0960
 9210TIP3    H149121   3.971   3.104   3.694  1.4730  0.1652 -0.0629
 9210TIP3    H249122   4.031   3.089   3.833 -0.9196 -0.6223  0.9322
 9211TIP3   OH249123   4.942   0.019   0.817 -0.6330 -0.0837 -0.1587
 9211TIP3    H149124   4.986  -0.023   0.891  3.0756  0.6356 -1.7098
 9211TIP3    H249125   4.941   0.112   0.839 -0.9318 -0.0373 -0.3628
 9212TIP3   OH249126   1.434   3.846  14.790  0.1324 -0.2716 -0.0806
 9212TIP3    H149127   1.389   3.890  14.862 -1.1981  0.7622 -1.4573
 9212TIP3    H249128   1.516   3.894  14.780  0.5894 -0.7961  1.1077
 9213TIP3   OH249129   0.107   2.804   2.593  0.2966 -0.4468 -0.0039
 9213TIP3    H149130   0.083   2.764   2.509  0.5266 -0.2500 -0.1629
 9213TIP3    H249131   0.114   2.897   2.574  1.7427 -0.5555 -0.0864
 9214TIP3   OH249132   5.983   0.258  16.918 -0.8544 -0.5744  0.0641
 9214TIP3    H149133   5.888   0.256  16.904 -0.9457 -0.8982  0.6969
 9214TIP3    H249134   5.996   0.210  17.000 -0.3471  1.0618  0.9899
 9215TIP3   OH249135   2.802   6.294  16.437 -0.2382  0.1169 -0.7122
 9215TIP3    H149136   2.797   6.291  16.532  0.3279 -0.4138 -0.6974
 9215TIP3    H249137   2.712   6.313  16.409 -0.6104 -0.7100 -0.1115
 9216TIP3   OH249138   1.014   0.980  15.759  0.0765  0.4506 -0.3916
 9216TIP3    H149139   1.013   0.922  15.682  0.5567  0.7941 -0.6617
 9216TIP3    H249140   1.024   0.920  15.833 -0.4622  0.1097 -0.5866
 9217TIP3   OH249141   0.925   1.523  11.727  0.3023  0.3077  0.1557
 9217TIP3    H149142   0.942   1.522  11.821 -0.7284  1.1033  0.3632
 9217TIP3    H249143   0.866   1.597  11.714  0.0731 -0.0740 -1.0550
 9218TIP3   OH249144   4.386   6.261   5.378  0.1293  0.2817 -0.1398
 9218TIP3    H149145   4.295   6.291   5.387 -0.9090 -1.1733 -3.8249
 9218TIP3    H249146   4.378   6.167   5.363  2.5224 -0.3180  1.7865
 9219TIP3   OH249147   4.758   0.746   3.774 -0.6178 -0.4497 -0.1067
 9219TIP3    H149148   4.675   0.774   3.736  0.5562  0.9523 -1.8303
 9219TIP3    H249149   4.776   0.662   3.732 -0.7096 -0.2875 -0.4764
 9220TIP3   OH249150   0.184   3.594   1.574 -0.5479  0.1486 -0.0396
 9220TIP3    H149151   0.233   3.512   1.563  0.8131  0.8561  0.4396
 9220TIP3    H249152   0.097   3.566   1.601 -0.8918 -1.2177 -2.3001
 9221TIP3   OH249153   5.613   0.179   2.662  0.1233  0.0553 -0.9169
 9221TIP3    H149154   5.600   0.184   2.567 -1.4906 -1.3760 -0.8230
 9221TIP3    H249155   5.537   0.130   2.694  0.6122  0.5417  1.1321
 9222TIP3   OH249156   3.624   5.788  13.745 -0.5404  0.1262 -0.0275
 9222TIP3    H149157   3.701   5.747  13.706  0.4769  0.9387  1.0624
 9222TIP3    H249158   3.571   5.817  13.671  1.1358  1.2643 -0.8234
 9223TIP3   OH249159   2.111   6.299  15.597 -0.2390 -0.0037 -0.2012
 9223TIP3    H149160   2.105   6.387  15.561  0.7352 -0.5981 -1.9698
 9223TIP3    H249161   2.069   6.243  15.531 -0.6691 -0.8945  0.7907
 9224TIP3   OH249162   2.198   4.358  15.817 -0.0795 -0.5052  0.1646
 9224TIP3    H149163   2.291   4.380  15.821 -0.1288 -0.4478  1.0420
 9224TIP3    H249164   2.168   4.360  15.908 -0.5180 -2.3014  0.1043
 9225TIP3   OH249165   4.267   2.105  14.489 -0.2152  0.1882 -0.3595
 9225TIP3    H149166   4.280   2.163  14.563  0.0636  0.6017 -0.7238
 9225TIP3    H249167   4.224   2.028  14.525  1.0118 -0.1363  0.4407
 9226TIP3   OH249168   4.759   4.186   5.553 -0.2308  0.1208  0.1678
 9226TIP3    H149169   4.789   4.258   5.608 -0.4638  1.5256 -1.4737
 9226TIP3    H249170   4.755   4.111   5.612  0.3355  1.3629  1.8551
 9227TIP3   OH249171   6.013   6.508   5.831 -0.2145 -0.5976  0.0739
 9227TIP3    H149172   6.018   6.416   5.857  2.0884 -0.2517  1.1576
 9227TIP3    H249173   5.949   6.546   5.890 -1.2687 -1.4973 -0.4545
 9228TIP3   OH249174   5.016   2.232   5.089  0.1753 -0.0986 -0.3737
 9228TIP3    H149175   5.039   2.192   5.173 -0.4850 -1.7281 -0.9380
 9228TIP3    H249176   5.011   2.326   5.108 -1.3541 -0.5297  1.7702
 9229TIP3   OH249177   5.839   4.435   1.140 -0.0846  0.1602 -0.5234
 9229TIP3    H149178   5.864   4.523   1.168  2.9442 -0.6210 -0.3916
 9229TIP3    H249179   5.863   4.431   1.048  0.2427 -0.6428 -0.4137
 9230TIP3   OH249180   1.839   1.012  14.530  0.0178  0.2148  0.6127
 9230TIP3    H149181   1.764   0.978  14.481 -2.4169  3.2613  1.8572
 9230TIP3    H249182   1.841   0.960  14.610  0.3879 -1.0271 -0.1797
 9231TIP3   OH249183   1.512   4.529   3.847 -0.1606 -0.1065  0.6306
 9231TIP3    H149184   1.533   4.485   3.765  0.6198  0.3404  0.5744
 9231TIP3    H249185   1.559   4.479   3.914  0.5427  0.4784  0.5930
 9232TIP3   OH249186   2.086   2.830  16.486 -0.4922 -0.2030  0.5912
 9232TIP3    H149187   1.998   2.791  16.482 -0.9917  0.9258  0.2954
 9232TIP3    H249188   2.108   2.848  16.395  1.1670 -2.8153  0.3580
 9233TIP3   OH249189   5.961   3.185   3.590  0.3466  0.5679  0.3181
 9233TIP3    H149190   5.873   3.151   3.577 -0.4534  2.3448  0.7561
 9233TIP3    H249191   5.989   3.150   3.674 -0.1117  0.3235  0.3692
 9234TIP3   OH249192   3.883   6.139  15.180  0.4502 -0.3700 -0.1465
 9234TIP3    H149193   3.893   6.110  15.271  0.6616 -1.9526 -0.6300
 9234TIP3    H249194   3.968   6.123  15.141  0.5439  0.9065 -0.4769
 9235TIP3   OH249195   2.076   4.327  13.082  0.3500  0.0022 -0.2708
 9235TIP3    H149196   2.140   4.357  13.146  1.3448  0.1226 -1.2888
 9235TIP3    H249197   2.020   4.266  13.130  1.5137 -0.4484  0.5377
 9236TIP3   OH249198   1.503   3.664   4.948 -0.3280  0.5791  0.0946
 9236TIP3    H149199   1.484   3.597   5.014  1.6787  1.1414  1.3282
 9236TIP3    H249200   1.540   3.615   4.874 -0.5368  0.1543  0.2683
 9237TIP3   OH249201   2.990   5.757  13.285 -0.6913 -0.6050  0.0587
 9237TIP3    H149202   2.923   5.728  13.223 -0.0763 -0.7502 -0.5463
 9237TIP3    H249203   3.009   5.847  13.258 -1.6817 -0.0481  1.1392
 9238TIP3   OH249204   4.155   2.179  13.084 -0.3769 -0.0544 -0.2078
 9238TIP3    H149205   4.220   2.128  13.132 -1.9342 -1.6907  0.2722
 9238TIP3    H249206   4.206   2.248  13.040  1.4119 -0.1146  1.6381
 9239TIP3   OH249207   1.868   2.036   5.140  0.2289 -0.1721 -0.0591
 9239TIP3    H149208   1.932   2.097   5.102 -1.2308  1.2590 -0.2951
 9239TIP3    H249209   1.898   2.023   5.230  0.6684  0.7579 -0.0609
 9240TIP3   OH249210   2.458   4.109   1.221  0.0658 -0.3627  0.3111
 9240TIP3    H149211   2.421   4.064   1.145 -0.6996 -1.1501  1.1405
 9240TIP3    H249212   2.445   4.202   1.202  1.1288 -0.4722 -1.1429
 9241TIP3   OH249213   0.371   6.782   3.534  0.2503 -0.2370  0.6589
 9241TIP3    H149214   0.378   6.868   3.575  1.5906 -0.0666  0.1212
 9241TIP3    H249215   0.283   6.752   3.556 -0.4417  1.5115  0.3913
 9242TIP3   OH249216   3.029   3.018  14.212  0.2418 -0.1426  0.0030
 9242TIP3    H149217   3.003   2.929  14.237  0.5382 -0.0055  0.8359
 9242TIP3    H249218   2.963   3.075  14.251  0.1121  0.0173 -0.4405
 9243TIP3   OH249219   5.180   1.883  14.909  0.1927  0.6984 -0.1628
 9243TIP3    H149220   5.258   1.842  14.871  0.6595  2.4853 -1.2496
 9243TIP3    H249221   5.147   1.940  14.840 -0.6134  1.8811  1.1499
 9244TIP3   OH249222   0.155   1.425   4.414  0.8027 -0.5648 -0.2319
 9244TIP3    H149223   0.248   1.408   4.431  0.6210 -0.2588  1.1281
 9244TIP3    H249224   0.154   1.508   4.367  1.2504 -0.8964 -0.8447
 9245TIP3   OH249225   5.973   0.807  15.726  0.0081 -0.0459  0.5600
 9245TIP3    H149226   5.888   0.827  15.687  1.1896  0.9251 -1.7525
 9245TIP3    H249227   6.013   0.744  15.666  1.7354  1.1188  0.3905
 9246TIP3   OH249228   0.848   5.781  12.691  0.2062  0.2240 -0.2694
 9246TIP3    H149229   0.824   5.838  12.618 -0.1518  0.3927 -0.0232
 9246TIP3    H249230   0.777   5.717  12.696  1.6684 -1.6520 -1.9541
 9247TIP3   OH249231   0.874   3.823   0.621 -0.1247  0.0461 -0.3755
 9247TIP3    H149232   0.899   3.774   0.543  0.9677 -0.7078  0.4173
 9247TIP3    H249233   0.778   3.818   0.623 -0.0891 -1.2456 -0.8449
 9248TIP3   OH249234   2.620   4.534  15.566  0.2794 -0.2642  0.7217
 9248TIP3    H149235   2.645   4.611  15.617 -0.3102  0.2428  0.2647
 9248TIP3    H249236   2.685   4.468  15.589  1.4358  0.6892  0.3455
 9249TIP3   OH249237   3.154   3.109  15.508  0.1904 -0.2665  0.3534
 9249TIP3    H149238   3.173   3.179  15.571 -0.7321  0.6929 -0.4178
 9249TIP3    H249239   3.110   3.041  15.560 -0.6093  0.5403  0.7451
 9250TIP3   OH249240   0.684   2.831  16.655 -0.3883  0.3389  0.4367
 9250TIP3    H149241   0.677   2.833  16.751 -0.5429  1.4772  0.4161
 9250TIP3    H249242   0.743   2.904  16.634 -1.9508  1.4174 -0.4443
 9251TIP3   OH249243   5.658   4.951   5.436  0.2268  0.7778 -0.4030
 9251TIP3    H149244   5.680   4.926   5.526 -0.5042  0.7289 -0.2277
 9251TIP3    H249245   5.741   4.978   5.397  1.1319 -1.9936 -0.6500
 9252TIP3   OH249246   2.182   1.138   0.418  0.0160 -0.4518 -0.2673
 9252TIP3    H149247   2.260   1.093   0.386  1.0301 -0.2770  1.8488
 9252TIP3    H249248   2.161   1.201   0.348  1.2345 -1.0848 -1.2487
 9253TIP3   OH249249   4.987   0.210  16.677 -0.3656 -0.1249  0.2698
 9253TIP3    H149250   4.947   0.133  16.638 -1.1520  0.5985 -0.3892
 9253TIP3    H249251   4.966   0.281  16.616  0.6782  0.5398  0.6576
 9254TIP3   OH249252   2.441   0.641  16.893  0.3135 -0.0127  0.1288
 9254TIP3    H149253   2.416   0.711  16.953  0.9144 -1.3719  2.0679
 9254TIP3    H249254   2.360   0.620  16.846 -0.4188  0.4853  1.1287
 9255TIP3   OH249255   4.256   3.558  16.991  0.1338 -0.4425  0.0615
 9255TIP3    H149256   4.236   3.474  16.949 -0.2326  0.2069 -1.0783
 9255TIP3    H249257   4.352   3.559  16.997  0.0808 -1.8081  1.9283
 9256TIP3   OH249258   2.830   4.930   5.052  0.1742 -0.7752 -0.8131
 9256TIP3    H149259   2.768   5.002   5.043  0.7049 -0.3422 -1.0842
 9256TIP3    H249260   2.892   4.960   5.117 -0.9792 -1.9968  0.9301
 9257TIP3   OH249261   0.339   0.510  11.246  0.7240 -0.2241 -0.2058
 9257TIP3    H149262   0.323   0.512  11.152  1.8968  0.1646 -0.4122
 9257TIP3    H249263   0.433   0.525  11.254  0.7886 -1.1684  0.9807
 9258TIP3   OH249264   1.553   4.372  16.673  0.2199 -0.0786  0.2545
 9258TIP3    H149265   1.475   4.319  16.655  1.6928 -2.3841  0.2535
 9258TIP3    H249266   1.567   4.363  16.767  0.7433 -0.0988  0.1796
 9259TIP3   OH249267   4.904   4.269   3.741 -0.3263  0.1790 -0.1517
 9259TIP3    H149268   4.887   4.331   3.671  1.4125 -2.5802 -3.3190
 9259TIP3    H249269   4.833   4.205   3.735 -0.1868 -0.0671  0.6404
 9260TIP3   OH249270   4.869   4.358   1.650  0.1821  0.1394 -0.4545
 9260TIP3    H149271   4.861   4.452   1.666 -1.6574  0.1041 -0.8976
 9260TIP3    H249272   4.778   4.327   1.646  0.7480 -1.7975  0.4504
 9261TIP3   OH249273   2.926   3.778   3.531 -0.2454 -0.5838  0.0995
 9261TIP3    H149274   2.973   3.831   3.467 -0.5559 -0.3005  0.1012
 9261TIP3    H249275   2.885   3.708   3.478  1.7436 -1.9920  0.3270
 9262TIP3   OH249276   0.931   2.388   6.523 -0.0270  0.4136  0.3268
 9262TIP3    H149277   0.941   2.302   6.563 -1.6705 -0.0327 -0.1672
 9262TIP3    H249278   0.841   2.414   6.542  0.0404  1.4427 -0.6313
 9263TIP3   OH249279   6.555   5.357  15.649 -0.1700 -0.4799 -0.5891
 9263TIP3    H149280   6.565   5.435  15.705  0.6098 -1.2302  0.3499
 9263TIP3    H249281   6.622   5.367  15.582  1.0185 -1.0931  0.4633
 9264TIP3   OH249282   1.825   2.558   4.716 -0.2168  0.2500  0.2247
 9264TIP3    H149283   1.832   2.465   4.737  1.1454  0.3699  0.3519
 9264TIP3    H249284   1.758   2.562   4.648  0.3689 -0.9395 -0.4548
 9265TIP3   OH249285   4.459   1.952   2.986 -0.1148 -0.1556  0.9545
 9265TIP3    H149286   4.395   1.987   2.924  1.2354  1.5821  0.4837
 9265TIP3    H249287   4.424   1.865   3.009 -0.9664 -0.6197 -1.7402
 9266TIP3   OH249288   5.971   4.704  11.653 -0.4020  0.4168 -0.3312
 9266TIP3    H149289   6.017   4.652  11.587 -0.4437  1.4602 -1.2078
 9266TIP3    H249290   5.879   4.703  11.625 -0.6968 -0.4393  0.6018
 9267TIP3   OH249291   4.364   5.609  15.420  0.0578  0.6018 -0.1236
 9267TIP3    H149292   4.269   5.613  15.410  0.0917  0.6085 -0.4607
 9267TIP3    H249293   4.398   5.653  15.342  0.3413  0.1343 -0.2674
 9268TIP3   OH249294   5.276   1.383  16.379  0.0531  0.7883 -0.2968
 9268TIP3    H149295   5.259   1.446  16.450  0.1119 -0.9982  1.3785
 9268TIP3    H249296   5.366   1.401  16.353  0.0833  1.3763  0.1888
 9269TIP3   OH249297   3.000   0.466  12.375  0.2424 -0.0064  0.3100
 9269TIP3    H149298   3.073   0.404  12.377 -0.8028 -1.3180 -0.7653
 9269TIP3    H249299   2.938   0.433  12.440 -1.1375 -1.1887 -1.5346
 9270TIP3   OH249300   3.894   4.904   1.467 -0.5775  0.6907 -1.0065
 9270TIP3    H149301   3.811   4.951   1.464 -1.2449 -0.4307 -0.7730
 9270TIP3    H249302   3.959   4.970   1.492 -1.6938  1.1924  0.7137
 9271TIP3   OH249303   4.765   5.051   4.293 -0.4267 -0.0989 -0.0868
 9271TIP3    H149304   4.676   5.038   4.262 -1.0248 -0.7134  1.7297
 9271TIP3    H249305   4.764   5.020   4.384  1.1619  1.5980  0.5933
 9272TIP3   OH249306   0.793   1.816   4.670  0.6248 -0.8464  0.1968
 9272TIP3    H149307   0.731   1.871   4.716  1.5040  1.9310 -1.6458
 9272TIP3    H249308   0.739   1.750   4.625 -1.1406  1.6451 -1.5960
 9273TIP3   OH249309   1.951   5.353  11.857 -0.4163 -0.4518 -0.2263
 9273TIP3    H149310   1.877   5.401  11.894  0.6141  0.9337  0.1104
 9273TIP3    H249311   2.028   5.388  11.902  0.5105 -1.4345 -0.9841
 9274TIP3   OH249312   6.202   0.405   0.431  0.9711  0.3116 -0.6164
 9274TIP3    H149313   6.264   0.332   0.427  0.5780 -0.1029  0.4205
 9274TIP3    H249314   6.199   0.429   0.524 -0.8141 -0.0407 -0.5425
 9275TIP3   OH249315   3.902   0.558  13.831  0.2067 -0.2041  0.0620
 9275TIP3    H149316   3.930   0.556  13.922  1.8232 -1.2908 -0.4135
 9275TIP3    H249317   3.813   0.524  13.833  0.3793 -0.6430  1.1951
 9276TIP3   OH249318   3.090   3.596   3.826  0.0510 -0.0703  0.0461
 9276TIP3    H149319   3.183   3.574   3.825 -0.1282 -0.9545  1.2118
 9276TIP3    H249320   3.086   3.685   3.860  0.4132 -0.4297  1.0623
 9277TIP3   OH249321   6.631   4.418   4.359  0.3479  0.5091 -0.0299
 9277TIP3    H149322   6.680   4.377   4.430 -0.0257 -0.6051 -0.3924
 9277TIP3    H249323   6.659   4.371   4.281  0.5523  1.5415 -0.6021
 9278TIP3   OH249324   5.449   3.229  13.543  0.5952  0.4724  0.0963
 9278TIP3    H149325   5.408   3.151  13.505 -0.8780  0.8982  0.7285
 9278TIP3    H249326   5.541   3.205  13.553  0.1628 -1.2129  0.3622
 9279TIP3   OH249327   3.320   6.009  14.098  0.5580 -0.1075  0.2860
 9279TIP3    H149328   3.256   5.982  14.032  1.0348 -2.6629  0.7696
 9279TIP3    H249329   3.404   6.005  14.053  0.7830 -0.8786  0.7602
 9280TIP3   OH249330   6.432   4.361   6.078  0.4239  0.4771  0.0552
 9280TIP3    H149331   6.412   4.450   6.048 -1.7617 -0.5338 -1.7843
 9280TIP3    H249332   6.346   4.322   6.094  1.3327 -1.4327  0.4685
 9281TIP3   OH249333   3.525   1.275   3.824 -0.1275  0.5323 -0.0529
 9281TIP3    H149334   3.521   1.209   3.754  0.9097  0.3137  0.0837
 9281TIP3    H249335   3.441   1.267   3.869 -0.7572  0.5643 -1.1638
 9282TIP3   OH249336   6.651   5.643   0.397  0.6487 -0.2232 -0.0323
 9282TIP3    H149337   6.639   5.562   0.347  0.4803  1.0437 -2.1897
 9282TIP3    H249338   6.682   5.707   0.332 -0.0853  1.6831  1.3781
 9283TIP3   OH249339   4.373   4.790  10.702 -0.6315  0.1489  0.6035
 9283TIP3    H149340   4.430   4.716  10.724  0.1539  0.8695  1.0062
 9283TIP3    H249341   4.395   4.811  10.612 -0.1383  0.5172  0.8026
 9284TIP3   OH249342   3.975   5.326   0.943  0.7033 -0.3580 -0.4526
 9284TIP3    H149343   3.953   5.415   0.916 -1.6138 -0.8381 -0.4150
 9284TIP3    H249344   3.953   5.272   0.867  3.5120 -0.8221 -1.0409
 9285TIP3   OH249345   4.158   2.853  15.932  0.6778  0.4003  0.5164
 9285TIP3    H149346   4.195   2.766  15.940 -1.2219 -0.4829  0.3571
 9285TIP3    H249347   4.107   2.865  16.012 -0.5675  0.5750 -0.2670
 9286TIP3   OH249348   5.974   0.394   4.667  0.1626  0.8477  0.7200
 9286TIP3    H149349   6.048   0.336   4.681  0.5760  0.3853 -2.6403
 9286TIP3    H249350   5.897   0.337   4.674  0.6001 -0.6636 -3.6725
 9287TIP3   OH249351   0.319   4.502   4.513  0.3187 -0.1516  0.6082
 9287TIP3    H149352   0.348   4.579   4.464 -2.7980  1.2845  0.7702
 9287TIP3    H249353   0.391   4.484   4.574  1.1158  2.7847  0.7121
 9288TIP3   OH249354   3.197   6.367   0.855 -0.1075 -0.0919 -0.0942
 9288TIP3    H149355   3.134   6.383   0.785 -1.5988 -0.6675  1.0528
 9288TIP3    H249356   3.212   6.453   0.894 -0.9769 -0.0687  0.2317
 9289TIP3   OH249357   3.331   2.216  15.493  0.3853 -0.4253 -0.2114
 9289TIP3    H149358   3.406   2.255  15.539  0.2231  0.3318 -0.5729
 9289TIP3    H249359   3.370   2.170  15.419  0.5718 -0.9016  0.1734
 9290TIP3   OH249360   6.569   4.712  11.926 -0.6094 -0.2104  0.5382
 9290TIP3    H149361   6.513   4.676  11.994 -0.3337  0.6758  1.2587
 9290TIP3    H249362   6.596   4.798  11.959 -0.2320  0.1225 -0.5569
 9291TIP3   OH249363   4.145   5.287   2.022 -0.6149  0.2719 -0.0590
 9291TIP3    H149364   4.077   5.296   1.955 -0.8684 -1.3318 -0.0766
 9291TIP3    H249365   4.139   5.195   2.049 -0.7845  0.9379  2.4384
 9292TIP3   OH249366   2.008   0.484  13.142  0.1320 -0.2696 -0.3034
 9292TIP3    H149367   2.063   0.519  13.072 -0.4167 -0.3312 -0.7699
 9292TIP3    H249368   2.027   0.541  13.217  0.4549  0.0212 -0.6002
 9293TIP3   OH249369   2.685   1.475   2.927  0.0974  0.3296 -0.5848
 9293TIP3    H149370   2.631   1.396   2.935 -0.1313  0.4001 -1.3393
 9293TIP3    H249371   2.757   1.462   2.988 -0.0269 -0.3895 -0.5883
 9294TIP3   OH249372   6.480   0.928  16.353  0.4364  0.3527  0.7239
 9294TIP3    H149373   6.551   0.899  16.296 -1.3357 -0.0958 -1.4326
 9294TIP3    H249374   6.467   1.020  16.329  2.0662  1.3063  3.1664
 9295TIP3   OH249375   3.124   5.865  13.921  0.0090 -0.2748  0.1508
 9295TIP3    H149376   3.068   5.820  13.984 -0.2226 -0.3183 -0.0876
 9295TIP3    H249377   3.167   5.796  13.872 -2.0981 -0.3128 -1.8196
 9296TIP3   OH249378   0.420   6.675   0.655 -0.6870  0.0312  0.5821
 9296TIP3    H149379   0.376   6.678   0.741 -0.9497  0.8023  0.4299
 9296TIP3    H249380   0.490   6.739   0.662 -2.2579  1.9824 -0.5908
 9297TIP3   OH249381   4.208   5.567  12.974 -0.1744 -0.9254 -0.0104
 9297TIP3    H149382   4.195   5.515  13.053  0.7984 -1.4272 -0.1718
 9297TIP3    H249383   4.291   5.612  12.988  0.3508 -1.5397 -1.0219
 9298TIP3   OH249384   4.185   3.015  11.287  0.3994 -0.0255 -0.1081
 9298TIP3    H149385   4.167   2.929  11.325 -1.3072  0.5003  0.3305
 9298TIP3    H249386   4.128   3.021  11.211  0.5844  0.6760 -0.2024
 9299TIP3   OH249387   4.149   1.882   0.383 -0.4909 -0.2382  0.1259
 9299TIP3    H149388   4.198   1.835   0.451  0.1810 -1.1982 -0.9988
 9299TIP3    H249389   4.166   1.974   0.402  1.5435 -0.5304 -0.0462
 9300TIP3   OH249390   0.570   4.167   0.305 -0.4639 -0.1964  0.3142
 9300TIP3    H149391   0.546   4.102   0.372 -0.0663 -1.3071 -0.5787
 9300TIP3    H249392   0.666   4.160   0.298 -0.4962 -0.0648 -0.3361
 9301TIP3   OH249393   2.040   4.730   6.712 -0.2345  0.1766  0.1646
 9301TIP3    H149394   2.055   4.682   6.630  0.5122  1.0028 -0.1976
 9301TIP3    H249395   1.964   4.687   6.751 -0.7698 -0.0629 -1.0905
 9302TIP3   OH249396   4.759   2.104  11.905  0.0195  0.1496 -1.1923
 9302TIP3    H149397   4.730   2.193  11.886 -0.6719  0.4645  0.9874
 9302TIP3    H249398   4.687   2.049  11.874 -1.4139  0.6854  0.9360
 9303TIP3   OH249399   3.140   0.462   1.267  0.0398 -0.4679 -0.8586
 9303TIP3    H149400   3.199   0.485   1.195 -1.5245 -0.7702 -2.3191
 9303TIP3    H249401   3.054   0.455   1.225 -0.8115 -1.3590  0.9416
 9304TIP3   OH249402   1.696   2.327   0.414  0.6221 -0.1889 -0.3997
 9304TIP3    H149403   1.683   2.244   0.368 -0.3869 -1.5858  2.1774
 9304TIP3    H249404   1.654   2.314   0.499  0.4615  2.9814  0.1352
 9305TIP3   OH249405   1.089   1.659  14.221  0.0618 -0.1013 -0.3515
 9305TIP3    H149406   1.033   1.584  14.200  0.5309 -0.4015 -0.5405
 9305TIP3    H249407   1.029   1.734  14.222 -0.6643 -0.6502  1.1015
 9306TIP3   OH249408   0.871   6.260  14.519  0.0677  0.3706  0.2824
 9306TIP3    H149409   0.834   6.216  14.442 -0.5777  1.8468 -0.3017
 9306TIP3    H249410   0.812   6.237  14.590 -0.2868  0.3190 -0.0230
 9307TIP3   OH249411   5.940   4.794  11.897  0.0605 -0.1945 -0.7705
 9307TIP3    H149412   5.872   4.860  11.880 -0.7419 -0.4910  0.9772
 9307TIP3    H249413   5.956   4.753  11.812  0.7834  2.3834 -1.9786
 9308TIP3   OH249414   4.185   2.904  13.631 -0.0764  0.8680 -0.2045
 9308TIP3    H149415   4.091   2.905  13.648 -0.0738  1.2132 -0.2120
 9308TIP3    H249416   4.223   2.956  13.702  0.2706 -0.6276  0.7491
 9309TIP3   OH249417   0.541   6.179  11.603 -0.2170 -0.5863  0.0180
 9309TIP3    H149418   0.477   6.136  11.546  1.7361 -0.5594 -2.3231
 9309TIP3    H249419   0.626   6.146  11.573  1.1384  2.2525  0.4577
 9310TIP3   OH249420   5.740   1.120   3.155 -0.1044  0.0388 -0.1257
 9310TIP3    H149421   5.697   1.141   3.072  0.8639  1.3392 -0.3357
 9310TIP3    H249422   5.798   1.047   3.134  1.0518  1.1389 -0.9350
 9311TIP3   OH249423   3.482   4.572   2.290  0.3490 -0.2013 -0.2962
 9311TIP3    H149424   3.528   4.553   2.208 -0.9605 -0.6006 -0.9499
 9311TIP3    H249425   3.538   4.638   2.333  1.6930 -0.8948 -0.9051
 9312TIP3   OH249426   5.210   0.996   6.514 -0.2123  0.1871  0.2172
 9312TIP3    H149427   5.223   0.905   6.538  1.7073  0.6363  0.9888
 9312TIP3    H249428   5.232   1.046   6.592 -1.0125  1.3403 -0.2547
 9313TIP3   OH249429   0.353   1.062   2.601  0.0882  0.1102 -0.5123
 9313TIP3    H149430   0.383   1.140   2.555  1.2642  1.0750  1.7385
 9313TIP3    H249431   0.408   0.992   2.567  0.0509  0.5283 -1.4705
 9314TIP3   OH249432   2.696   3.956  16.974  0.6876  0.1547  0.1221
 9314TIP3    H149433   2.697   4.026  16.908  0.6938  0.6563  0.6481
 9314TIP3    H249434   2.655   3.996  17.051  1.6165 -0.1136  0.7664
 9315TIP3   OH249435   1.665   5.872  12.239 -0.5823 -0.2563  0.5826
 9315TIP3    H149436   1.660   5.790  12.288 -1.8497 -0.5179  0.0426
 9315TIP3    H249437   1.577   5.911  12.248 -0.7081 -0.1013 -1.1056
 9316TIP3   OH249438   0.204   0.244  11.242  0.5217 -0.3649 -0.0151
 9316TIP3    H149439   0.238   0.328  11.275 -0.8233 -0.0194  0.5745
 9316TIP3    H249440   0.222   0.182  11.313 -1.3318  0.1354  0.9652
 9317TIP3   OH249441   3.553   1.757  14.867  0.3466 -0.0763  0.7379
 9317TIP3    H149442   3.475   1.773  14.920 -0.7696 -0.5740 -0.6812
 9317TIP3    H249443   3.614   1.827  14.892 -0.4655  0.2156  2.0110
 9318TIP3   OH249444   5.860   6.004  16.036 -0.9711 -0.3315 -0.4524
 9318TIP3    H149445   5.882   6.094  16.057 -2.0229  0.2755 -1.7965
 9318TIP3    H249446   5.876   5.956  16.117 -0.6221  1.0952  0.3558
 9319TIP3   OH249447   6.649   2.582  14.262  0.9235 -0.4014 -0.7037
 9319TIP3    H149448   6.733   2.608  14.298  1.3195 -0.2726 -1.6901
 9319TIP3    H249449   6.590   2.653  14.287  1.2109 -0.2688 -0.3990
 9320TIP3   OH249450   0.557   6.679  17.158 -0.3852 -0.1282  0.0519
 9320TIP3    H149451   0.536   6.658  17.067  1.1727 -0.2261 -0.3083
 9320TIP3    H249452   0.489   6.740  17.185 -3.8193 -3.7090  0.4060
 9321TIP3   OH249453   6.738   0.803   1.744 -0.6363  0.9714 -0.1531
 9321TIP3    H149454   6.791   0.882   1.748  0.9660 -0.0257 -0.7424
 9321TIP3    H249455   6.763   0.761   1.662 -2.3570  0.4319 -0.4599
 9322TIP3   OH249456   2.260   5.847  11.173  0.4274  0.2616  0.7504
 9322TIP3    H149457   2.340   5.818  11.217  2.0839  0.5828 -1.8549
 9322TIP3    H249458   2.285   5.928  11.129 -2.2137  2.0553  2.2529
 9323TIP3   OH249459   4.396   6.294  14.277 -0.0292 -0.3307  0.0114
 9323TIP3    H149460   4.453   6.348  14.221 -0.5880  0.2728  0.0160
 9323TIP3    H249461   4.404   6.206  14.240  1.5159 -0.4200  0.4833
 9324TIP3   OH249462   3.248   5.740   5.056 -0.3204  0.0585 -0.2390
 9324TIP3    H149463   3.228   5.683   4.982  0.5239 -0.8961  0.2509
 9324TIP3    H249464   3.268   5.825   5.016 -2.9245  0.4495 -0.8959
 9325TIP3   OH249465   3.193   0.678  12.345  0.1313 -0.0845  0.2148
 9325TIP3    H149466   3.141   0.733  12.287  1.0383  1.6901  0.9913
 9325TIP3    H249467   3.133   0.611  12.376 -0.9082  0.1968 -1.1068
 9326TIP3   OH249468   4.824   3.604  15.998  0.0104 -0.2712  0.0471
 9326TIP3    H149469   4.797   3.571  15.913  1.9795  1.7322 -1.4811
 9326TIP3    H249470   4.906   3.557  16.017  0.4255  0.4246  0.0217
 9327TIP3   OH249471   6.038   3.296  16.323  0.5038 -0.7429 -0.3805
 9327TIP3    H149472   6.102   3.355  16.282  0.8627  0.4599  1.7982
 9327TIP3    H249473   6.080   3.268  16.404 -1.0793 -1.2786  0.2821
 9328TIP3   OH249474   0.062   3.111   5.809  0.0640  0.1679  0.2859
 9328TIP3    H149475  -0.016   3.096   5.863 -0.0646  0.3921  0.1623
 9328TIP3    H249476   0.102   3.190   5.845  1.3465 -1.0402  1.6392
 9329TIP3   OH249477   4.321   1.303   5.665 -0.2413  0.0489  0.5393
 9329TIP3    H149478   4.240   1.354   5.670  0.6782  1.6030  0.3788
 9329TIP3    H249479   4.337   1.273   5.754 -0.0949  1.2352  0.9326
 9330TIP3   OH249480   4.603   6.202   3.472 -0.8552 -0.2709 -0.8986
 9330TIP3    H149481   4.619   6.215   3.379 -0.0034  0.3004 -0.6871
 9330TIP3    H249482   4.657   6.268   3.515 -2.0045  0.1364 -0.0303
 9331TIP3   OH249483   4.476   3.764   2.733 -0.0171 -0.1503 -0.2163
 9331TIP3    H149484   4.441   3.831   2.675 -2.3612 -0.6043  0.5658
 9331TIP3    H249485   4.524   3.813   2.800 -1.2635  0.7262  0.0579
 9332TIP3   OH249486   6.094   1.083  14.027  0.0231 -0.3271 -0.3451
 9332TIP3    H149487   6.070   1.084  14.120 -0.1212  2.2434 -0.3535
 9332TIP3    H249488   6.152   1.158  14.016  0.0593 -0.5963 -2.3386
 9333TIP3   OH249489   1.718   1.784  17.141 -0.1641  0.0048 -0.4702
 9333TIP3    H149490   1.729   1.877  17.121 -1.6103  0.7124  1.6887
 9333TIP3    H249491   1.724   1.740  17.056  1.8892  1.8928 -1.3926
 9334TIP3   OH249492   0.463   6.675  12.335  0.5532 -0.0580 -0.1555
 9334TIP3    H149493   0.496   6.632  12.256 -1.6283 -2.1041 -0.0699
 9334TIP3    H249494   0.399   6.739  12.303 -0.2960 -0.8543 -0.0891
 9335TIP3   OH249495   3.959   5.407   4.061 -0.2907  0.2011  0.1529
 9335TIP3    H149496   4.029   5.471   4.050 -0.8554  0.8829  0.4441
 9335TIP3    H249497   3.998   5.324   4.032  0.1911  0.8090 -1.0170
 9336TIP3   OH249498   6.539   1.156  11.048  0.0318  0.9070  0.1378
 9336TIP3    H149499   6.621   1.138  11.001  0.3901  2.4347  0.1506
 9336TIP3    H249500   6.508   1.069  11.074  0.7638  0.1522 -1.3320
 9337TIP3   OH249501   0.931   5.535   3.052 -0.1320 -0.5285 -0.0685
 9337TIP3    H149502   0.854   5.535   3.109 -0.9201  0.5444 -1.0690
 9337TIP3    H249503   0.989   5.470   3.089 -0.6477  0.0780  1.9073
 9338TIP3   OH249504   0.046   3.150   0.422  0.3682 -0.2518  0.2219
 9338TIP3    H149505   0.010   3.161   0.334 -0.1164 -0.1219  0.4293
 9338TIP3    H249506   0.071   3.238   0.449  0.7226 -0.3252  0.1249
 9339TIP3   OH249507   3.987   6.243   0.087  0.1062  0.3544 -0.2022
 9339TIP3    H149508   3.971   6.149   0.084 -1.2034  0.4766  1.5226
 9339TIP3    H249509   4.082   6.252   0.077  0.0661 -0.9748 -2.4506
 9340TIP3   OH249510   1.359   5.706  10.977 -0.0378 -0.2137  0.5440
 9340TIP3    H149511   1.409   5.709  10.895 -1.1060 -0.9051 -0.1629
 9340TIP3    H249512   1.397   5.633  11.025  0.8425  0.4250  0.8586
 9341TIP3   OH249513   0.807   1.080  16.029 -0.2867 -0.0848 -0.3099
 9341TIP3    H149514   0.895   1.065  16.064 -0.1129 -0.0137 -0.7072
 9341TIP3    H249515   0.749   1.031  16.087  0.1763 -1.5111 -0.9964
 9342TIP3   OH249516   3.736   0.150  15.124  0.2475  0.8997  0.2234
 9342TIP3    H149517   3.746   0.194  15.209  0.1547  0.5987  0.3925
 9342TIP3    H249518   3.644   0.122  15.123  0.6151 -0.4165  0.6719
 9343TIP3   OH249519   5.840   1.082  14.840 -0.0649 -0.0526 -0.7260
 9343TIP3    H149520   5.863   1.163  14.885 -1.0750  0.7080 -1.5208
 9343TIP3    H249521   5.762   1.050  14.885 -0.2145 -0.0783 -0.9991
 9344TIP3   OH249522   3.225   6.115  15.716 -0.9247 -0.3163 -0.1897
 9344TIP3    H149523   3.203   6.022  15.704  0.4623 -0.7599  0.4258
 9344TIP3    H249524   3.184   6.159  15.642  0.1918 -1.7419 -1.7374
 9345TIP3   OH249525   5.992   2.412  13.028  0.3464  0.8044 -0.3887
 9345TIP3    H149526   5.954   2.472  12.964  0.9502  2.3557  0.6460
 9345TIP3    H249527   6.087   2.426  13.020  0.5402 -0.5618 -0.6248
 9346TIP3   OH249528   2.561   6.548  14.846 -0.5785  0.4168  0.5516
 9346TIP3    H149529   2.601   6.596  14.775 -0.7314  0.3538  0.4218
 9346TIP3    H249530   2.472   6.583  14.853 -0.3220  0.9640  1.2162
 9347TIP3   OH249531   0.152   2.451  11.098  0.5131  0.5603  0.6710
 9347TIP3    H149532   0.187   2.366  11.074  0.0862  0.9964 -1.7452
 9347TIP3    H249533   0.200   2.513  11.043 -1.6077  1.5005 -0.2394
 9348TIP3   OH249534   6.683   3.963   0.293  0.3487 -0.0778  0.5044
 9348TIP3    H149535   6.629   4.030   0.335 -1.5765 -1.7698  0.9026
 9348TIP3    H249536   6.759   3.954   0.349  0.7365  1.8761  0.3397
 9349TIP3   OH249537   4.137   2.175   4.717  0.5278 -0.3050 -0.7908
 9349TIP3    H149538   4.205   2.179   4.649 -0.3379 -1.3326 -1.7564
 9349TIP3    H249539   4.186   2.163   4.799  1.5965  1.0464 -1.1947
 9350TIP3   OH249540   6.268   3.928  10.495  1.0715  0.4117  0.4331
 9350TIP3    H149541   6.350   3.938  10.448  1.8234 -0.1223  1.6031
 9350TIP3    H249542   6.231   3.846  10.463  1.0215  0.6100 -0.0288
 9351TIP3   OH249543   2.227   6.687   4.068 -1.0424 -0.9391  0.4165
 9351TIP3    H149544   2.284   6.711   4.141 -2.5042  2.0125  0.7467
 9351TIP3    H249545   2.154   6.749   4.073 -1.3193 -0.7137 -3.4470
 9352TIP3   OH249546   5.916   1.975  16.047  0.3895 -0.6183 -0.5473
 9352TIP3    H149547   5.851   1.906  16.050 -0.3111  0.0515 -0.0044
 9352TIP3    H249548   5.960   1.971  16.133  1.6623 -1.6151 -1.2126
 9353TIP3   OH249549   1.761   4.893   0.316  0.1762  0.1831  0.2112
 9353TIP3    H149550   1.809   4.847   0.384  0.7692  0.5670  0.0556
 9353TIP3    H249551   1.695   4.830   0.286  0.0836 -0.0732  0.9532
 9354TIP3   OH249552   5.192   3.011  15.232 -0.3758 -0.1735 -0.0637
 9354TIP3    H149553   5.224   2.975  15.315  0.3728  0.8357  0.1088
 9354TIP3    H249554   5.182   2.935  15.175 -0.4419 -0.8338  0.7968
 9355TIP3   OH249555   0.958   4.526   4.858 -0.1270  0.5435  0.3040
 9355TIP3    H149556   0.973   4.587   4.930 -0.7130  1.4274 -0.2927
 9355TIP3    H249557   1.003   4.565   4.783  2.0799 -1.3066  0.5671
 9356TIP3   OH249558   2.491   1.941  17.115  0.2179 -0.7323 -0.0216
 9356TIP3    H149559   2.558   1.924  17.048 -0.8925 -2.0202 -0.8621
 9356TIP3    H249560   2.425   1.993  17.070 -0.0199 -0.6713  0.3949
 9357TIP3   OH249561   0.757   4.653   2.705  0.0496  0.4979 -0.0110
 9357TIP3    H149562   0.798   4.714   2.766 -0.3605  1.0223 -0.2470
 9357TIP3    H249563   0.685   4.614   2.756 -0.9724  1.7272 -0.4525
 9358TIP3   OH249564   4.098   4.367  17.145 -0.5954  0.5522  0.2654
 9358TIP3    H149565   4.162   4.346  17.077 -0.0635 -0.4680  1.0493
 9358TIP3    H249566   4.143   4.430  17.201 -0.3963  0.0915  0.6274
 9359TIP3   OH249567   5.112   4.820  15.837  0.3412 -0.1113  0.0754
 9359TIP3    H149568   5.114   4.750  15.771  0.9458 -0.5279  0.5269
 9359TIP3    H249569   5.019   4.841  15.846 -0.0301 -1.9079  1.0116
 9360TIP3   OH249570   4.774   3.096   0.405 -0.1080  0.2912 -0.7891
 9360TIP3    H149571   4.829   3.053   0.340  3.7744  1.8228  1.1739
 9360TIP3    H249572   4.772   3.036   0.479  1.9676  1.6135  0.4343
 9361TIP3   OH249573   2.073   3.722  13.746 -0.4721 -0.7014 -0.0005
 9361TIP3    H149574   2.154   3.671  13.750  0.1250  0.2279  0.0175
 9361TIP3    H249575   2.057   3.750  13.836 -0.3359 -0.1573 -0.1413
 9362TIP3   OH249576   2.650   6.581  10.392  0.3953 -0.1891 -0.4879
 9362TIP3    H149577   2.562   6.572  10.357  0.2378  1.0098 -0.4404
 9362TIP3    H249578   2.663   6.503  10.446 -0.0877 -1.0976 -1.6286
 9363TIP3   OH249579   6.720   3.795   1.860  0.0658 -0.5313  0.0209
 9363TIP3    H149580   6.679   3.817   1.944 -0.4777  1.0203 -0.6193
 9363TIP3    H249581   6.652   3.808   1.795  0.9429 -0.0789 -0.8359
 9364TIP3   OH249582   3.098   4.872   4.100  0.7183  0.3331 -0.1732
 9364TIP3    H149583   3.142   4.956   4.109  0.3083  0.5145  0.1556
 9364TIP3    H249584   3.147   4.827   4.031  0.4031  1.1839 -0.9724
 9365TIP3   OH249585   1.772   0.053   5.515  0.9626 -0.0576  0.3084
 9365TIP3    H149586   1.775   0.062   5.610  0.4972  0.6624  0.2668
 9365TIP3    H249587   1.859   0.080   5.485  0.1813  2.7839  0.3379
 9366TIP3   OH249588   3.888   1.184  13.491 -0.2967 -0.2652 -0.4285
 9366TIP3    H149589   3.876   1.159  13.582  1.2151  1.6497  0.3787
 9366TIP3    H249590   3.944   1.115  13.454 -1.4944 -1.4244 -0.1537
 9367TIP3   OH249591   5.249   3.386  11.982  0.4929  0.0675  0.1145
 9367TIP3    H149592   5.271   3.425  11.898  1.8616  1.1281  0.9141
 9367TIP3    H249593   5.282   3.296  11.976  1.8763  0.5481 -0.0245
 9368TIP3   OH249594   2.345   3.784  14.680 -0.3192  0.1194  0.2134
 9368TIP3    H149595   2.427   3.735  14.675 -0.8423 -0.8425  0.8152
 9368TIP3    H249596   2.371   3.875  14.669  0.5798 -0.3377 -1.7357
 9369TIP3   OH249597   0.784   2.878  15.632 -0.1245  0.1317 -0.3450
 9369TIP3    H149598   0.689   2.867  15.639 -0.4534  1.5981 -1.8782
 9369TIP3    H249599   0.797   2.972  15.619  1.7444  0.3241  2.1593
 9370TIP3   OH249600   2.599   0.085  15.104  0.1732 -0.1069 -0.4391
 9370TIP3    H149601   2.638   0.091  15.190 -1.6979  0.7225  0.4168
 9370TIP3    H249602   2.509   0.056  15.120 -0.4187  0.7009 -2.0387
 9371TIP3   OH249603   6.587   6.157   1.204 -0.0514 -0.0864  0.1947
 9371TIP3    H149604   6.593   6.091   1.273 -0.7668 -0.0929  0.2626
 9371TIP3    H249605   6.570   6.239   1.251 -0.5490 -0.0929  0.0277
 9372TIP3   OH249606   3.564   0.149  16.071  0.0077 -0.2621  0.1139
 9372TIP3    H149607   3.554   0.181  15.982 -1.6214  1.1746  0.7660
 9372TIP3    H249608   3.654   0.173  16.095 -0.5740  2.3619 -0.0378
 9373TIP3   OH249609   5.354   0.479  13.163  0.3938 -0.4246 -0.7326
 9373TIP3    H149610   5.310   0.411  13.112 -1.5092  1.7586 -2.2329
 9373TIP3    H249611   5.358   0.554  13.104  0.6792  1.3757  1.4364
 9374TIP3   OH249612   5.874   5.691   4.799 -0.0971 -0.4189  0.2648
 9374TIP3    H149613   5.859   5.777   4.838  1.2742 -0.6579  1.3808
 9374TIP3    H249614   5.964   5.695   4.765 -0.7743 -0.6832 -1.6880
 9375TIP3   OH249615   5.243   2.655   5.107 -0.3610  0.1192 -0.2644
 9375TIP3    H149616   5.326   2.611   5.124 -1.4320 -1.7191  0.4888
 9375TIP3    H249617   5.224   2.701   5.189 -1.2943 -1.6090  0.5532
 9376TIP3   OH249618   4.264   2.865  12.792 -0.4781  0.0534 -0.2857
 9376TIP3    H149619   4.176   2.859  12.753 -0.1688 -1.5298 -0.7684
 9376TIP3    H249620   4.249   2.851  12.885 -1.0864  2.8321  0.1218
 9377TIP3   OH249621   5.241   5.827  11.795  0.7342 -0.2328  0.7535
 9377TIP3    H149622   5.169   5.766  11.783  0.5393 -0.1769  1.5869
 9377TIP3    H249623   5.212   5.907  11.751 -0.1844  0.1411  1.9845
 9378TIP3   OH249624   4.359   3.830  15.493  0.0362 -0.1748 -0.0091
 9378TIP3    H149625   4.437   3.876  15.461  0.1147 -0.5255 -0.3267
 9378TIP3    H249626   4.391   3.770  15.559 -0.1719  0.8019  0.9978
 9379TIP3   OH249627   6.354   3.990   2.833  0.0562  0.0489 -0.8977
 9379TIP3    H149628   6.410   4.049   2.882 -1.8434  1.7979 -0.6927
 9379TIP3    H249629   6.357   3.908   2.882  3.3965 -0.4288 -1.6373
 9380TIP3   OH249630   0.271   4.684   3.851 -0.3408  0.3810 -0.1469
 9380TIP3    H149631   0.179   4.685   3.876  0.0324  1.2938  1.3487
 9380TIP3    H249632   0.293   4.776   3.835 -0.0560  0.0199 -2.1152
 9381TIP3   OH249633   2.269   1.179  11.440  0.1549  0.1672  0.1261
 9381TIP3    H149634   2.273   1.144  11.351 -1.7268  1.8465 -0.6772
 9381TIP3    H249635   2.274   1.101  11.496 -0.4901 -1.0926 -1.4950
 9382TIP3   OH249636   1.644   5.378   5.881 -0.2319 -0.1731 -0.1409
 9382TIP3    H149637   1.614   5.407   5.795  0.7310  0.2448 -0.3554
 9382TIP3    H249638   1.641   5.457   5.935 -0.6193 -0.3845  0.1485
 9383TIP3   OH249639   3.376   3.755   2.168 -0.5142 -0.6191  0.3408
 9383TIP3    H149640   3.430   3.797   2.101 -1.1806 -0.1469  0.0849
 9383TIP3    H249641   3.423   3.768   2.250 -0.4925  0.2510  0.1996
 9384TIP3   OH249642   1.282   2.230   1.469 -1.0225  0.9494 -0.0523
 9384TIP3    H149643   1.363   2.191   1.438 -0.2484  1.7247  0.8856
 9384TIP3    H249644   1.215   2.203   1.406 -0.2174 -0.4702 -0.3245
 9385TIP3   OH249645   5.404   1.816  11.826  0.6979  0.6490  0.0709
 9385TIP3    H149646   5.359   1.876  11.767 -2.8029 -0.6411  1.1888
 9385TIP3    H249647   5.415   1.735  11.776 -0.0758  0.3325  0.3965
 9386TIP3   OH249648   3.212   1.280   5.426 -0.1705 -0.5517  0.0829
 9386TIP3    H149649   3.272   1.288   5.499 -1.8387 -0.0040  1.4622
 9386TIP3    H249650   3.135   1.330   5.452 -1.1887 -1.1055 -1.6595
 9387TIP3   OH249651   2.704   5.598   2.400  0.3473  0.4225  0.4122
 9387TIP3    H149652   2.721   5.509   2.430  0.7857  0.5110  0.4366
 9387TIP3    H249653   2.708   5.651   2.480 -0.6051  0.3769  0.5023
 9388TIP3   OH249654   3.582   0.021   4.904  0.0802  1.1390  0.2030
 9388TIP3    H149655   3.605   0.101   4.951 -0.7406  1.9953 -0.7980
 9388TIP3    H249656   3.636   0.023   4.826  0.8263  0.1549  0.6787
 9389TIP3   OH249657   4.683   5.975  14.508 -0.2642 -0.0453  0.5176
 9389TIP3    H149658   4.660   5.986  14.415  0.1176  0.4084  0.4706
 9389TIP3    H249659   4.773   5.944  14.506 -0.0086  0.6696  0.7494
 9390TIP3   OH249660   6.476   0.750   4.367  0.7358 -0.0632 -0.4342
 9390TIP3    H149661   6.416   0.714   4.432 -0.2692  1.9660 -0.1760
 9390TIP3    H249662   6.561   0.711   4.389  0.3267  0.1759  1.7803
 9391TIP3   OH249663   1.392   5.083   0.371 -0.1146 -0.0186 -0.6607
 9391TIP3    H149664   1.317   5.026   0.391  0.4123 -0.3430  0.4607
 9391TIP3    H249665   1.415   5.062   0.281  1.3875 -3.1924  0.3148
 9392TIP3   OH249666   3.540   0.314   5.667 -0.0074  0.3794 -0.1486
 9392TIP3    H149667   3.531   0.406   5.640  0.3033  0.6332  0.5964
 9392TIP3    H249668   3.578   0.318   5.755 -0.6204 -0.4389  0.1736
 9393TIP3   OH249669   6.805   5.995  14.405 -0.0168 -0.3929 -0.5576
 9393TIP3    H149670   6.844   6.077  14.376  0.0219  0.0388  0.6563
 9393TIP3    H249671   6.719   5.993  14.362 -0.5465  0.9127  0.3572
 9394TIP3   OH249672   6.721   6.726   1.222 -0.2081  0.2094 -0.1161
 9394TIP3    H149673   6.669   6.769   1.290 -1.5559  0.5401 -1.2890
 9394TIP3    H249674   6.660   6.717   1.148  1.0780 -0.5065 -1.1287
 9395TIP3   OH249675   3.767   3.968   3.322 -0.2386 -0.3213 -0.0202
 9395TIP3    H149676   3.760   4.063   3.328 -0.0806 -0.1737 -1.7727
 9395TIP3    H249677   3.714   3.936   3.395  1.0572  1.0929  1.6261
 9396TIP3   OH249678   6.644   4.339  12.648  0.0441 -0.3368 -0.1115
 9396TIP3    H149679   6.602   4.396  12.712  0.9644  1.5014 -1.0386
 9396TIP3    H249680   6.738   4.349  12.666  0.4095  1.1872 -2.4096
 9397TIP3   OH249681   3.646   2.612  15.619  0.4070 -0.6822 -0.1146
 9397TIP3    H149682   3.650   2.526  15.661  0.7464  0.5682  2.6648
 9397TIP3    H249683   3.737   2.633  15.598  0.8064  0.1908  2.1041
 9398TIP3   OH249684   4.597   0.433   5.378  0.0318 -0.0517  0.0968
 9398TIP3    H149685   4.631   0.478   5.455  1.1443 -0.9533  0.1690
 9398TIP3    H249686   4.635   0.345   5.383 -1.4669 -0.7609 -0.4349
 9399TIP3   OH249687   6.272   3.432  16.249  0.3754  0.1794 -0.3019
 9399TIP3    H149688   6.270   3.463  16.339  0.1179 -1.1821  0.1861
 9399TIP3    H249689   6.302   3.508  16.198 -0.1759  1.1939  0.8178
 9400TIP3   OH249690   1.635   3.415   5.977  0.1960 -0.1998 -0.5354
 9400TIP3    H149691   1.601   3.335   6.018 -0.4346  0.0520 -0.5597
 9400TIP3    H249692   1.691   3.454   6.044 -0.5668  0.0375 -0.0121
 9401TIP3   OH249693   6.192   2.674  16.828  0.4046  0.0673  0.3691
 9401TIP3    H149694   6.238   2.700  16.748 -2.1974 -0.7190 -1.5303
 9401TIP3    H249695   6.234   2.592  16.855  0.3063 -0.5175 -1.1717
 9402TIP3   OH249696   6.769   5.885   4.805 -0.6496  0.0564  0.2945
 9402TIP3    H149697   6.811   5.855   4.725  1.5852  0.6279  1.1792
 9402TIP3    H249698   6.797   5.823   4.872 -0.8233  0.7385  1.0147
 9403TIP3   OH249699   6.089   6.111   5.009  0.0620 -0.3334  0.0070
 9403TIP3    H149700   6.158   6.051   5.038 -0.2034 -1.1821 -1.0807
 9403TIP3    H249701   6.017   6.054   4.982 -0.9499  0.5295  0.7731
 9404TIP3   OH249702   4.022   6.293  13.828 -0.3528  0.5759 -0.4223
 9404TIP3    H149703   3.994   6.202  13.820  0.6783  0.2384 -0.3249
 9404TIP3    H249704   4.011   6.329  13.740 -1.2763  0.5162 -0.3366
 9405TIP3   OH249705   4.830   3.280   5.985  0.1803  0.1084  0.1026
 9405TIP3    H149706   4.802   3.368   6.009 -0.2273  1.0051 -3.1715
 9405TIP3    H249707   4.846   3.236   6.069 -0.9910  2.8031  1.8783
 9406TIP3   OH249708   1.116   6.190   5.313  0.1441  0.8654 -0.1813
 9406TIP3    H149709   1.045   6.251   5.333  1.7502  2.0373  2.5323
 9406TIP3    H249710   1.135   6.205   5.221 -2.6642  0.9386 -0.8317
 9407TIP3   OH249711   6.615   3.455   0.116 -0.3242  0.2423  0.4181
 9407TIP3    H149712   6.552   3.503   0.170 -0.9612 -1.4246  1.2486
 9407TIP3    H249713   6.618   3.502   0.033 -0.1846  2.2275  1.5003
 9408TIP3   OH249714   1.320   0.227   5.823 -0.6688 -0.2701  0.2732
 9408TIP3    H149715   1.403   0.222   5.775  0.7983  0.5908  2.5407
 9408TIP3    H249716   1.331   0.166   5.896 -1.4594  0.8315  1.3570
 9409TIP3   OH249717   2.750   6.368   3.675 -0.3711 -0.2929 -0.0251
 9409TIP3    H149718   2.843   6.380   3.696 -0.1150 -1.0864 -0.6558
 9409TIP3    H249719   2.742   6.402   3.585 -0.2664 -1.9288 -0.6920
 9410TIP3   OH249720   2.825   5.793   4.818 -0.3303  0.3878 -0.1581
 9410TIP3    H149721   2.841   5.785   4.724  2.8824 -0.5910  0.3489
 9410TIP3    H249722   2.912   5.811   4.856 -1.4820  0.5645  2.6448
 9411TIP3   OH249723   1.389   0.580  15.779  0.3233  0.1600 -0.4483
 9411TIP3    H149724   1.429   0.643  15.718  2.7551  0.9516  1.7634
 9411TIP3    H249725   1.383   0.499  15.729 -0.9093  1.5486 -2.7224
 9412TIP3   OH249726   0.638   3.076  10.612  0.4250  0.3576  0.4003
 9412TIP3    H149727   0.677   3.150  10.565  0.4361 -1.4195 -2.6070
 9412TIP3    H249728   0.552   3.108  10.638  0.5178  1.5218 -0.6067
 9413TIP3   OH249729   2.976   0.245   3.085  0.2562  0.7413 -0.2879
 9413TIP3    H149730   3.017   0.327   3.115 -1.7342  1.8469 -0.3762
 9413TIP3    H249731   2.910   0.274   3.022  0.1414 -1.0462 -1.0404
 9414TIP3   OH249732   2.664   6.126   3.104  0.3515 -0.0366  0.0351
 9414TIP3    H149733   2.749   6.109   3.144  0.2999  1.8578  1.0616
 9414TIP3    H249734   2.607   6.058   3.139  1.2534 -0.8542 -0.0480
 9415TIP3   OH249735   3.596   1.684   1.395 -0.0377 -0.4977 -0.2372
 9415TIP3    H149736   3.516   1.695   1.344 -1.1249 -1.5070  1.1926
 9415TIP3    H249737   3.625   1.595   1.374  2.5478  0.8198 -3.1609
 9416TIP3   OH249738   4.996   3.485  12.098  0.5082 -0.1507 -0.2696
 9416TIP3    H149739   5.083   3.491  12.059  0.5310  0.1978 -0.1705
 9416TIP3    H249740   5.011   3.502  12.191  0.0485  2.2956 -0.5735
 9417TIP3   OH249741   3.371   2.817  15.309  0.0265  0.6668 -0.0564
 9417TIP3    H149742   3.428   2.761  15.363 -1.1377  0.4759  1.0245
 9417TIP3    H249743   3.407   2.808  15.221  1.6283  0.5055  0.5598
 9418TIP3   OH249744   2.821   3.538   5.104 -0.6605  0.7744  0.1538
 9418TIP3    H149745   2.830   3.631   5.085 -1.3512  0.8428  0.1507
 9418TIP3    H249746   2.899   3.498   5.066 -0.5129  1.3076 -0.1090
 9419TIP3   OH249747   4.532   3.518  17.060  0.8612 -0.2414 -0.0837
 9419TIP3    H149748   4.575   3.438  17.030  3.5178  0.6860  0.9450
 9419TIP3    H249749   4.511   3.501  17.152  0.0193 -0.2443 -0.2609
 9420TIP3   OH249750   1.210   2.109  13.384  0.5136 -0.4751 -0.1680
 9420TIP3    H149751   1.266   2.133  13.458 -0.2934 -0.7321  0.5443
 9420TIP3    H249752   1.126   2.087  13.424 -0.9685  2.4362 -1.3983
 9421TIP3   OH249753   1.772   3.779   2.962 -0.1338  0.0239 -0.0543
 9421TIP3    H149754   1.765   3.751   2.871 -1.2557 -1.7991  0.5509
 9421TIP3    H249755   1.771   3.698   3.013 -0.6238  1.0489  1.6543
 9422TIP3   OH249756   4.320   6.750  13.408  0.1817  0.0026  0.3670
 9422TIP3    H149757   4.289   6.795  13.329  1.4388 -0.1351 -0.2375
 9422TIP3    H249758   4.355   6.667  13.376  0.5148 -0.1476  1.1034
 9423TIP3   OH249759   1.817   1.035  10.314  0.0300 -0.2933 -0.4539
 9423TIP3    H149760   1.865   1.088  10.377  1.3000  0.0459 -1.6689
 9423TIP3    H249761   1.749   1.093  10.281 -0.0291 -0.1621 -0.1107
 9424TIP3   OH249762   3.842   3.415   0.293 -0.8161 -0.1707 -0.2985
 9424TIP3    H149763   3.847   3.346   0.226  0.4535 -0.6564  0.2568
 9424TIP3    H249764   3.897   3.382   0.365  0.0711  1.5532 -0.1440
 9425TIP3   OH249765   3.841   1.866  13.590  0.0530 -0.1055  0.1163
 9425TIP3    H149766   3.766   1.899  13.541  0.1353 -0.2752 -0.1258
 9425TIP3    H249767   3.815   1.779  13.619  0.0255 -0.0271  0.3283
 9426TIP3   OH249768   4.061   4.601   0.317 -0.9027  0.1238 -0.0621
 9426TIP3    H149769   3.979   4.621   0.362 -2.5115 -3.2160 -1.1534
 9426TIP3    H249770   4.085   4.514   0.349  1.5963  0.4994 -0.7036
 9427TIP3   OH249771   4.904   1.982   0.201 -0.1259  0.4285  0.0146
 9427TIP3    H149772   4.814   1.971   0.231 -1.0555 -0.3774 -2.8028
 9427TIP3    H249773   4.953   1.914   0.249 -1.1073  0.4499  1.0973
 9428TIP3   OH249774   0.061   0.431  10.398 -0.8177  0.2970 -0.4914
 9428TIP3    H149775   0.096   0.517  10.419  2.1385 -0.2320 -2.6324
 9428TIP3    H249776   0.074   0.380  10.477 -2.9577  1.7882  0.9391
 9429TIP3   OH249777   2.923   3.323  13.115 -0.2569  0.0960 -0.3736
 9429TIP3    H149778   2.894   3.411  13.091  0.9153  1.2170  1.9365
 9429TIP3    H249779   2.911   3.319  13.210  2.4391 -1.1021  0.0126
 9430TIP3   OH249780   2.451   3.327   3.962 -0.3601 -0.5790 -0.1474
 9430TIP3    H149781   2.392   3.396   3.931  1.3466  0.5344 -1.1132
 9430TIP3    H249782   2.536   3.349   3.923  0.7953 -1.9028  1.4669
 9431TIP3   OH249783   1.526   4.310  16.058  0.0049 -0.2405  0.2312
 9431TIP3    H149784   1.603   4.344  16.012 -0.4494  0.0648 -0.3293
 9431TIP3    H249785   1.507   4.376  16.124  0.0603 -0.1842  0.1926
 9432TIP3   OH249786   4.529   2.825   2.998 -0.5597 -0.0152  0.4552
 9432TIP3    H149787   4.614   2.832   2.955  0.2326 -2.2514  1.5095
 9432TIP3    H249788   4.522   2.905   3.051  2.5317 -1.2282  3.0250
 9433TIP3   OH249789   5.804   4.131   3.132  0.5268 -0.0863  0.1204
 9433TIP3    H149790   5.724   4.158   3.086  1.4418  1.2965 -0.7173
 9433TIP3    H249791   5.873   4.141   3.068  1.3578 -1.5462  0.7577
 9434TIP3   OH249792   5.420   2.514  15.210  0.1325  0.0905 -0.0419
 9434TIP3    H149793   5.435   2.483  15.121  0.9085 -0.4286  0.2621
 9434TIP3    H249794   5.504   2.504  15.254 -0.6460 -1.2664  1.2414
 9435TIP3   OH249795   0.176   2.827   1.857  0.1130 -0.2059 -0.3399
 9435TIP3    H149796   0.138   2.890   1.796 -0.7895 -0.5159 -0.1248
 9435TIP3    H249797   0.192   2.748   1.804  0.1583 -0.1806 -0.3637
 9436TIP3   OH249798   5.060   3.181   5.804 -0.2537 -0.6916 -0.4049
 9436TIP3    H149799   5.109   3.100   5.790  1.6538 -0.0432  1.8389
 9436TIP3    H249800   5.009   3.164   5.883 -0.3595  0.0691 -0.3006
 9437TIP3   OH249801   5.474   5.876   4.869 -0.2431 -0.3179 -0.5337
 9437TIP3    H149802   5.559   5.916   4.888 -0.4019  0.3819 -1.2353
 9437TIP3    H249803   5.447   5.837   4.952 -0.8575  2.5443  0.7362
 9438TIP3   OH249804   5.847   4.774   6.225  0.1213 -0.0965  0.2388
 9438TIP3    H149805   5.779   4.815   6.278 -0.9549  0.8145 -1.7505
 9438TIP3    H249806   5.927   4.785   6.277 -1.1632 -1.0901  2.5739
 9439TIP3   OH249807   1.760   4.488  15.571 -0.2136  0.5308  0.2781
 9439TIP3    H149808   1.742   4.503  15.664 -0.6714  1.5515  0.0392
 9439TIP3    H249809   1.737   4.396  15.557  2.7996 -0.5798  1.8346
 9440TIP3   OH249810   5.208   4.453  13.573  0.1905  0.2027  0.2234
 9440TIP3    H149811   5.219   4.526  13.634  0.3206 -0.4522  0.9789
 9440TIP3    H249812   5.284   4.397  13.587 -0.2913 -0.4731  0.1817
 9441TIP3   OH249813   1.448   4.854   2.936 -0.5029 -0.3787  0.2550
 9441TIP3    H149814   1.416   4.829   2.849 -0.1021 -2.9899  0.7513
 9441TIP3    H249815   1.540   4.876   2.922 -0.4729 -0.6636 -0.0231
 9442TIP3   OH249816   1.058   2.648  15.917 -0.3620  0.0740 -0.0002
 9442TIP3    H149817   1.148   2.624  15.940 -0.3692  0.3084  0.2803
 9442TIP3    H249818   1.065   2.695  15.835 -0.2798 -0.3384 -0.2304
 9443TIP3   OH249819   5.574   2.509  11.988  0.1967  0.5192  0.1429
 9443TIP3    H149820   5.613   2.542  11.907  0.7727  0.0912  0.2394
 9443TIP3    H249821   5.643   2.455  12.028 -0.6116 -0.5740  0.1230
 9444TIP3   OH249822   6.364   4.379   0.248  0.5322 -0.0102 -0.1540
 9444TIP3    H149823   6.291   4.317   0.256  0.1310  0.1156 -2.3645
 9444TIP3    H249824   6.329   4.461   0.282  1.1953 -0.9535  3.2009
 9445TIP3   OH249825   2.501   0.788  16.333  0.1323  0.8786 -0.1398
 9445TIP3    H149826   2.437   0.717  16.332  1.4176 -0.3320 -1.2388
 9445TIP3    H249827   2.449   0.867  16.350 -1.4291 -0.2251  0.4431
 9446TIP3   OH249828   4.393   3.149  16.047 -0.1090  0.2917  0.1956
 9446TIP3    H149829   4.305   3.118  16.068  0.3506 -2.6245 -1.5712
 9446TIP3    H249830   4.386   3.244  16.048 -3.6952  0.1973 -1.2068
 9447TIP3   OH249831   3.320   6.675  11.779 -0.2681 -0.3588  0.0120
 9447TIP3    H149832   3.343   6.582  11.790  0.8860  0.0433  1.3020
 9447TIP3    H249833   3.226   6.679  11.795 -0.1645 -1.1826  0.9657
 9448TIP3   OH249834   0.837   2.956   1.852  0.1491  0.0499 -0.2753
 9448TIP3    H149835   0.811   3.025   1.790  4.9311  1.5347 -1.0386
 9448TIP3    H249836   0.889   3.002   1.918  2.9121 -2.6209 -0.3705
 9449TIP3   OH249837   6.003   2.529  16.064 -0.3760 -0.1677 -0.2726
 9449TIP3    H149838   5.934   2.588  16.094 -0.3797  0.6489 -1.7691
 9449TIP3    H249839   5.975   2.443  16.093 -2.6410 -0.0295 -1.7730
 9450TIP3   OH249840   0.743   2.570   2.786  0.3947 -0.3122  0.4512
 9450TIP3    H149841   0.668   2.530   2.832  0.8691 -0.6704  0.9315
 9450TIP3    H249842   0.819   2.542   2.836  0.7861  0.8387  0.5289
 9451TIP3   OH249843   4.988   4.199  14.779 -0.2528  0.2620  0.2434
 9451TIP3    H149844   5.070   4.229  14.817  0.6045 -1.5654 -0.0527
 9451TIP3    H249845   4.960   4.127  14.836 -0.6154 -0.4055 -0.7535
 9452TIP3   OH249846   5.344   2.888  12.400 -0.4831 -0.2788 -0.0692
 9452TIP3    H149847   5.356   2.914  12.308 -0.2255 -3.1379 -0.9436
 9452TIP3    H249848   5.253   2.911  12.419 -0.4719  0.5889 -0.9205
 9453TIP3   OH249849   0.030   1.409  14.918  0.0422 -0.4363  0.3583
 9453TIP3    H149850  -0.044   1.458  14.955 -0.7896 -0.6437 -0.9641
 9453TIP3    H249851  -0.011   1.343  14.862  1.2300 -0.8930 -0.0043
 9454TIP3   OH249852   2.648   0.523   5.290 -0.0582 -0.6189  0.2792
 9454TIP3    H149853   2.604   0.604   5.315 -0.7254 -0.9025  0.0517
 9454TIP3    H249854   2.721   0.551   5.234  1.1842 -0.0104  2.1184
 9455TIP3   OH249855   0.991   1.967  13.220 -0.1193 -0.1356 -0.1840
 9455TIP3    H149856   0.931   1.895  13.206  0.1738 -0.5243  0.5018
 9455TIP3    H249857   1.058   1.957  13.151  0.8603 -1.5375  0.9174
 9456TIP3   OH249858   5.802   4.258  12.423  0.3360 -0.2102 -0.3452
 9456TIP3    H149859   5.853   4.331  12.458 -0.2424 -0.4009  0.9656
 9456TIP3    H249860   5.768   4.213  12.501  0.2776 -1.5953 -1.1271
 9457TIP3   OH249861   3.486   2.135   5.974  0.0496  0.2650 -0.2596
 9457TIP3    H149862   3.571   2.102   6.004  0.6563  2.2743  0.4117
 9457TIP3    H249863   3.435   2.145   6.054 -0.2242  0.5952 -0.4726
 9458TIP3   OH249864   6.057   2.459  11.644  0.1226 -0.0972  0.0605
 9458TIP3    H149865   6.081   2.533  11.699 -0.0827 -0.9625  1.3547
 9458TIP3    H249866   5.972   2.431  11.677  0.3149 -1.0645 -0.2429
 9459TIP3   OH249867   6.187   3.468  16.595  0.2043 -0.5319  0.8482
 9459TIP3    H149868   6.163   3.376  16.603 -1.3304 -0.0704  2.0080
 9459TIP3    H249869   6.201   3.498  16.685 -0.6635  0.6855  0.6149
 9460TIP3   OH249870   2.630   5.528   2.981  0.3026 -0.1062 -0.0749
 9460TIP3    H149871   2.598   5.453   3.031  0.8388 -0.1998  0.1371
 9460TIP3    H249872   2.557   5.590   2.982 -0.2008 -0.6835 -0.3849
 9461TIP3   OH249873   1.765   1.204   4.448  0.2931  0.6104  0.2398
 9461TIP3    H149874   1.845   1.212   4.500  1.6614 -1.0287 -1.4618
 9461TIP3    H249875   1.778   1.266   4.376 -1.0984  2.0779  1.1892
 9462TIP3   OH249876   3.813   1.955   4.260  0.0284  0.1418 -0.0949
 9462TIP3    H149877   3.778   1.866   4.259  0.3208  0.0237 -1.2580
 9462TIP3    H249878   3.897   1.946   4.306  1.4474 -0.7900 -2.6456
 9463TIP3   OH249879   6.377   2.250   5.357  0.2313 -0.0459 -1.0491
 9463TIP3    H149880   6.444   2.182   5.345 -0.8431 -1.1939 -0.6647
 9463TIP3    H249881   6.425   2.332   5.346  1.7503 -0.8350 -0.5837
 9464TIP3   OH249882   3.627   2.910  11.627 -0.4191 -0.0667  0.0048
 9464TIP3    H149883   3.682   2.936  11.553  1.2579 -1.9555  0.4913
 9464TIP3    H249884   3.546   2.879  11.587 -0.4070  0.9647 -0.8671
 9465TIP3   OH249885   3.352   0.188   4.224 -0.0339 -0.2598 -0.1238
 9465TIP3    H149886   3.310   0.272   4.241  2.9540  1.6158 -1.0800
 9465TIP3    H249887   3.293   0.123   4.260 -1.8655  2.3230  1.8795
 9466TIP3   OH249888   0.838   0.920  16.604 -0.1662  0.0028 -0.3916
 9466TIP3    H149889   0.756   0.888  16.566 -0.1615  0.7763 -1.0608
 9466TIP3    H249890   0.835   1.015  16.594 -0.6620  0.3937  2.5521
 9467TIP3   OH249891   1.597   2.075   2.508  0.1473 -0.3802 -0.1050
 9467TIP3    H149892   1.605   1.983   2.483  1.5499  0.2996 -2.5013
 9467TIP3    H249893   1.673   2.092   2.563  0.5735 -0.3951 -0.6739
 9468TIP3   OH249894   0.471   6.827   1.888 -0.0248 -0.0008 -0.4850
 9468TIP3    H149895   0.520   6.909   1.875 -0.4010 -0.0610 -2.5705
 9468TIP3    H249896   0.455   6.824   1.983  2.0236  1.1449 -0.0327
 9469TIP3   OH249897   1.435   0.777   2.197  0.8633 -0.2303 -0.2663
 9469TIP3    H149898   1.373   0.837   2.156 -0.4408  0.4003  2.3911
 9469TIP3    H249899   1.489   0.745   2.125 -0.9451  1.1034 -2.3402
 9470TIP3   OH249900   2.014   2.247  15.590 -0.5322  0.5404  0.6060
 9470TIP3    H149901   2.108   2.227  15.586 -0.4103  1.1671  0.0604
 9470TIP3    H249902   1.982   2.225  15.502 -0.1212  3.9197 -0.5125
 9471TIP3   OH249903   5.613   0.180   5.137 -1.1888 -0.1147  0.1290
 9471TIP3    H149904   5.538   0.121   5.146  0.7554 -3.5031 -3.2625
 9471TIP3    H249905   5.682   0.140   5.191 -0.3353 -0.0729 -0.8846
 9472TIP3   OH249906   6.007   6.649   5.474 -0.0814 -0.1859 -0.2377
 9472TIP3    H149907   5.974   6.569   5.513  1.2642 -0.6619 -0.0064
 9472TIP3    H249908   6.027   6.706   5.548 -1.3860  0.5303 -0.4121
 9473TIP3   OH249909   5.406   1.301   6.385  1.0243  0.0902  0.4194
 9473TIP3    H149910   5.485   1.355   6.391  0.3212  1.0283  1.6318
 9473TIP3    H249911   5.334   1.360   6.405 -0.0701 -0.6286 -1.1538
 9474TIP3   OH249912   0.962   5.339  13.800  0.6412  0.4987 -0.2818
 9474TIP3    H149913   0.984   5.296  13.883 -0.6538 -1.5236 -0.9184
 9474TIP3    H249914   0.886   5.394  13.821  0.3416  0.0239 -0.1185
 9475TIP3   OH249915   6.104   1.488  13.863  0.4640 -0.1550 -0.3761
 9475TIP3    H149916   6.165   1.448  13.924 -0.1403  0.4072  0.6153
 9475TIP3    H249917   6.020   1.445  13.881 -0.1904  1.4949  0.6808
 9476TIP3   OH249918   2.338   5.489  14.751 -0.5585 -0.3058  0.3092
 9476TIP3    H149919   2.355   5.463  14.660  0.9861  1.5479  0.0149
 9476TIP3    H249920   2.294   5.574  14.744  1.2689  0.7707  1.2695
 9477TIP3   OH249921   2.573   5.917  15.826  0.0112 -0.2899  0.3310
 9477TIP3    H149922   2.602   5.856  15.758  2.0819 -0.7736  1.5754
 9477TIP3    H249923   2.606   6.002  15.799  0.4338 -0.3992  0.5077
 9478TIP3   OH249924   1.252   1.560   0.157  0.0017  0.4999  0.6020
 9478TIP3    H149925   1.218   1.501   0.089 -1.4318  1.8292  0.1063
 9478TIP3    H249926   1.281   1.502   0.227 -0.0177 -0.8431 -0.4578
 9479TIP3   OH249927   0.546   5.224  14.445 -0.0428  0.9310  0.3558
 9479TIP3    H149928   0.624   5.210  14.499 -0.6801 -2.9186  0.4977
 9479TIP3    H249929   0.578   5.224  14.355  0.2754  1.0980  0.4648
 9480TIP3   OH249930   6.656   2.890  16.583  0.0373  0.1893  0.3795
 9480TIP3    H149931   6.644   2.969  16.635  1.2662  0.7387 -0.1360
 9480TIP3    H249932   6.739   2.903  16.536 -0.8485 -0.4000 -1.4820
 9481TIP3   OH249933   5.404   5.461   1.010  0.2269 -0.1706  0.0071
 9481TIP3    H149934   5.384   5.501   0.925  0.2238 -2.8977 -1.4052
 9481TIP3    H249935   5.483   5.410   0.994  0.5949 -0.2499  1.8464
 9482TIP3   OH249936   1.283   1.691   2.301  0.3398 -0.4936 -0.2596
 9482TIP3    H149937   1.376   1.672   2.290  0.6822  1.5292 -1.3526
 9482TIP3    H249938   1.241   1.646   2.227  0.9725  1.6427 -2.0342
 9483TIP3   OH249939   5.755   1.326   0.732 -0.5740  0.0452 -0.7425
 9483TIP3    H149940   5.691   1.395   0.748 -0.1567  0.6789 -1.7634
 9483TIP3    H249941   5.757   1.276   0.814 -1.4263  0.7837 -0.2587
 9484TIP3   OH249942   2.562   1.922  11.879  0.1939  0.1464 -0.0317
 9484TIP3    H149943   2.512   1.961  11.952  1.3867  1.1472  0.2811
 9484TIP3    H249944   2.600   1.997  11.834  2.0518 -0.6004  0.2059
 9485TIP3   OH249945   1.217   5.120  14.969 -0.7743  0.4588 -0.0689
 9485TIP3    H149946   1.308   5.097  14.948 -0.3196  0.3003  1.8820
 9485TIP3    H249947   1.206   5.209  14.934  0.4807  0.8875  0.5674
 9486TIP3   OH249948   6.521   6.402   5.368  0.1713 -0.0105 -0.4138
 9486TIP3    H149949   6.433   6.378   5.398  0.2605 -0.5292 -0.5610
 9486TIP3    H249950   6.506   6.450   5.287  0.0599 -0.7809 -0.8543
 9487TIP3   OH249951   4.721   1.117  11.940  0.1486  0.1979  0.0727
 9487TIP3    H149952   4.648   1.178  11.951  1.4459  1.9745 -0.6969
 9487TIP3    H249953   4.724   1.100  11.846  0.0499 -0.7520  0.2352
 9488TIP3   OH249954   3.893   0.230  15.621 -0.7180 -0.1840  0.0626
 9488TIP3    H149955   3.938   0.241  15.537 -2.9092  0.7300 -1.0789
 9488TIP3    H249956   3.858   0.141  15.618 -0.4623 -0.2897  0.1890
 9489TIP3   OH249957   6.588   4.408   2.822  0.0008 -0.2156  0.6802
 9489TIP3    H149958   6.507   4.451   2.793 -1.7938 -2.6454  1.7438
 9489TIP3    H249959   6.599   4.335   2.761  0.9782 -0.3647  1.0239
 9490TIP3   OH249960   2.252   4.695   2.606 -0.4699  0.1751  0.4656
 9490TIP3    H149961   2.290   4.712   2.520 -1.7110  1.7498  0.1835
 9490TIP3    H249962   2.195   4.619   2.592 -0.3738  0.1865 -0.0173
 9491TIP3   OH249963   0.903   0.107  13.879 -0.1729  0.1147 -0.5480
 9491TIP3    H149964   0.815   0.088  13.912 -0.8374  1.8082 -1.1925
 9491TIP3    H249965   0.892   0.190  13.830  1.2802 -0.8401 -2.6443
 9492TIP3   OH249966   2.521   6.060  11.576 -0.0290  0.3435 -0.2193
 9492TIP3    H149967   2.453   6.123  11.601 -0.5270  0.2949 -1.3514
 9492TIP3    H249968   2.574   6.049  11.654  0.8381  3.1200 -0.3216
 9493TIP3   OH249969   5.724   1.688  12.643 -0.5723  0.1470 -0.2997
 9493TIP3    H149970   5.656   1.644  12.591 -0.3773 -1.3689  0.6622
 9493TIP3    H249971   5.681   1.708  12.726 -0.4581  1.2049 -0.4846
 9494TIP3   OH249972   3.972   6.320   5.052  0.1043  0.3537 -0.4841
 9494TIP3    H149973   4.038   6.375   5.009 -0.0813  0.5501 -0.5201
 9494TIP3    H249974   3.925   6.278   4.980  3.5563 -3.9948 -0.5907
 9495TIP3   OH249975   0.783   3.331  14.988 -0.0892  0.4958  0.0562
 9495TIP3    H149976   0.698   3.304  15.022  0.3845  0.2922  1.0942
 9495TIP3    H249977   0.792   3.282  14.906  0.0276 -1.2640  1.0840
 9496TIP3   OH249978   2.864   1.973   1.495 -0.0161  0.3697  0.3417
 9496TIP3    H149979   2.859   1.978   1.590 -0.3422 -0.3500  0.3758
 9496TIP3    H249980   2.773   1.980   1.466 -0.2829 -2.2345  0.2863
 9497TIP3   OH249981   2.711   0.270  17.193 -0.4204  0.0331 -0.3497
 9497TIP3    H149982   2.677   0.353  17.159 -1.6428  0.1519  1.0795
 9497TIP3    H249983   2.781   0.246  17.132 -1.4737  1.0142 -2.0158
 9498TIP3   OH249984   4.553   5.799  16.401 -0.1246 -0.2239 -0.1801
 9498TIP3    H149985   4.496   5.828  16.330  1.3724 -0.1519 -1.4147
 9498TIP3    H249986   4.604   5.877  16.424 -0.4196 -0.3142  0.8194
 9499TIP3   OH249987   1.170   2.041  16.488 -0.1601 -0.4578  0.5419
 9499TIP3    H149988   1.152   2.092  16.409  1.4238 -0.7372 -0.0543
 9499TIP3    H249989   1.182   2.106  16.557  0.1777 -0.1004  0.1550
 9500TIP3   OH249990   2.554   3.124   3.752 -0.5292  0.1614  0.5621
 9500TIP3    H149991   2.497   3.199   3.768 -1.5972 -0.4113 -0.3865
 9500TIP3    H249992   2.500   3.063   3.701  0.4203 -1.1049  1.0142
 9501TIP3   OH249993   2.800   3.030  11.969  0.1926 -0.3300  0.1118
 9501TIP3    H149994   2.748   3.067  11.897 -0.7727  0.7856  1.3215
 9501TIP3    H249995   2.847   3.105  12.005  0.2495 -0.7771  0.9804
 9502TIP3   OH249996   4.155   2.916   1.242  0.0747 -0.0750  0.3395
 9502TIP3    H149997   4.076   2.951   1.202 -0.9248 -0.6864  1.6880
 9502TIP3    H249998   4.193   2.859   1.175 -0.7978 -0.0183 -0.2152
 9503TIP3   OH249999   1.013   1.543   5.621 -0.2774 -0.5875 -0.1226
 9503TIP3    H150000   1.079   1.591   5.671 -2.1974  1.5263  0.5043
 9503TIP3    H250001   1.048   1.541   5.532 -0.3848  2.6554 -0.3325
 9504TIP3   OH250002   0.995   6.827  15.060 -0.3320  0.0132  0.4054
 9504TIP3    H150003   0.984   6.809  15.154 -1.3179  1.3886  0.5810
 9504TIP3    H250004   1.044   6.910  15.058 -1.8313  0.9268 -0.2399
 9505TIP3   OH250005   1.205   0.601   4.250  0.5835 -0.3399  0.0760
 9505TIP3    H150006   1.211   0.661   4.325  1.5681 -0.3852  0.0410
 9505TIP3    H250007   1.125   0.627   4.205 -0.7912 -1.1894  1.8952
 9506TIP3   OH250008   0.631   0.216  15.751 -0.0727  0.6500  0.1247
 9506TIP3    H150009   0.648   0.308  15.731  0.0979  0.4924 -0.4951
 9506TIP3    H250010   0.663   0.204  15.840 -0.1421  1.2057  0.2266
 9507TIP3   OH250011   5.211   3.807   6.305  0.2648  0.0946 -0.9845
 9507TIP3    H150012   5.267   3.859   6.362 -1.0339 -1.1204  1.5517
 9507TIP3    H250013   5.129   3.857   6.300  0.4076  0.2492 -1.9074
 9508TIP3   OH250014   1.621   1.533   4.713  0.1335  0.3163 -0.1624
 9508TIP3    H150015   1.690   1.472   4.738 -1.4783 -0.5970  2.2793
 9508TIP3    H250016   1.553   1.479   4.675 -0.6616  0.7624  0.5951
 9509TIP3   OH250017   3.793   4.672   5.713  0.2172 -0.2843  0.3245
 9509TIP3    H150018   3.806   4.758   5.751 -0.3129 -0.1719  0.2561
 9509TIP3    H250019   3.831   4.611   5.777 -0.4942 -0.0839  0.9422
 9510TIP3   OH250020   4.136   1.962  11.218  0.0397  0.2111  0.4839
 9510TIP3    H150021   4.210   1.974  11.279  0.0692  0.0904  0.4712
 9510TIP3    H250022   4.084   1.892  11.257 -0.8671  1.2715  1.2804
 9511TIP3   OH250023   6.189   4.936   6.148 -0.0128 -0.0941  0.3478
 9511TIP3    H150024   6.181   4.877   6.223 -0.7225 -1.6180 -0.8732
 9511TIP3    H250025   6.167   5.023   6.183 -0.0155 -0.7060  1.9469
 9512TIP3   OH250026   5.177   6.549  13.210 -0.6073 -0.2788  0.2085
 9512TIP3    H150027   5.148   6.461  13.186 -0.5131 -0.5221  0.9520
 9512TIP3    H250028   5.249   6.568  13.150  0.4797 -1.3992  1.0938
 9513TIP3   OH250029   2.945   6.009  12.728  0.4441  0.0612 -0.4172
 9513TIP3    H150030   2.953   6.104  12.734  0.2648  0.1133 -0.9268
 9513TIP3    H250031   3.032   5.979  12.701  0.8327 -0.0383  0.8555
 9514TIP3   OH250032   0.381   3.881  11.835  1.3041  0.3394 -0.7740
 9514TIP3    H150033   0.296   3.879  11.790  0.1549 -0.3114  1.2967
 9514TIP3    H250034   0.408   3.973  11.831 -1.4939  1.4796  1.8574
 9515TIP3   OH250035   1.667   2.202  10.904  0.0411  0.1926 -0.3540
 9515TIP3    H150036   1.761   2.190  10.897  0.2672  1.0935  0.8339
 9515TIP3    H250037   1.641   2.151  10.981 -0.5422 -0.5356 -1.0214
 9516TIP3   OH250038   3.747   0.714   4.712 -0.6823  0.0855 -0.1013
 9516TIP3    H150039   3.681   0.659   4.755 -0.4017  0.5054  0.9003
 9516TIP3    H250040   3.732   0.801   4.747  0.7732  0.0794  0.6129
 9517TIP3   OH250041   4.991   4.903   3.805 -0.3887 -0.0291  0.3558
 9517TIP3    H150042   4.971   4.945   3.889  0.9003  0.5354  0.3974
 9517TIP3    H250043   5.069   4.850   3.822 -0.4647 -0.3864 -0.3518
 9518TIP3   OH250044   6.118   1.739  15.654 -0.2213  0.3541 -0.6010
 9518TIP3    H150045   6.169   1.801  15.708 -1.7681  0.0664  1.3117
 9518TIP3    H250046   6.033   1.782  15.644 -1.2692 -1.3111  0.6199
 9519TIP3   OH250047   4.719   4.702  13.408 -0.3564 -0.0385 -0.0587
 9519TIP3    H150048   4.639   4.754  13.417 -0.2564  0.4682 -1.7534
 9519TIP3    H250049   4.789   4.767  13.404 -0.0073 -0.4137 -0.0472
 9520TIP3   OH250050   1.543   0.601   0.689  0.0949 -0.2485 -0.1471
 9520TIP3    H150051   1.631   0.617   0.724 -0.4277 -1.6040  1.9811
 9520TIP3    H250052   1.518   0.685   0.649  2.7418 -0.1422 -1.8710
 9521TIP3   OH250053   5.647   2.431   4.157 -0.5221  0.8057 -0.0247
 9521TIP3    H150054   5.722   2.467   4.205 -1.0380  0.0822  1.3951
 9521TIP3    H250055   5.576   2.430   4.222 -0.6570 -2.2974 -0.0729
 9522TIP3   OH250056   6.047   1.398   1.611 -0.0936 -0.2541  0.8397
 9522TIP3    H150057   6.128   1.365   1.572  0.2743 -0.3190  1.6312
 9522TIP3    H250058   5.977   1.363   1.555  0.2717 -2.3462  1.5983
 9523TIP3   OH250059   4.584   5.810  14.757  0.5475  0.1272  0.0278
 9523TIP3    H150060   4.522   5.738  14.746  0.0524  0.7767 -2.0539
 9523TIP3    H250061   4.670   5.769  14.751  0.2745 -0.2825 -1.7639
 9524TIP3   OH250062   1.818   4.218  14.408  0.9924  0.3747 -0.6731
 9524TIP3    H150063   1.913   4.223  14.393  1.2331  0.8424  0.7980
 9524TIP3    H250064   1.783   4.295  14.365  1.7249  1.9891  1.4151
 9525TIP3   OH250065   2.254   1.569  15.733 -0.8389  0.1264  0.2989
 9525TIP3    H150066   2.205   1.499  15.689  1.7919 -1.7814  0.1804
 9525TIP3    H250067   2.217   1.650  15.696 -0.5210 -1.2696 -3.6208
 9526TIP3   OH250068   5.741   1.566  11.573  0.1710  0.5076  0.0683
 9526TIP3    H150069   5.769   1.549  11.483  0.3494  1.3695 -0.0449
 9526TIP3    H250070   5.666   1.507  11.587 -0.3157  0.8953 -0.8860
 9527TIP3   OH250071   2.982   3.938  13.795 -0.3633  0.2578 -0.0632
 9527TIP3    H150072   2.908   3.911  13.740 -1.4293  0.2276  1.3200
 9527TIP3    H250073   3.003   3.861  13.847 -0.9432  0.9453  1.2285
 9528TIP3   OH250074   6.827   2.662   4.558 -0.0412 -0.9049  0.0663
 9528TIP3    H150075   6.802   2.678   4.649 -0.7140  1.3206 -0.4561
 9528TIP3    H250076   6.917   2.630   4.563 -0.0515 -0.7590  1.4971
 9529TIP3   OH250077   5.949   1.755   3.065 -0.2081 -0.4878 -0.8484
 9529TIP3    H150078   5.969   1.669   3.027  1.8049 -0.5968  0.3462
 9529TIP3    H250079   5.862   1.744   3.104  0.9096 -2.7494  1.2750
 9530TIP3   OH250080   2.195   2.767  11.201 -0.0918  0.2713  0.2762
 9530TIP3    H150081   2.253   2.698  11.235 -1.0096 -0.6854 -0.0488
 9530TIP3    H250082   2.152   2.727  11.125 -3.2826 -0.0813  2.1085
 9531TIP3   OH250083   1.656   3.970   2.700  0.1637  0.2559  0.5049
 9531TIP3    H150084   1.692   4.005   2.618 -2.0851  0.2096 -0.5789
 9531TIP3    H250085   1.678   3.877   2.698 -0.6486  0.0745 -0.5163
 9532TIP3   OH250086   4.101   3.314  16.957 -0.5519  0.2247 -0.3332
 9532TIP3    H150087   4.090   3.276  16.870  0.3920  0.4309 -0.5570
 9532TIP3    H250088   4.014   3.343  16.982 -1.2858 -1.8627 -0.2378
 9533TIP3   OH250089   4.438   1.272  17.056  0.2972 -0.0359 -0.4620
 9533TIP3    H150090   4.511   1.233  17.105  0.7002 -0.1629 -1.1621
 9533TIP3    H250091   4.442   1.231  16.970  0.8837  1.7087 -1.2998
 9534TIP3   OH250092   4.212   5.869   4.122  0.3746  0.6187 -0.6705
 9534TIP3    H150093   4.171   5.858   4.036  0.5468 -0.0654 -0.6707
 9534TIP3    H250094   4.300   5.903   4.102  0.3468  0.6439 -0.7523
 9535TIP3   OH250095   0.861   5.578   2.789 -0.3117  0.2292 -0.2640
 9535TIP3    H150096   0.892   5.577   2.880  1.1369 -1.6348 -0.6967
 9535TIP3    H250097   0.818   5.494   2.778  0.0081  0.2022 -1.4367
 9536TIP3   OH250098   6.215   0.368   0.737  0.7670 -0.2541 -0.4804
 9536TIP3    H150099   6.247   0.281   0.757 -1.4007 -1.0989 -0.3714
 9536TIP3    H250100   6.293   0.419   0.718  2.0271 -2.6577 -2.2894
 9537TIP3   OH250101   4.583   2.304   0.021 -0.1656  0.0500 -0.1887
 9537TIP3    H150102   4.546   2.218   0.000 -1.0744  0.4795 -0.3800
 9537TIP3    H250103   4.512   2.351   0.064  0.2340  0.8126 -0.3475
 9538TIP3   OH250104   2.829   0.247  16.783 -0.8515  0.3374  0.2077
 9538TIP3    H150105   2.890   0.306  16.738 -2.2697  1.4694 -0.2745
 9538TIP3    H250106   2.749   0.298  16.794 -1.5591 -0.9388  1.3225
 9539TIP3   OH250107   3.059   2.103  14.542 -0.1856  0.3115  0.4805
 9539TIP3    H150108   3.113   2.051  14.601  1.3548  1.0003 -0.2551
 9539TIP3    H250109   3.121   2.157  14.494 -1.5720  1.4025 -0.1760
 9540TIP3   OH250110   2.391   2.301  11.950 -0.4626  0.5237  0.2430
 9540TIP3    H150111   2.387   2.361  12.025 -1.4456  0.1954  0.4638
 9540TIP3    H250112   2.374   2.215  11.987  2.4099 -0.1670  0.1688
 9541TIP3   OH250113   1.236   5.916   4.326 -0.6024 -0.8116  0.4882
 9541TIP3    H150114   1.322   5.900   4.363  0.4689 -0.1290 -1.5575
 9541TIP3    H250115   1.204   5.829   4.300  0.9625 -0.8269 -1.7085
 9542TIP3   OH250116   5.383   1.913   2.377 -0.3665 -0.3729 -0.3020
 9542TIP3    H150117   5.298   1.942   2.345 -0.4496 -0.7334 -0.4124
 9542TIP3    H250118   5.414   1.984   2.433 -2.8743 -2.1001  3.7224
 9543TIP3   OH250119   5.883   2.130   3.897  0.1493 -0.2740  0.0213
 9543TIP3    H150120   5.803   2.177   3.920 -0.3432 -1.7358  1.4808
 9543TIP3    H250121   5.951   2.172   3.950  0.3697  0.9119 -1.1540
 9544TIP3   OH250122   2.772   4.260   6.657 -0.4229 -0.0744 -0.4507
 9544TIP3    H150123   2.783   4.344   6.612 -1.5694  0.6912  0.6071
 9544TIP3    H250124   2.700   4.276   6.719  1.0355 -1.0838  1.6164
 9545TIP3   OH250125   1.583   1.612  11.976 -0.7136 -0.2697  0.3648
 9545TIP3    H150126   1.643   1.562  12.031  1.8582  0.9031 -1.1932
 9545TIP3    H250127   1.517   1.549  11.949 -0.1808 -1.6467  2.0991
 9546TIP3   OH250128   1.820   2.478  10.816  0.5058  0.6263  0.0234
 9546TIP3    H150129   1.798   2.482  10.909 -0.7274  1.7285 -0.2857
 9546TIP3    H250130   1.767   2.547  10.776 -0.7818 -1.3142 -1.8510
 9547TIP3   OH250131   3.043   3.099   5.826 -0.0713  0.1377  0.0951
 9547TIP3    H150132   2.957   3.142   5.828 -0.7175 -1.0568 -0.7569
 9547TIP3    H250133   3.037   3.029   5.891  1.0394  1.3595  1.6038
 9548TIP3   OH250134   3.927   2.180   0.349  0.0069  0.0769  0.4267
 9548TIP3    H150135   3.863   2.133   0.403 -0.6550 -0.1890 -0.5614
 9548TIP3    H250136   3.875   2.244   0.300  0.3701 -0.7186 -1.0270
 9549TIP3   OH250137   4.118   4.592  12.363 -0.3015 -0.5058  0.5134
 9549TIP3    H150138   4.123   4.640  12.280 -0.3200 -0.9589  0.2475
 9549TIP3    H250139   4.208   4.591  12.396 -0.5546  1.1645  1.3653
 9550TIP3   OH250140   5.330   3.927  16.915 -0.0050  0.3331 -0.2779
 9550TIP3    H150141   5.330   3.835  16.889  0.1425  0.3588 -0.3678
 9550TIP3    H250142   5.389   3.930  16.991 -2.7903 -0.3235  2.1110
 9551TIP3   OH250143   6.007   6.056   5.586 -0.7314  0.1538 -0.3893
 9551TIP3    H150144   6.073   6.115   5.622  1.1535 -1.6788 -0.5952
 9551TIP3    H250145   5.971   6.011   5.663 -0.3297 -0.1762 -0.3834
 9552TIP3   OH250146   1.374   4.283   4.391 -0.6296 -0.1345 -0.4118
 9552TIP3    H150147   1.337   4.368   4.413  0.2632  0.5693 -1.4921
 9552TIP3    H250148   1.464   4.288   4.424 -0.3989 -0.4202 -0.9775
 9553TIP3   OH250149   3.855   3.281   4.411 -0.5230  0.4650 -0.1585
 9553TIP3    H150150   3.859   3.224   4.334 -0.8966  1.1161 -0.6726
 9553TIP3    H250151   3.920   3.245   4.471 -0.6649 -0.4241 -0.5215
 9554TIP3   OH250152   1.519   5.635  13.749 -0.0307 -0.0629  0.1018
 9554TIP3    H150153   1.546   5.543  13.753 -1.1287 -0.6265 -3.0188
 9554TIP3    H250154   1.568   5.671  13.675  1.9600  2.5521  2.4719
 9555TIP3   OH250155   2.490   0.845   5.031  0.5175  0.2210  0.0976
 9555TIP3    H150156   2.498   0.924   4.978  1.9876 -0.0296 -0.1203
 9555TIP3    H250157   2.445   0.873   5.110 -1.5544  0.6334 -1.1785
 9556TIP3   OH250158   5.086   5.099  11.603  0.2216 -0.2460  0.3978
 9556TIP3    H150159   5.039   5.136  11.678  1.2746 -0.1042  1.0054
 9556TIP3    H250160   5.123   5.175  11.558  0.4810 -0.4020  0.3463
 9557TIP3   OH250161   1.374   1.245  15.252  0.5016 -0.0899  0.1213
 9557TIP3    H150162   1.422   1.259  15.333  0.1509  1.0429  0.1546
 9557TIP3    H250163   1.412   1.165  15.215  0.2364 -0.9703  1.6903
 9558TIP3   OH250164   6.201   5.103  11.396 -0.2205  0.1654  0.5228
 9558TIP3    H150165   6.183   5.166  11.326  0.3274 -1.7848 -1.4957
 9558TIP3    H250166   6.114   5.077  11.428 -0.4512  1.7599  1.2891
 9559TIP3   OH250167   3.072   6.781   0.667 -0.4839  0.2322  0.1998
 9559TIP3    H150168   3.028   6.799   0.750 -1.3113  0.3821 -0.2613
 9559TIP3    H250169   3.160   6.815   0.679 -0.2973 -0.5915  1.3537
 9560TIP3   OH250170   5.403   4.868  11.728 -0.1443  1.1340  0.3478
 9560TIP3    H150171   5.314   4.854  11.697  0.4062 -1.0384 -0.4354
 9560TIP3    H250172   5.394   4.880  11.823 -1.2524  0.7824  0.2991
 9561TIP3   OH250173   2.756   2.790   2.613  0.4497 -0.3351  0.1205
 9561TIP3    H150174   2.716   2.873   2.640  0.1322 -0.2176 -0.6792
 9561TIP3    H250175   2.703   2.723   2.656 -1.1292 -0.2128 -1.5211
 9562TIP3   OH250176   4.055   3.824  16.335  0.2304 -0.5831 -0.4822
 9562TIP3    H150177   3.986   3.859  16.392 -0.3404 -3.8250  1.0053
 9562TIP3    H250178   4.020   3.837  16.247  0.2166  2.6530 -0.1430
 9563TIP3   OH250179   3.939   2.036  14.754 -0.4568 -0.7552  0.1763
 9563TIP3    H150180   3.914   2.048  14.846  2.3606 -1.9998  1.2175
 9563TIP3    H250181   4.012   1.975  14.757  1.7125  1.4349 -2.6153
 9564TIP3   OH250182   0.992   0.062  10.097  0.7323 -0.3509 -0.1916
 9564TIP3    H150183   1.072   0.043  10.048  0.4310 -0.4698 -0.6404
 9564TIP3    H250184   0.971   0.153  10.077  0.4574 -0.4799 -0.5122
 9565TIP3   OH250185   6.062   5.487  14.483 -0.1195 -0.0282  0.6373
 9565TIP3    H150186   6.036   5.478  14.575 -0.5483  0.7182  0.5968
 9565TIP3    H250187   6.115   5.408  14.465 -1.4226 -1.0302  1.0374
 9566TIP3   OH250188   0.571   2.926   2.306 -0.1059 -0.5604  0.9049
 9566TIP3    H150189   0.570   3.000   2.245 -0.0217 -1.0454  0.3166
 9566TIP3    H250190   0.628   2.955   2.377 -0.9144  0.3578  1.1994
 9567TIP3   OH250191   6.210   6.463  13.070  0.0042 -0.1639 -0.1793
 9567TIP3    H150192   6.145   6.486  13.136 -0.3253 -1.0840 -0.1691
 9567TIP3    H250193   6.260   6.543  13.056 -2.4126  1.2052 -1.6879
 9568TIP3   OH250194   1.841   6.213  16.836 -0.3108 -0.2755  0.0306
 9568TIP3    H150195   1.815   6.134  16.788  0.2431 -0.0467 -0.6667
 9568TIP3    H250196   1.830   6.284  16.773  0.7135 -0.0037  0.1451
 9569TIP3   OH250197   2.561   3.610  14.655  0.1381  0.0849 -0.0993
 9569TIP3    H150198   2.626   3.545  14.680  1.2916  1.2504 -0.0034
 9569TIP3    H250199   2.574   3.622  14.561 -1.0873 -0.8958 -0.4212
 9570TIP3   OH250200   6.641   4.588   0.995 -0.2019  0.8159  0.1315
 9570TIP3    H150201   6.664   4.563   1.084  1.4118 -2.7123 -1.0799
 9570TIP3    H250202   6.589   4.515   0.962 -0.3158  1.7815 -1.9977
 9571TIP3   OH250203   0.385   0.540  11.640 -0.2739 -0.1552 -0.7614
 9571TIP3    H150204   0.344   0.595  11.574  1.8255  1.6652 -0.6616
 9571TIP3    H250205   0.353   0.452  11.621 -3.4392  0.9743 -1.1734
 9572TIP3   OH250206   1.570   1.948  12.080 -0.1957  0.1318 -0.0441
 9572TIP3    H150207   1.516   1.956  12.158 -0.2489 -0.2309 -0.0400
 9572TIP3    H250208   1.510   1.920  12.012 -0.2988  1.2295 -0.4132
 9573TIP3   OH250209   2.277   3.545  11.707  0.4206  0.4833 -0.5849
 9573TIP3    H150210   2.270   3.632  11.747 -0.4638  0.7244 -1.2291
 9573TIP3    H250211   2.190   3.529  11.670 -0.1122 -1.5573  1.3112
 9574TIP3   OH250212   1.644   6.602   2.571  0.1470  0.2611 -0.0942
 9574TIP3    H150213   1.714   6.545   2.604  0.5086  1.4518  1.2858
 9574TIP3    H250214   1.691   6.675   2.530 -0.3118  0.2893 -0.5760
 9575TIP3   OH250215   5.327   2.828  13.679 -0.4645  0.3320 -0.2772
 9575TIP3    H150216   5.392   2.774  13.635 -1.2784 -1.1618  0.3084
 9575TIP3    H250217   5.325   2.796  13.769 -1.6706  0.6712 -0.1654
 9576TIP3   OH250218   6.429   5.373  12.578  0.1194 -0.3489 -0.6395
 9576TIP3    H150219   6.472   5.388  12.494  0.5521 -1.1522 -0.5675
 9576TIP3    H250220   6.346   5.420  12.571  0.6549  0.5742 -1.0693
 9577TIP3   OH250221   3.801   5.217   2.465  0.6183  0.2225  0.4814
 9577TIP3    H150222   3.852   5.139   2.484  0.9856  0.3557  0.0604
 9577TIP3    H250223   3.839   5.252   2.385 -0.0458  0.4061  0.2371
 9578TIP3   OH250224   2.086   0.800   5.033  0.1431  0.1542  0.0073
 9578TIP3    H150225   2.142   0.790   4.957  0.4746 -0.3670  0.3137
 9578TIP3    H250226   2.045   0.886   5.022 -1.1847 -0.6417 -1.6493
 9579TIP3   OH250227   4.105   4.349   0.404  0.1050  0.0671 -0.6915
 9579TIP3    H150228   4.090   4.317   0.493  3.9659 -0.2053  0.0545
 9579TIP3    H250229   4.083   4.274   0.348 -1.8801  0.0731 -0.0015
 9580TIP3   OH250230   1.057   6.141  11.629 -0.1439  0.0243  0.3294
 9580TIP3    H150231   1.068   6.212  11.565  2.6862  0.7249  1.4137
 9580TIP3    H250232   0.965   6.145  11.654 -0.3498  2.6196 -0.5021
 9581TIP3   OH250233   3.218   2.342   0.627 -0.1580  0.5387 -0.1649
 9581TIP3    H150234   3.147   2.404   0.610 -0.2510  0.2558 -0.8197
 9581TIP3    H250235   3.298   2.394   0.618 -0.2067  0.4488 -1.3163
 9582TIP3   OH250236   4.153   3.599  13.103  0.4840 -0.0024  0.3847
 9582TIP3    H150237   4.131   3.630  13.016 -2.2895  0.0587  1.0114
 9582TIP3    H250238   4.160   3.679  13.156 -0.9585 -0.1252  0.8110
 9583TIP3   OH250239   4.309   5.847  16.531 -1.1973 -0.0575 -0.1438
 9583TIP3    H150240   4.262   5.868  16.450 -1.6511 -0.6573 -0.0444
 9583TIP3    H250241   4.400   5.833  16.503 -1.4161 -0.6066 -0.6125
 9584TIP3   OH250242   1.659   6.515   5.087 -0.0526  0.1443 -0.3787
 9584TIP3    H150243   1.663   6.606   5.058  0.8157 -0.0446 -0.8842
 9584TIP3    H250244   1.703   6.466   5.018 -1.6587 -0.8420 -0.7713
 9585TIP3   OH250245   0.153   1.533  12.154  0.5853  0.1388  0.0432
 9585TIP3    H150246   0.118   1.513  12.241  0.7323 -0.2785  0.0055
 9585TIP3    H250247   0.077   1.530  12.096  0.9648 -3.1611 -0.4642
 9586TIP3   OH250248   2.529   2.540   2.571 -0.1482 -0.0650 -0.0065
 9586TIP3    H150249   2.579   2.462   2.597 -0.7002 -0.0621  1.1321
 9586TIP3    H250250   2.521   2.591   2.652 -1.1557  0.4049 -0.3870
 9587TIP3   OH250251   1.132   5.555  10.900 -0.2979 -0.1878  0.1341
 9587TIP3    H150252   1.090   5.528  10.982  0.5522 -0.6474  0.4318
 9587TIP3    H250253   1.211   5.602  10.928  0.3949 -0.9911 -0.4121
 9588TIP3   OH250254   2.427   0.056   4.560 -0.2522  0.1412  0.4118
 9588TIP3    H150255   2.428   0.105   4.642  0.5852  0.1912  0.3810
 9588TIP3    H250256   2.358   0.096   4.508 -0.1113  0.7692  0.7050
 9589TIP3   OH250257   5.284   2.344   4.910  0.0805 -0.3934  0.0354
 9589TIP3    H150258   5.335   2.326   4.989 -0.3990 -0.1265  0.4109
 9589TIP3    H250259   5.219   2.409   4.937  0.0609 -0.1269 -0.6381
 9590TIP3   OH250260   3.393   1.443   2.859 -0.3741  0.8209  0.5605
 9590TIP3    H150261   3.412   1.377   2.792  2.6071  1.2868  0.8200
 9590TIP3    H250262   3.372   1.522   2.810  0.0814  0.7125  0.1834
 9591TIP3   OH250263   2.467   4.946   3.234  0.2171 -0.5905 -0.2623
 9591TIP3    H150264   2.561   4.944   3.252 -0.0814 -0.6408  1.3886
 9591TIP3    H250265   2.454   5.028   3.187  0.7801  0.5792  1.5186
 9592TIP3   OH250266   3.893   0.939  15.637  0.0283  0.5228  0.3518
 9592TIP3    H150267   3.859   0.982  15.558  1.1293 -1.4298 -1.2566
 9592TIP3    H250268   3.815   0.903  15.679 -0.6332  2.0023  0.4551
 9593TIP3   OH250269   1.260   1.121   2.562 -0.1027 -0.0189  0.7370
 9593TIP3    H150270   1.335   1.093   2.509 -0.1773  1.2574 -0.0850
 9593TIP3    H250271   1.185   1.078   2.522  0.1678 -1.3751  1.6173
 9594TIP3   OH250272   1.751   2.127  12.694 -0.0547  0.3737  0.0237
 9594TIP3    H150273   1.802   2.084  12.625 -1.3168  0.4985 -1.0281
 9594TIP3    H250274   1.792   2.213  12.705 -0.0607  0.4926 -0.8376
 9595TIP3   OH250275   0.839   1.231   2.068  0.0927 -0.6096 -0.4512
 9595TIP3    H150276   0.918   1.268   2.028  0.0170 -0.6528 -0.6407
 9595TIP3    H250277   0.864   1.216   2.159 -0.2503  1.1015 -0.0298
 9596TIP3   OH250278   4.171   4.340   1.543 -0.0998  0.0374 -0.1554
 9596TIP3    H150279   4.131   4.276   1.484 -0.3473  0.0195  0.0309
 9596TIP3    H250280   4.190   4.415   1.487 -2.3688  0.9099  0.1473
 9597TIP3   OH250281   4.070   1.385  15.390  0.5735  0.4538  0.3156
 9597TIP3    H150282   4.033   1.472  15.403 -1.2351  0.3446 -3.0431
 9597TIP3    H250283   4.159   1.401  15.359  0.9778  0.9982  1.7112
 9598TIP3   OH250284   3.036   6.025   2.628 -0.2788 -0.1206 -0.0690
 9598TIP3    H150285   3.060   5.964   2.559  0.0477  0.8126 -0.7948
 9598TIP3    H250286   3.069   6.110   2.599 -0.5805  0.3865  0.9923
 9599TIP3   OH250287   6.659   2.268   2.278 -0.3567  0.2012  0.1353
 9599TIP3    H150288   6.709   2.243   2.356  0.2580 -0.9189 -0.5846
 9599TIP3    H250289   6.588   2.323   2.311 -1.0897 -1.5688  1.6942
 9600TIP3   OH250290   2.061   2.755  12.638 -1.0816  0.4118  0.6177
 9600TIP3    H150291   2.040   2.681  12.581  1.1236  0.0491  0.1681
 9600TIP3    H250292   2.094   2.822  12.578  1.8673 -0.1909  1.4019
 9601TIP3   OH250293   0.720   3.989  15.240  0.2785  0.5649  0.0889
 9601TIP3    H150294   0.650   4.008  15.302  0.1429 -1.7759  0.7657
 9601TIP3    H250295   0.773   3.922  15.283  1.3866  0.3597 -1.4911
 9602TIP3   OH250296   2.210   2.207   4.327  0.4473  0.2848 -0.1424
 9602TIP3    H150297   2.296   2.173   4.304  0.1283 -1.2050  0.7270
 9602TIP3    H250298   2.228   2.270   4.397  0.8539  0.1579 -0.1292
 9603TIP3   OH250299   5.194   6.810  16.464 -0.0039  0.1265  0.4576
 9603TIP3    H150300   5.282   6.791  16.432 -0.6189 -1.4888 -0.4279
 9603TIP3    H250301   5.181   6.903  16.445  1.1773  0.1651 -0.2491
 9604TIP3   OH250302   0.956   0.356  14.372 -0.2903 -0.2504 -0.2054
 9604TIP3    H150303   0.949   0.260  14.370  0.3296 -0.3096  0.4463
 9604TIP3    H250304   0.903   0.384  14.297  0.2631 -1.1421 -0.9531
 9605TIP3   OH250305   5.580   3.930   5.496  0.3569  0.0194 -0.2541
 9605TIP3    H150306   5.511   3.880   5.539  1.7666 -0.9468  1.0075
 9605TIP3    H250307   5.634   3.962   5.567  2.3572 -0.9910 -1.2188
 9606TIP3   OH250308   1.119   4.947   5.255  0.3568  0.2426 -0.2506
 9606TIP3    H150309   1.107   4.897   5.335  0.5206 -1.3544 -1.1738
 9606TIP3    H250310   1.031   4.960   5.220  0.4087 -0.5927 -0.6974
 9607TIP3   OH250311   3.818   5.896   4.761 -0.5214 -0.0039  0.0144
 9607TIP3    H150312   3.785   5.941   4.683  0.4134  1.7277  0.5677
 9607TIP3    H250313   3.747   5.902   4.824 -0.6854  0.0414 -0.1749
 9608TIP3   OH250314   4.184   0.994  15.709 -0.2373 -0.0161 -0.6049
 9608TIP3    H150315   4.093   1.024  15.712  0.0236  0.7673 -0.2786
 9608TIP3    H250316   4.185   0.916  15.765 -0.4330  0.7555  0.5141
 9609TIP3   OH250317   4.686   1.899  13.898 -0.1273 -0.1323 -0.2492
 9609TIP3    H150318   4.758   1.957  13.923 -0.8121  0.7399 -0.2463
 9609TIP3    H250319   4.725   1.811  13.897  0.7585  0.2326  0.4629
 9610TIP3   OH250320   4.503   0.220  15.532  0.3170 -0.2219 -0.2532
 9610TIP3    H150321   4.563   0.226  15.458  1.1668  1.5633  0.5147
 9610TIP3    H250322   4.506   0.128  15.558  3.0537 -0.1400 -0.0098
 9611TIP3   OH250323   5.067   1.721  13.456  0.0800  0.6263  0.1503
 9611TIP3    H150324   5.085   1.767  13.374  0.8099 -1.0213 -0.6702
 9611TIP3    H250325   5.154   1.698  13.491 -0.2138  1.4275  1.4812
 9612TIP3   OH250326   6.635   5.910  13.176  0.1356 -0.0875  0.7355
 9612TIP3    H150327   6.583   5.965  13.119  0.3032 -1.2418 -0.5816
 9612TIP3    H250328   6.573   5.878  13.242 -0.2280  0.6194  0.7475
 9613TIP3   OH250329   0.590   3.073   4.357 -0.1479  0.0689  0.3719
 9613TIP3    H150330   0.631   3.023   4.287 -0.4733  1.7571 -1.1085
 9613TIP3    H250331   0.634   3.043   4.437  0.7966 -1.3462 -0.6271
 9614TIP3   OH250332   4.232   1.720   2.491  0.0595  0.0175  0.2601
 9614TIP3    H150333   4.149   1.761   2.514  0.9345  1.4416  1.0786
 9614TIP3    H250334   4.273   1.782   2.431  2.0672  1.1884  2.6729
 9615TIP3   OH250335   3.690   4.798   6.194  0.4121  0.4315  0.5575
 9615TIP3    H150336   3.667   4.758   6.278  0.8078 -0.1182  0.4082
 9615TIP3    H250337   3.785   4.788   6.188  0.1780 -1.4815 -0.9225
 9616TIP3   OH250338   6.375   3.660  11.774  0.0280 -0.1798 -0.4890
 9616TIP3    H150339   6.363   3.619  11.859  0.0511  0.8106  0.0069
 9616TIP3    H250340   6.287   3.679  11.744  0.0629  0.9791  0.0865
 9617TIP3   OH250341   5.176   2.427   4.246  0.2207  0.2228  0.2678
 9617TIP3    H150342   5.208   2.517   4.236  0.5898  0.0406 -0.2129
 9617TIP3    H250343   5.231   2.375   4.188 -0.3412 -0.2349  0.1313
 9618TIP3   OH250344   5.688   0.638   0.482 -0.2826 -0.3333  0.2100
 9618TIP3    H150345   5.671   0.732   0.476 -0.0520 -0.2606  0.7215
 9618TIP3    H250346   5.729   0.616   0.398  0.9981  0.2941  0.6605
 9619TIP3   OH250347   1.831   2.213  14.330  0.4084 -0.1784 -0.6096
 9619TIP3    H150348   1.841   2.223  14.425 -0.4344 -1.3094 -0.3804
 9619TIP3    H250349   1.741   2.182  14.318  0.6834 -0.6019 -1.7290
 9620TIP3   OH250350   6.456   4.733   4.761  0.4068  0.2808 -0.3687
 9620TIP3    H150351   6.363   4.742   4.780  0.3894  0.2931 -0.4561
 9620TIP3    H250352   6.489   4.673   4.829  0.0619 -0.7938 -1.1140
 9621TIP3   OH250353   6.209   6.025  16.197 -0.4218 -0.3405 -0.1974
 9621TIP3    H150354   6.201   5.931  16.178 -1.6163  0.0278 -1.6608
 9621TIP3    H250355   6.251   6.062  16.120 -1.6235  0.5960 -0.4271
 9622TIP3   OH250356   5.731   0.649   1.692  0.4270  0.0893 -0.1696
 9622TIP3    H150357   5.781   0.730   1.703 -0.4744  0.7399 -0.6815
 9622TIP3    H250358   5.639   0.678   1.692  0.0991 -0.9237 -0.4475
 9623TIP3   OH250359   0.802   3.562  14.600 -0.1737  0.1996 -0.2070
 9623TIP3    H150360   0.762   3.621  14.663 -0.0123  0.4648 -0.3551
 9623TIP3    H250361   0.875   3.611  14.563  0.8046 -0.5669  0.6431
 9624TIP3   OH250362   2.545   3.146  12.682 -0.7679  0.0392  0.8102
 9624TIP3    H150363   2.599   3.170  12.607 -1.5251 -2.1576 -0.5340
 9624TIP3    H250364   2.474   3.211  12.682  0.6699  1.6705  1.3157
 9625TIP3   OH250365   3.168   1.036  15.036 -0.8936  0.4329 -0.2058
 9625TIP3    H150366   3.126   1.024  14.950  0.3049  1.4331 -0.9597
 9625TIP3    H250367   3.213   0.953  15.052 -1.3569  0.1356 -0.4069
 9626TIP3   OH250368   0.706   4.839   4.398 -0.3698 -0.4327  0.4210
 9626TIP3    H150369   0.763   4.766   4.422 -0.5978 -0.8257 -0.2203
 9626TIP3    H250370   0.753   4.885   4.329 -0.2127  0.0522  0.8443
 9627TIP3   OH250371   0.943   4.488  16.547  0.7602 -0.2475 -0.4228
 9627TIP3    H150372   0.860   4.535  16.545  0.1387 -1.1337  1.5107
 9627TIP3    H250373   0.954   4.454  16.458 -0.0349  1.3700 -1.1643
 9628TIP3   OH250374   6.198   3.553   2.857 -0.4460 -0.1560 -0.4659
 9628TIP3    H150375   6.177   3.628   2.801  0.6145  0.8559  0.4320
 9628TIP3    H250376   6.168   3.477   2.807 -0.3486  0.7659 -2.0115
 9629TIP3   OH250377   5.460   0.124  11.087  0.1473 -0.1354  0.3682
 9629TIP3    H150378   5.467   0.045  11.140 -1.6790 -0.8067 -0.2831
 9629TIP3    H250379   5.502   0.192  11.139  0.5770 -1.2619  1.5516
 9630TIP3   OH250380   6.478   4.450  11.123 -0.9268  0.1348 -0.3587
 9630TIP3    H150381   6.423   4.520  11.087 -0.8444 -0.2629 -1.2969
 9630TIP3    H250382   6.517   4.409  11.046 -0.9309 -0.9100  0.1784
 9631TIP3   OH250383   4.611   6.174   1.894  0.2273 -0.3971  0.1396
 9631TIP3    H150384   4.539   6.210   1.840 -1.3026 -0.3269  2.1134
 9631TIP3    H250385   4.567   6.134   1.968  2.2618 -0.3399  1.4448
 9632TIP3   OH250386   1.323   0.068  14.170 -0.0767  0.7436 -0.0520
 9632TIP3    H150387   1.326   0.163  14.178  1.3833  0.6654  0.8455
 9632TIP3    H250388   1.249   0.051  14.113  0.4870  2.4994 -1.4190
 9633TIP3   OH250389   0.561   2.113   0.661  0.2984 -0.3733 -0.3590
 9633TIP3    H150390   0.636   2.073   0.616  0.5702  0.0428 -0.2839
 9633TIP3    H250391   0.520   2.040   0.708  0.1999 -0.7530 -1.0169
 9634TIP3   OH250392   1.533   5.595   0.021 -0.1168  0.5653 -0.3815
 9634TIP3    H150393   1.569   5.568   0.106  0.6070 -0.9806 -1.1387
 9634TIP3    H250394   1.608   5.627  -0.029 -0.4633  1.0534 -0.5982
 9635TIP3   OH250395   4.596   2.954  12.994  0.0428 -0.1772  0.3151
 9635TIP3    H150396   4.534   2.904  13.047  1.2993 -0.1058  1.9349
 9635TIP3    H250397   4.558   3.042  12.991  0.5343  0.1677  2.2669
 9636TIP3   OH250398   6.361   5.335   3.870  0.1437 -0.0117  0.1242
 9636TIP3    H150399   6.302   5.263   3.892 -2.0128  2.1756  1.9938
 9636TIP3    H250400   6.441   5.317   3.920 -0.3329 -1.1258  0.5108
 9637TIP3   OH250401   2.927   2.335  14.729  1.0234 -0.1292  0.4301
 9637TIP3    H150402   2.987   2.261  14.723  1.5002  0.2822 -0.0064
 9637TIP3    H250403   2.845   2.303  14.691  1.1054 -0.5548  0.6130
 9638TIP3   OH250404   5.042   1.368  11.900 -0.4377 -0.0160  0.6343
 9638TIP3    H150405   4.974   1.364  11.968  0.1815  0.0726  1.2737
 9638TIP3    H250406   4.998   1.404  11.824 -0.8954  0.8946  1.3133
 9639TIP3   OH250407   3.950   4.544  16.897  0.5985 -0.1961  0.0747
 9639TIP3    H150408   4.007   4.603  16.945  2.1485 -1.0211 -0.6948
 9639TIP3    H250409   4.009   4.480  16.858 -0.8179 -0.8478 -1.0832
 9640TIP3   OH250410   5.793   4.075  13.260  0.5609  0.0034  0.4253
 9640TIP3    H150411   5.863   4.059  13.324  0.6715 -0.0738  0.2861
 9640TIP3    H250412   5.820   4.025  13.183  0.6563  0.4624  0.1581
 9641TIP3   OH250413   3.266   0.348   5.365 -0.1132 -0.4964  0.2708
 9641TIP3    H150414   3.351   0.305   5.359  0.1011 -0.0907  0.3980
 9641TIP3    H250415   3.205   0.286   5.324  0.2204 -0.8415  0.2934
 9642TIP3   OH250416   2.081   4.409   4.382 -0.2671 -0.2919 -0.0714
 9642TIP3    H150417   2.065   4.489   4.433 -1.0058 -0.6438  0.2658
 9642TIP3    H250418   2.036   4.340   4.431 -1.4007 -0.5600 -1.4257
 9643TIP3   OH250419   3.208   4.259  15.960 -0.1373  0.6338  0.3012
 9643TIP3    H150420   3.137   4.321  15.976  0.3848  0.8468  1.9802
 9643TIP3    H250421   3.219   4.259  15.865 -0.4865  2.7391  0.2227
 9644TIP3   OH250422   4.731   6.340   1.270 -0.1310  0.7845  0.4660
 9644TIP3    H150423   4.663   6.369   1.330  0.2133 -0.4822  1.5354
 9644TIP3    H250424   4.713   6.246   1.258 -0.2515  1.0188 -1.5248
 9645TIP3   OH250425   2.401   0.473   2.812  0.2304 -0.4758 -0.5226
 9645TIP3    H150426   2.409   0.432   2.898  0.5648 -2.8716 -1.6043
 9645TIP3    H250427   2.485   0.518   2.799  0.6584 -1.1193 -0.0701
 9646TIP3   OH250428   2.145   4.660  12.935  0.5923 -0.2318 -0.2785
 9646TIP3    H150429   2.143   4.633  13.026 -1.7099  1.6245  0.3132
 9646TIP3    H250430   2.165   4.754  12.938 -0.3538  0.0472 -1.5928
 9647TIP3   OH250431   5.176   0.546   0.306  0.4129 -0.4518 -0.1527
 9647TIP3    H150432   5.236   0.541   0.380 -0.4904  0.7716  0.7038
 9647TIP3    H250433   5.098   0.588   0.341 -0.1034  0.0110 -1.7559
 9648TIP3   OH250434   2.176   3.051   1.392  0.8817 -0.4081  0.2914
 9648TIP3    H150435   2.132   3.001   1.324  1.1495 -1.3362  0.7794
 9648TIP3    H250436   2.226   3.118   1.345  0.7151 -0.7556 -0.3843
 9649TIP3   OH250437   1.484   2.899   6.382 -0.1152 -0.1749  0.5793
 9649TIP3    H150438   1.542   2.864   6.449 -0.3458  0.9653  1.4154
 9649TIP3    H250439   1.524   2.874   6.299  0.6396 -0.8724  1.1396
 9650TIP3   OH250440   4.722   1.045  15.936 -0.2940  0.5214  0.3889
 9650TIP3    H150441   4.788   0.976  15.947 -1.1111 -0.1455  1.2830
 9650TIP3    H250442   4.657   1.027  16.004 -1.7815  0.7365 -0.9269
 9651TIP3   OH250443   6.607   5.670  12.994  0.3651  0.8249  0.4486
 9651TIP3    H150444   6.586   5.604  12.927  1.4156  0.0896  0.8223
 9651TIP3    H250445   6.523   5.686  13.038 -0.2010  0.8249 -0.5889
 9652TIP3   OH250446   2.726   4.589   0.661 -0.5244  0.2080  0.2988
 9652TIP3    H150447   2.810   4.546   0.678  0.6217  2.4294  0.6142
 9652TIP3    H250448   2.679   4.527   0.605  1.1617 -1.2676  0.4092
 9653TIP3   OH250449   0.493   4.005  16.837 -0.5409  0.5412 -0.2128
 9653TIP3    H150450   0.539   4.088  16.852  0.2434 -0.0608  0.8397
 9653TIP3    H250451   0.563   3.942  16.822 -1.1614  0.2203 -1.9762
 9654TIP3   OH250452   2.361   5.628  12.972 -0.2693 -0.1389 -0.3729
 9654TIP3    H150453   2.414   5.568  13.023  0.0977  0.8350  0.4278
 9654TIP3    H250454   2.314   5.572  12.910  0.6002 -1.1595 -0.1385
 9655TIP3   OH250455   4.689   1.157  15.689 -0.1386 -0.1689 -0.0101
 9655TIP3    H150456   4.685   1.136  15.782 -0.7240 -1.5593 -0.3242
 9655TIP3    H250457   4.653   1.080  15.646  0.5961  0.2455 -1.4170
 9656TIP3   OH250458   6.769   4.207   0.548  0.1241  0.4068  0.6755
 9656TIP3    H150459   6.840   4.195   0.485  0.4557 -1.0038  1.2791
 9656TIP3    H250460   6.694   4.234   0.495  0.8921  1.1217 -0.0712
 9657TIP3   OH250461   1.411   3.868   4.667  0.1691 -0.2478  0.7417
 9657TIP3    H150462   1.489   3.818   4.690  0.7766 -0.0771 -0.8238
 9657TIP3    H250463   1.445   3.951   4.634 -0.4144 -1.2653 -2.8407
 9658TIP3   OH250464   6.299   1.844   3.447 -0.1330  0.0884 -0.0337
 9658TIP3    H150465   6.354   1.782   3.494  2.7656  1.3563 -1.4524
 9658TIP3    H250466   6.274   1.799   3.367  2.0796  0.6390 -1.1251
 9659TIP3   OH250467   6.222   5.251  14.354 -0.7908 -0.1654 -0.0448
 9659TIP3    H150468   6.273   5.175  14.328  0.4981  0.5794  0.1970
 9659TIP3    H250469   6.200   5.295  14.272 -0.4490 -0.1288 -0.1184
 9660TIP3   OH250470   3.188   2.098  16.923  0.4161 -0.5546 -0.0197
 9660TIP3    H150471   3.216   2.088  16.832  1.0144 -1.1953  0.2235
 9660TIP3    H250472   3.268   2.125  16.969 -0.3834  2.2246 -0.0587
 9661TIP3   OH250473   1.343   3.344   5.883  0.0839  0.1090  0.0858
 9661TIP3    H150474   1.310   3.379   5.966  1.4539 -2.2789  1.7542
 9661TIP3    H250475   1.406   3.410   5.853 -0.6535  1.1580  0.7402
 9662TIP3   OH250476   6.414   3.387   5.912  0.3260  0.4723  0.2757
 9662TIP3    H150477   6.394   3.467   5.864 -0.4343  0.1441  0.0436
 9662TIP3    H250478   6.329   3.346   5.928  0.8311 -1.4027 -1.5232
 9663TIP3   OH250479   2.988   6.527   3.344  0.2033 -0.1681 -0.6444
 9663TIP3    H150480   2.987   6.616   3.379  1.2736 -0.4491  0.1444
 9663TIP3    H250481   3.001   6.538   3.250  0.0206  0.5139 -0.5958
 9664TIP3   OH250482   5.108   0.827   3.524  0.1663  0.0721 -0.3992
 9664TIP3    H150483   5.194   0.839   3.484 -0.3592  0.9110 -1.3097
 9664TIP3    H250484   5.048   0.824   3.450 -0.8320  1.6580  0.3088
 9665TIP3   OH250485   1.857   0.880  12.813 -0.2602  0.0089 -0.1560
 9665TIP3    H150486   1.871   0.788  12.838  1.0575  0.3347  0.3717
 9665TIP3    H250487   1.798   0.914  12.880  2.1441  0.4995  1.8484
 9666TIP3   OH250488   2.805   4.003   3.336  0.5992 -0.1502 -0.2048
 9666TIP3    H150489   2.899   3.989   3.327  0.5980 -1.5397  1.3617
 9666TIP3    H250490   2.791   4.094   3.311  2.8120  0.9550  2.1251
 9667TIP3   OH250491   1.524   1.806  14.215  0.0279 -0.3378 -0.1113
 9667TIP3    H150492   1.585   1.740  14.247 -1.0228 -2.1414 -1.5770
 9667TIP3    H250493   1.578   1.867  14.164  1.1365  0.4878  1.9395
 9668TIP3   OH250494   3.788   3.048  15.941 -0.0433 -0.2462 -0.3518
 9668TIP3    H150495   3.817   2.988  15.873 -0.5776 -0.1393 -0.6776
 9668TIP3    H250496   3.714   3.003  15.983  0.5867 -0.5303  0.4913
 9669TIP3   OH250497   5.588   6.770   0.380  0.1786 -0.6368  0.0419
 9669TIP3    H150498   5.526   6.723   0.325 -1.1516 -1.1429  1.8854
 9669TIP3    H250499   5.674   6.739   0.352 -0.2339  0.6253 -3.0862
 9670TIP3   OH250500   2.813   3.824   5.092  0.3687 -0.5103  0.2140
 9670TIP3    H150501   2.884   3.837   5.029  0.7223 -0.4138  0.6227
 9670TIP3    H250502   2.781   3.913   5.110  0.0138 -0.5704 -0.1158
 9671TIP3   OH250503   4.756   5.269   3.975 -0.4750 -0.1965  0.1499
 9671TIP3    H150504   4.749   5.210   3.899  0.4917 -1.6312  1.1213
 9671TIP3    H250505   4.848   5.297   3.974  0.0374 -1.6673  1.7719
 9672TIP3   OH250506   2.818   3.581   3.377  0.3764 -0.5591 -0.3212
 9672TIP3    H150507   2.864   3.497   3.372 -0.6862 -1.1535 -0.4029
 9672TIP3    H250508   2.732   3.564   3.340  0.8866  1.1547 -2.4884
 9673TIP3   OH250509   0.317   4.498  17.109  0.2602 -0.1452  0.0306
 9673TIP3    H150510   0.256   4.425  17.094 -0.6369  0.5146  0.3551
 9673TIP3    H250511   0.383   4.462  17.168 -0.8822 -0.3608  1.2374
 9674TIP3   OH250512   5.635   3.430   6.493  0.5103  0.5438 -1.0378
 9674TIP3    H150513   5.709   3.370   6.500 -0.9100 -1.1677  0.0524
 9674TIP3    H250514   5.660   3.490   6.423  3.4040  0.7766  0.0298
 9675TIP3   OH250515   1.888   4.337  12.169 -0.0028  0.6317  0.5539
 9675TIP3    H150516   1.881   4.422  12.211  0.2321 -0.3878  2.7853
 9675TIP3    H250517   1.837   4.278  12.225 -0.5203 -0.6437 -1.1646
 9676TIP3   OH250518   6.424   6.006  17.135  0.2983  0.1991  0.0473
 9676TIP3    H150519   6.420   5.953  17.214  0.4783  1.5082  0.9654
 9676TIP3    H250520   6.480   5.956  17.075  1.1607 -0.2480  1.1947
 9677TIP3   OH250521   0.306   0.589   3.336 -0.8095 -0.6240  0.1677
 9677TIP3    H150522   0.237   0.653   3.315  0.8896  1.0207 -0.6658
 9677TIP3    H250523   0.386   0.640   3.341  0.0478 -2.0223  3.9181
 9678TIP3   OH250524   1.038   6.609   5.624 -0.0364 -0.3219  1.1081
 9678TIP3    H150525   1.057   6.678   5.560 -0.3370 -2.0650 -0.9990
 9678TIP3    H250526   0.957   6.638   5.667 -0.1443  0.6601  0.2921
 9679TIP3   OH250527   2.750   1.707  13.279  0.3118 -0.5944  0.1807
 9679TIP3    H150528   2.760   1.744  13.191 -1.7059 -0.1644  0.0834
 9679TIP3    H250529   2.812   1.757  13.333  0.5777  0.0903 -0.7303
 9680TIP3   OH250530   0.495   4.010   1.906  0.2407 -0.1081 -0.0153
 9680TIP3    H150531   0.550   3.965   1.970  0.1214 -1.3814 -0.7522
 9680TIP3    H250532   0.545   4.087   1.880  1.2979 -0.7700 -0.0182
 9681TIP3   OH250533   2.297   5.113  11.105 -0.0275  0.2651  0.2699
 9681TIP3    H150534   2.389   5.119  11.077 -0.4422  0.0782 -1.2076
 9681TIP3    H250535   2.264   5.035  11.062 -0.6706 -0.1720  1.5077
 9682TIP3   OH250536   2.197   6.779  11.379 -0.1300 -0.5506  0.4514
 9682TIP3    H150537   2.208   6.744  11.467 -0.4071  0.7879  1.0582
 9682TIP3    H250538   2.274   6.834  11.365  0.3652 -1.4572 -0.5220
 9683TIP3   OH250539   0.860   3.852  13.333 -0.3506 -0.8671  0.3716
 9683TIP3    H150540   0.833   3.937  13.300  0.2023 -0.8900 -0.1515
 9683TIP3    H250541   0.944   3.869  13.376 -0.2551 -1.1437  0.2938
 9684TIP3   OH250542   6.094   0.701  15.058 -0.1611 -0.2443  0.3364
 9684TIP3    H150543   6.139   0.694  15.142 -2.2580 -1.0699  1.4862
 9684TIP3    H250544   6.028   0.768  15.072 -0.8297 -0.7079 -0.4994
 9685TIP3   OH250545   3.152   0.226  16.920  0.0168  0.1788 -0.1682
 9685TIP3    H150546   3.097   0.256  16.848 -0.6283 -0.4369  0.0493
 9685TIP3    H250547   3.182   0.139  16.893  0.5575  0.3470 -0.1118
 9686TIP3   OH250548   3.664   4.088  16.993 -0.0033 -0.4605  0.4525
 9686TIP3    H150549   3.704   4.140  17.063  0.6964 -0.8291  0.3341
 9686TIP3    H250550   3.735   4.072  16.931 -0.8964  0.9017 -0.9834
 9687TIP3   OH250551   0.206   6.214   5.984  0.9167 -0.0170  0.0375
 9687TIP3    H150552   0.204   6.302   5.946 -0.4949  0.7012  1.6250
 9687TIP3    H250553   0.282   6.215   6.042  2.1303 -0.5771 -1.5018
 9688TIP3   OH250554   3.685   0.296   0.621  0.4341 -0.1385 -0.0154
 9688TIP3    H150555   3.742   0.318   0.694  1.7599  3.9155 -1.9452
 9688TIP3    H250556   3.624   0.370   0.614 -0.7280 -1.1809 -2.0246
 9689TIP3   OH250557   0.423   5.242   5.644  0.0923 -0.1713  0.4388
 9689TIP3    H150558   0.416   5.336   5.659  0.1065 -0.3789  1.8757
 9689TIP3    H250559   0.513   5.229   5.615 -0.1609  0.3493 -0.6400
 9690TIP3   OH250560   2.491   6.592  11.558  0.1690  0.3534  0.2624
 9690TIP3    H150561   2.537   6.593  11.643 -0.5974  0.0412  0.6869
 9690TIP3    H250562   2.474   6.499  11.542 -1.5821  0.5473  0.8160
 9691TIP3   OH250563   3.251   5.760   4.009 -0.3108 -0.6717  0.2935
 9691TIP3    H150564   3.318   5.704   4.048 -0.6661 -0.6876  0.8964
 9691TIP3    H250565   3.242   5.728   3.919 -0.1209 -1.2264  0.4681
 9692TIP3   OH250566   2.374   3.373  14.620 -0.1547 -0.1971 -0.1901
 9692TIP3    H150567   2.435   3.298  14.619  0.1269  0.0301 -0.1360
 9692TIP3    H250568   2.425   3.445  14.582 -0.3506  0.0290 -0.0212
 9693TIP3   OH250569   1.099   6.054   2.252  0.4149  0.0936 -0.2555
 9693TIP3    H150570   1.050   6.001   2.188 -0.1348  0.5517 -0.2287
 9693TIP3    H250571   1.053   6.138   2.252  0.4907  0.1411  0.6471
 9694TIP3   OH250572   4.617   3.905  15.467  0.0763 -0.1448 -0.0749
 9694TIP3    H150573   4.612   3.940  15.556 -1.3252 -1.0940  0.2463
 9694TIP3    H250574   4.688   3.954  15.426  0.9880  0.0825  1.6658
 9695TIP3   OH250575   4.221   3.578  16.228  0.2510  0.5171 -0.5150
 9695TIP3    H150576   4.212   3.553  16.136  1.2530  1.6458 -0.9352
 9695TIP3    H250577   4.136   3.555  16.267  0.7575 -2.7304 -1.0236
 9696TIP3   OH250578   3.621   3.198   0.345 -0.6508  0.4011  0.1132
 9696TIP3    H150579   3.661   3.115   0.318 -0.4790  0.5852 -0.2162
 9696TIP3    H250580   3.673   3.265   0.300 -2.5301  0.5942 -1.9388
 9697TIP3   OH250581   4.698   2.227  10.495 -0.1032 -0.4900 -0.4126
 9697TIP3    H150582   4.684   2.133  10.503  0.4035 -0.5246  0.1342
 9697TIP3    H250583   4.627   2.266  10.547 -0.2810 -0.5672 -0.5948
 9698TIP3   OH250584   4.272   4.015   3.984  0.1636  0.1058  0.1056
 9698TIP3    H150585   4.244   4.040   3.896  0.4556  0.5203  0.1313
 9698TIP3    H250586   4.367   4.028   3.984  0.4490 -1.7206 -0.1204
 9699TIP3   OH250587   1.332   6.025   0.483 -0.0413 -0.1877 -0.6379
 9699TIP3    H150588   1.268   6.024   0.411  0.9689 -0.7812 -1.5596
 9699TIP3    H250589   1.411   5.986   0.445  0.0581 -1.9964  1.2441
 9700TIP3   OH250590   4.403   0.264  14.024  0.0793  0.1891 -0.0379
 9700TIP3    H150591   4.314   0.240  13.998  0.0787 -1.7504  1.4283
 9700TIP3    H250592   4.404   0.359  14.023 -2.1023  0.2745  0.1315
 9701TIP3   OH250593   5.788   1.543  12.382 -0.0630  0.1161 -0.5573
 9701TIP3    H150594   5.866   1.488  12.373  0.5762  0.6176  1.5012
 9701TIP3    H250595   5.820   1.632  12.369 -0.2481  0.3401  0.4696
 9702TIP3   OH250596   6.166   6.064  14.600 -0.7767  0.4834 -0.4055
 9702TIP3    H150597   6.149   6.013  14.520  0.1878  1.3891 -1.2186
 9702TIP3    H250598   6.228   6.010  14.650 -0.9955  0.1377 -0.5041
 9703TIP3   OH250599   2.176   6.590   1.427  0.7211 -0.4937  0.1178
 9703TIP3    H150600   2.251   6.554   1.378 -0.7738 -0.7079 -2.1863
 9703TIP3    H250601   2.200   6.579   1.519  3.1291 -1.3603 -0.5330
 9704TIP3   OH250602   6.028   2.940  13.603  0.1756  0.4672  0.1423
 9704TIP3    H150603   6.120   2.914  13.598 -0.3115 -1.1058 -2.2274
 9704TIP3    H250604   6.017   3.001  13.530 -0.0877  2.9104  2.1014
 9705TIP3   OH250605   2.333   6.722   1.142  0.0157 -0.0751  0.1126
 9705TIP3    H150606   2.344   6.660   1.214  1.0405 -0.7202 -0.5638
 9705TIP3    H250607   2.301   6.802   1.183 -0.4061 -0.7590  1.1340
 9706TIP3   OH250608   1.743   4.246  10.888 -0.0984  0.2248 -0.4372
 9706TIP3    H150609   1.745   4.342  10.896  0.1601  0.1433  0.5942
 9706TIP3    H250610   1.828   4.224  10.851 -0.1953  0.3993 -0.7686
 9707TIP3   OH250611   3.397   0.833  12.723  0.6586 -0.0464 -0.1658
 9707TIP3    H150612   3.397   0.737  12.723 -3.2319 -0.2156  0.5278
 9707TIP3    H250613   3.396   0.857  12.631 -1.4160 -0.8853 -0.4160
 9708TIP3   OH250614   5.186   2.441  12.651  0.3466  0.7466 -0.1983
 9708TIP3    H150615   5.269   2.407  12.685 -0.1063  0.2155  0.3939
 9708TIP3    H250616   5.120   2.413  12.715 -0.7173 -1.3261 -2.0625
 9709TIP3   OH250617   2.402   6.173   0.778  0.1426 -0.6969  0.5293
 9709TIP3    H150618   2.321   6.197   0.823  0.4027  0.0338  0.6241
 9709TIP3    H250619   2.452   6.255   0.773 -0.1276 -0.6214 -1.6309
 9710TIP3   OH250620   0.330   3.630  14.155 -0.2446  0.2572 -0.4860
 9710TIP3    H150621   0.284   3.546  14.157 -0.3890  0.3534  0.4017
 9710TIP3    H250622   0.403   3.619  14.215 -1.0015  1.1828  0.6404
 9711TIP3   OH250623   3.134   2.909  13.397  0.3492 -0.0514  0.1597
 9711TIP3    H150624   3.042   2.935  13.395 -0.5120 -2.8864 -1.0364
 9711TIP3    H250625   3.169   2.935  13.312  0.4515  0.2860  0.3021
 9712TIP3   OH250626   3.846   4.757   3.476 -0.3691 -0.1384  0.2096
 9712TIP3    H150627   3.787   4.806   3.533 -1.7853  0.3803 -1.6327
 9712TIP3    H250628   3.808   4.669   3.473  0.4678 -0.5581  1.0764
 9713TIP3   OH250629   2.715   0.928   3.647 -0.2779 -0.9034 -0.2677
 9713TIP3    H150630   2.736   0.973   3.730  0.4992 -1.7551  0.0067
 9713TIP3    H250631   2.794   0.937   3.595 -0.2082 -1.7316 -0.3093
 9714TIP3   OH250632   3.468   0.916  14.917 -0.8328  0.1513  0.1592
 9714TIP3    H150633   3.476   0.996  14.969  0.6313  0.8257 -1.0309
 9714TIP3    H250634   3.506   0.848  14.973 -2.1520  0.2497  1.2092
 9715TIP3   OH250635   4.359   6.675   2.265  0.3658 -0.4912 -0.0307
 9715TIP3    H150636   4.267   6.684   2.287  0.0733 -2.4801 -0.1931
 9715TIP3    H250637   4.361   6.680   2.169  0.5714  0.5124  0.0205
 9716TIP3   OH250638   0.669   2.490   5.735  0.0009 -0.2423 -0.4798
 9716TIP3    H150639   0.704   2.578   5.718  0.3368 -0.2246  0.2822
 9716TIP3    H250640   0.747   2.436   5.753 -0.2288 -0.6285 -0.6248
 9717TIP3   OH250641   4.978   3.076  11.512 -0.2645  0.0070 -0.0490
 9717TIP3    H150642   5.015   3.114  11.592  2.4913  1.1274 -1.6828
 9717TIP3    H250643   4.887   3.059  11.533  0.0845  1.2364  2.9811
 9718TIP3   OH250644   1.371   2.456  15.343  0.0327 -0.1329  0.1378
 9718TIP3    H150645   1.369   2.365  15.374 -1.7867  0.2920  1.4833
 9718TIP3    H250646   1.316   2.503  15.406  0.8902  1.9009 -0.5636
 9719TIP3   OH250647   5.554   0.580  13.370  0.0821 -0.2361  0.2273
 9719TIP3    H150648   5.482   0.541  13.320 -1.0342  1.6823  0.2404
 9719TIP3    H250649   5.621   0.598  13.304  0.2243 -1.2474  0.0739
 9720TIP3   OH250650   1.192   4.408  16.042  0.4260  0.4487 -0.5371
 9720TIP3    H150651   1.228   4.486  16.083 -0.8540  0.1707  1.2457
 9720TIP3    H250652   1.114   4.388  16.094 -0.3029 -0.9492 -2.0947
 9721TIP3   OH250653   3.659   1.419  12.521  0.3377  0.2783  0.2304
 9721TIP3    H150654   3.666   1.466  12.604 -1.0679 -0.7166  0.9772
 9721TIP3    H250655   3.711   1.340  12.535 -0.5533 -0.2818  0.5066
 9722TIP3   OH250656   0.219   0.598  10.097 -0.0236 -1.0839 -0.2509
 9722TIP3    H150657   0.126   0.610  10.080  0.3181 -0.0973 -1.7098
 9722TIP3    H250658   0.241   0.666  10.160 -0.3246 -1.4754  0.2847
 9723TIP3   OH250659   1.409   6.577  12.137  0.6648  0.0933  0.3056
 9723TIP3    H150660   1.369   6.603  12.054 -1.4344 -2.1446  0.4993
 9723TIP3    H250661   1.460   6.499  12.115  0.2680 -0.3916  1.0599
 9724TIP3   OH250662   1.121   4.077   1.334  0.1917  0.2185  0.0891
 9724TIP3    H150663   1.091   4.085   1.244 -1.1290 -0.8178  0.4141
 9724TIP3    H250664   1.054   4.119   1.386  0.2174 -0.4585  0.6887
 9725TIP3   OH250665   3.481   0.078  15.095  0.2174 -0.1251  0.1232
 9725TIP3    H150666   3.399   0.109  15.134  0.2583 -0.8853  0.8537
 9725TIP3    H250667   3.481   0.112  15.006 -1.6657 -1.4577 -0.4256
 9726TIP3   OH250668   0.590   2.858   5.583 -0.7256 -0.0323 -0.4977
 9726TIP3    H150669   0.599   2.774   5.538  1.1253  0.0221 -0.3280
 9726TIP3    H250670   0.598   2.837   5.676  2.4549  0.4935 -0.5186
 9727TIP3   OH250671   1.088   5.959  12.232 -0.2325 -0.2003 -0.5815
 9727TIP3    H150672   1.075   5.955  12.137 -0.6215 -0.1907 -0.5340
 9727TIP3    H250673   1.150   5.889  12.251  1.1765  0.8746 -1.0593
 9728TIP3   OH250674   3.865   5.005  14.170 -0.3633  0.4853  0.4642
 9728TIP3    H150675   3.906   4.985  14.085 -1.7054 -0.8423  0.0783
 9728TIP3    H250676   3.837   5.096  14.162 -0.0703  0.5124 -0.3671
 9729TIP3   OH250677   5.585   4.215   0.884  0.3392  0.5962 -0.1054
 9729TIP3    H150678   5.615   4.124   0.889  1.4067  0.9667  0.4942
 9729TIP3    H250679   5.590   4.236   0.791 -1.8188 -0.5370 -0.5682
 9730TIP3   OH250680   4.643   4.886  17.060 -0.4602  0.5940  0.0732
 9730TIP3    H150681   4.699   4.850  16.992 -1.5041  1.0567 -1.0799
 9730TIP3    H250682   4.665   4.979  17.063 -0.9083  0.7108 -0.1425
 9731TIP3   OH250683   6.018   2.156  14.617 -0.3105  0.1403  0.4175
 9731TIP3    H150684   5.955   2.188  14.681  1.8742  1.5563  2.0265
 9731TIP3    H250685   6.087   2.116  14.670  2.7415  3.4241 -0.7029
 9732TIP3   OH250686   0.151   0.937   2.142  0.4754  0.2002 -0.0076
 9732TIP3    H150687   0.207   0.917   2.067  1.9185 -1.1793  1.3609
 9732TIP3    H250688   0.211   0.973   2.208 -0.4821 -0.0085  1.0088
 9733TIP3   OH250689   2.789   1.318  16.731  0.4226  0.2663 -0.5086
 9733TIP3    H150690   2.697   1.331  16.706  0.4377  1.2787 -0.0824
 9733TIP3    H250691   2.837   1.381  16.679  0.7990  0.2459 -0.1849
 9734TIP3   OH250692   1.098   1.191  11.226 -0.2353  0.2393  0.2391
 9734TIP3    H150693   1.166   1.139  11.270  1.5744  1.9982 -0.3422
 9734TIP3    H250694   1.024   1.187  11.286  1.4689  0.9039  2.5630
 9735TIP3   OH250695   0.625   1.608   2.459 -0.3689 -0.1473  0.1551
 9735TIP3    H150696   0.696   1.633   2.401  0.8401  1.1838  2.1074
 9735TIP3    H250697   0.554   1.668   2.438 -1.3558 -2.0251 -2.3971
 9736TIP3   OH250698   4.953   0.975   3.096  0.0376  0.1720  0.2605
 9736TIP3    H150699   4.869   0.941   3.065 -0.5433 -2.0298  3.6966
 9736TIP3    H250700   5.011   0.899   3.095  1.9018  1.5393 -1.5095
 9737TIP3   OH250701   1.144   3.658   5.675 -0.3913  0.3280  0.2118
 9737TIP3    H150702   1.112   3.616   5.595 -0.7136  0.9913 -0.0126
 9737TIP3    H250703   1.089   3.623   5.744 -0.2125 -0.1319  0.1257
 9738TIP3   OH250704   6.320   6.271  14.341 -0.3444 -0.3411  0.0908
 9738TIP3    H150705   6.272   6.236  14.266  0.3321 -1.4015  0.1425
 9738TIP3    H250706   6.412   6.256  14.320  0.0433  2.0558 -0.2121
 9739TIP3   OH250707   3.409   4.008  17.102  0.0983  0.1276  0.3411
 9739TIP3    H150708   3.379   4.099  17.099 -1.8047 -0.4437  0.6654
 9739TIP3    H250709   3.490   4.011  17.152 -0.4040  1.5478  1.1418
 9740TIP3   OH250710   1.104   2.000  12.866 -0.0112  0.4265 -0.1119
 9740TIP3    H150711   1.076   2.079  12.820  1.6209  0.6798 -0.7214
 9740TIP3    H250712   1.175   1.965  12.812  1.2582  0.1631  1.6457
 9741TIP3   OH250713   4.444   4.742  12.619  0.1476  0.0808  0.3405
 9741TIP3    H150714   4.487   4.708  12.540  1.1264  0.8347  0.5256
 9741TIP3    H250715   4.517   4.765  12.677 -0.4506  2.4871  0.2275
 9742TIP3   OH250716   0.340   0.928  16.389  0.5042 -0.2948 -0.4659
 9742TIP3    H150717   0.317   1.001  16.332 -0.4347 -0.2333 -0.0206
 9742TIP3    H250718   0.294   0.853  16.352  0.4314 -0.3924 -0.1811
 9743TIP3   OH250719   3.871   1.225   2.848 -0.5556  0.2018 -0.4563
 9743TIP3    H150720   3.893   1.317   2.833 -1.3898  0.8944  2.0533
 9743TIP3    H250721   3.947   1.190   2.895 -0.1418 -0.4809 -1.6081
 9744TIP3   OH250722   0.672   2.154   4.283 -0.5182 -0.1138  0.1616
 9744TIP3    H150723   0.610   2.111   4.224  0.7182  0.1068 -1.3329
 9744TIP3    H250724   0.710   2.082   4.333 -1.3655 -0.3286  0.5218
 9745TIP3   OH250725   6.244   6.515   5.380 -0.1753  0.1876  0.2954
 9745TIP3    H150726   6.165   6.522   5.433 -0.7310  0.8091 -0.5787
 9745TIP3    H250727   6.219   6.457   5.308  0.6470 -0.8616  0.8386
 9746TIP3   OH250728   1.185   0.744  10.352  0.0915 -0.2876 -0.0654
 9746TIP3    H150729   1.128   0.674  10.320 -0.3291  0.3890 -0.8460
 9746TIP3    H250730   1.262   0.739  10.296  0.4244 -0.6493  0.4213
 9747TIP3   OH250731   3.758   4.861  12.338 -0.5876  0.2534  0.1344
 9747TIP3    H150732   3.766   4.926  12.269 -0.9602  0.3381  0.1688
 9747TIP3    H250733   3.666   4.836  12.337 -0.4469 -0.2881  0.1098
 9748TIP3   OH250734   4.586   3.092  15.164  0.0513  0.3293 -0.0536
 9748TIP3    H150735   4.609   3.064  15.075  0.4149  0.8215 -0.1177
 9748TIP3    H250736   4.598   3.013  15.218 -1.5949 -0.3918 -0.6575
 9749TIP3   OH250737   3.564   1.436  14.318  0.1749 -0.0601  0.1025
 9749TIP3    H150738   3.643   1.430  14.265 -0.1334  0.5116 -0.4477
 9749TIP3    H250739   3.499   1.383  14.270 -0.2270  0.8084 -0.3471
 9750TIP3   OH250740   6.070   1.678   2.401 -0.5303 -0.0907  0.1728
 9750TIP3    H150741   6.008   1.743   2.434 -1.5256 -0.7722 -0.3211
 9750TIP3    H250742   6.102   1.715   2.318 -0.1297  0.3394  0.5126
 9751TIP3   OH250743   6.093   0.593   0.822 -0.3620  0.0151  0.5296
 9751TIP3    H150744   6.004   0.608   0.790 -0.7670 -1.2234  1.0418
 9751TIP3    H250745   6.113   0.502   0.800  1.3483  0.6720 -0.8799
 9752TIP3   OH250746   0.295   5.636   4.491  0.2517  0.6737 -0.0031
 9752TIP3    H150747   0.278   5.723   4.457  0.0057  0.0200 -1.6455
 9752TIP3    H250748   0.389   5.634   4.507  0.1027  1.5742  1.0884
 9753TIP3   OH250749   2.353   4.440   3.715 -0.8220 -0.3819  0.2268
 9753TIP3    H150750   2.393   4.453   3.629 -0.9386 -1.1868  0.0435
 9753TIP3    H250751   2.264   4.473   3.706 -0.0858  1.9619  0.7998
 9754TIP3   OH250752   3.956   5.580   3.191  0.2641 -0.4537  0.2741
 9754TIP3    H150753   3.876   5.621   3.158  0.0822  1.4393  2.7327
 9754TIP3    H250754   3.951   5.592   3.286  3.1722 -0.8444  0.5573
 9755TIP3   OH250755   4.316   4.017   5.104 -0.3835  0.1177  0.1507
 9755TIP3    H150756   4.341   4.009   5.196 -2.6469 -0.7400  0.7705
 9755TIP3    H250757   4.255   4.091   5.102 -1.5950 -0.8657 -0.3457
 9756TIP3   OH250758   2.122   2.620  12.257  0.1300 -0.5333 -0.4371
 9756TIP3    H150759   2.120   2.566  12.178 -3.4845 -2.0477  0.5096
 9756TIP3    H250760   2.161   2.564  12.324 -0.9537 -0.9625 -0.1426
 9757TIP3   OH250761   0.823   4.860  10.797 -0.2044  0.1678  0.0105
 9757TIP3    H150762   0.784   4.773  10.787  1.8628 -0.6683 -1.2502
 9757TIP3    H250763   0.867   4.856  10.882  1.2000 -0.5935 -0.7279
 9758TIP3   OH250764   2.764   2.345  13.046 -0.3278 -0.3761 -0.4068
 9758TIP3    H150765   2.694   2.407  13.027 -0.5362 -0.5170 -0.1132
 9758TIP3    H250766   2.744   2.313  13.134  0.8120  0.5274  0.1990
 9759TIP3   OH250767   3.904   3.277  14.027 -0.6297 -0.6380 -0.0582
 9759TIP3    H150768   3.992   3.299  14.059 -0.2230 -2.1949 -0.0234
 9759TIP3    H250769   3.849   3.281  14.105 -0.3214 -0.9765  0.1817
 9760TIP3   OH250770   1.901   2.374  17.038 -0.3357  0.0025  0.3445
 9760TIP3    H150771   1.819   2.336  17.009 -0.0702 -0.8445  0.6766
 9760TIP3    H250772   1.878   2.425  17.116 -1.1622  2.7977 -1.5516
 9761TIP3   OH250773   5.745   6.827  12.555  0.2940  0.0690  0.4200
 9761TIP3    H150774   5.750   6.864  12.467  1.9253 -2.9947 -0.9306
 9761TIP3    H250775   5.687   6.751  12.546 -2.2242  1.4826  2.8615
 9762TIP3   OH250776   3.331   2.332   0.283 -0.6008 -0.1156 -0.1128
 9762TIP3    H150777   3.243   2.296   0.271 -0.3270 -1.5090  1.6501
 9762TIP3    H250778   3.390   2.262   0.253 -0.0575  0.5738 -0.7220
 9763TIP3   OH250779   0.353   3.507  14.798 -0.4978 -0.0666 -0.1885
 9763TIP3    H150780   0.443   3.534  14.778  0.0655 -1.0532  0.8802
 9763TIP3    H250781   0.324   3.569  14.865 -0.2590 -0.3288  0.1605
 9764TIP3   OH250782   2.230   1.216   1.116 -0.7653 -0.2122  0.0816
 9764TIP3    H150783   2.287   1.221   1.193  1.0954  1.9472 -1.2907
 9764TIP3    H250784   2.141   1.219   1.151  0.0082  2.8736  2.1343
 9765TIP3   OH250785   2.375   5.618  13.849  0.4336 -0.1221 -0.4612
 9765TIP3    H150786   2.304   5.566  13.887  0.6182 -0.3200 -0.3839
 9765TIP3    H250787   2.451   5.560  13.852  0.4813 -0.0876 -1.0113
 9766TIP3   OH250788   1.873   0.591   3.408  0.0791  0.0637  0.1030
 9766TIP3    H150789   1.965   0.597   3.382 -0.1210  0.5825 -0.4993
 9766TIP3    H250790   1.876   0.554   3.497  0.8926  0.4963  0.2694
 9767TIP3   OH250791   4.751   2.486   1.528 -0.3794 -0.5411  0.0795
 9767TIP3    H150792   4.669   2.441   1.507 -0.4549  0.0382 -0.9248
 9767TIP3    H250793   4.724   2.563   1.578 -0.3373 -0.9667  0.7819
 9768TIP3   OH250794   1.665   4.428   6.262 -0.4212 -0.1521  0.9181
 9768TIP3    H150795   1.754   4.436   6.296  0.2966 -0.0852 -0.8582
 9768TIP3    H250796   1.631   4.517   6.262 -0.3056 -0.1088  1.1667
 9769TIP3   OH250797   5.687   6.114  11.914 -0.0208  0.0801  0.2472
 9769TIP3    H150798   5.729   6.130  11.830 -0.2488 -0.8458 -0.0507
 9769TIP3    H250799   5.726   6.179  11.973 -1.7540  2.5315 -1.1377
 9770TIP3   OH250800   5.713   4.657   5.928 -0.1266  0.2654 -0.1739
 9770TIP3    H150801   5.719   4.743   5.887 -0.0367 -0.0110 -0.7554
 9770TIP3    H250802   5.693   4.598   5.855  5.5526 -1.1928 -0.9825
 9771TIP3   OH250803   5.445   3.009  16.512 -0.7447  0.3585 -0.0773
 9771TIP3    H150804   5.536   2.982  16.498 -0.8788  0.7541 -1.8968
 9771TIP3    H250805   5.452   3.082  16.574  0.2138  0.5500 -0.3795
 9772TIP3   OH250806   6.146   2.931  13.091  0.2637  0.6177 -0.2325
 9772TIP3    H150807   6.153   2.845  13.132 -1.3419  1.5341  2.2477
 9772TIP3    H250808   6.121   2.913  13.000 -0.3086 -1.5370  0.2948
 9773TIP3   OH250809   4.087   4.500  14.974 -0.6097  0.2855  0.0396
 9773TIP3    H150810   4.081   4.424  15.032 -1.4381  0.2910 -0.0279
 9773TIP3    H250811   4.048   4.470  14.892  0.3212  0.3572 -0.4482
 9774TIP3   OH250812   1.025   1.320  16.909 -0.2563  0.3102  0.2013
 9774TIP3    H150813   0.991   1.255  16.970 -1.0777 -1.7727 -2.2697
 9774TIP3    H250814   0.948   1.368  16.879 -0.3401 -0.7193 -1.3481
 9775TIP3   OH250815   0.719   6.568   5.376  0.1915  0.4157 -0.6218
 9775TIP3    H150816   0.687   6.628   5.309 -3.3387 -0.0125  0.5040
 9775TIP3    H250817   0.768   6.624   5.437 -0.4524  1.6003 -1.1655
 9776TIP3   OH250818   4.754   4.186  16.954  0.2701 -0.0480 -0.4728
 9776TIP3    H150819   4.762   4.092  16.937  1.4224  0.1243 -0.9924
 9776TIP3    H250820   4.660   4.203  16.952  0.1142 -0.9195 -1.9483
 9777TIP3   OH250821   3.221   6.113   2.445  0.3112 -0.5465  0.5078
 9777TIP3    H150822   3.287   6.125   2.513  0.7864 -1.1676  0.1653
 9777TIP3    H250823   3.264   6.058   2.379 -0.3223 -0.3981 -0.0360
 9778TIP3   OH250824   0.608   2.319  10.652  0.2316  0.4063  0.4982
 9778TIP3    H150825   0.576   2.406  10.628  0.1858 -0.0438 -1.1813
 9778TIP3    H250826   0.553   2.292  10.725 -0.5281  1.3070  0.2725
 9779TIP3   OH250827   4.606   5.592  16.060 -0.5571  0.3232 -0.3625
 9779TIP3    H150828   4.673   5.656  16.039 -0.3849  0.3357  0.2081
 9779TIP3    H250829   4.640   5.509  16.026 -0.0452  0.2482  0.3069
 9780TIP3   OH250830   4.349   4.041   3.382  0.2215  0.0160  0.1737
 9780TIP3    H150831   4.346   3.954   3.342 -2.2566  0.1781 -0.1368
 9780TIP3    H250832   4.350   4.023   3.476 -2.1045 -0.4515  0.1878
 9781TIP3   OH250833   2.858   1.515  13.726  0.1723 -0.2736  0.3928
 9781TIP3    H150834   2.778   1.513  13.674 -0.4017  0.8366  1.2030
 9781TIP3    H250835   2.924   1.553  13.667  0.5234 -2.5177 -0.7665
 9782TIP3   OH250836   0.830   1.928  14.699  0.1031  0.0920 -0.3186
 9782TIP3    H150837   0.819   1.955  14.790  0.5840  0.4869 -0.3784
 9782TIP3    H250838   0.882   1.848  14.703  2.5006  1.5423 -0.3682
 9783TIP3   OH250839   1.443   1.800   4.405  0.2961 -0.0072 -0.4697
 9783TIP3    H150840   1.378   1.746   4.451  0.5249  1.7317  2.1487
 9783TIP3    H250841   1.523   1.747   4.407  0.3227  0.0283  1.3214
 9784TIP3   OH250842   1.900   3.785   4.302  0.5301 -0.0780 -0.3078
 9784TIP3    H150843   1.878   3.795   4.209 -1.4796 -0.9910  0.0137
 9784TIP3    H250844   1.977   3.728   4.302  0.0855 -0.7312 -1.4184
 9785TIP3   OH250845   5.737   0.812   1.996 -0.1872 -0.0509 -0.4081
 9785TIP3    H150846   5.766   0.768   2.076 -0.3722 -0.1119 -0.3735
 9785TIP3    H250847   5.700   0.743   1.942 -0.7346  0.0983 -0.2372
 9786TIP3   OH250848   5.647   3.302  13.298 -0.3660  0.2268  0.3094
 9786TIP3    H150849   5.594   3.229  13.265  0.0432 -0.0676  0.2880
 9786TIP3    H250850   5.719   3.259  13.345 -0.8653  0.6275  1.4887
 9787TIP3   OH250851   3.691   4.448  12.300 -0.4580  0.2245 -0.4161
 9787TIP3    H150852   3.744   4.476  12.225  1.0478  0.1107  0.5648
 9787TIP3    H250853   3.699   4.520  12.363 -1.0133 -0.0589 -0.0123
 9788TIP3   OH250854   1.416   4.900  14.329 -0.2143 -0.4764 -0.1275
 9788TIP3    H150855   1.346   4.872  14.388 -0.0285 -1.0105 -0.1583
 9788TIP3    H250856   1.494   4.902  14.384 -0.7154  2.9249  0.6475
 9789TIP3   OH250857   0.053   5.605  13.014  0.4646 -0.2876 -0.4045
 9789TIP3    H150858  -0.036   5.639  13.015  0.5509  0.4001 -3.8991
 9789TIP3    H250859   0.046   5.518  12.976  1.2666 -0.2469 -0.6765
 9790TIP3   OH250860   1.814   5.091   2.041 -0.2874  0.3587 -0.3096
 9790TIP3    H150861   1.835   5.164   1.983 -1.1217  2.2441  1.6304
 9790TIP3    H250862   1.851   5.117   2.125 -1.7246 -0.8604  0.7347
 9791TIP3   OH250863   4.297   0.352  12.883 -0.7187 -0.2311 -0.0777
 9791TIP3    H150864   4.291   0.357  12.978  0.6806  0.5951 -0.0117
 9791TIP3    H250865   4.219   0.398  12.851  0.2784  2.1226  0.6787
 9792TIP3   OH250866   4.354   5.837  12.585 -0.0250 -0.2701 -0.0681
 9792TIP3    H150867   4.273   5.805  12.625 -1.1030 -0.1453 -2.0539
 9792TIP3    H250868   4.350   5.808  12.494  1.1533  1.5406 -0.7597
 9793TIP3   OH250869   4.119   4.719   5.725  1.0169  0.4397 -0.1235
 9793TIP3    H150870   4.057   4.650   5.751  2.0752 -0.6099 -0.2851
 9793TIP3    H250871   4.176   4.729   5.802  0.8859  1.1353 -0.1117
 9794TIP3   OH250872   5.246   0.289  11.621  0.5077 -0.9813 -0.1388
 9794TIP3    H150873   5.238   0.383  11.606 -2.9084 -1.1352 -0.0735
 9794TIP3    H250874   5.300   0.257  11.548  0.4190  0.8242 -1.0482
 9795TIP3   OH250875   5.541   0.022  13.719 -0.3009 -0.1085 -0.6752
 9795TIP3    H150876   5.512   0.076  13.792 -0.9445 -0.9421 -0.2968
 9795TIP3    H250877   5.592   0.081  13.664 -0.8795  0.8460 -0.2100
 9796TIP3   OH250878   4.420   2.494  12.423 -0.3807 -0.0253  0.0179
 9796TIP3    H150879   4.410   2.464  12.513 -0.1220 -0.2525 -0.0269
 9796TIP3    H250880   4.457   2.418  12.377  0.2331  0.3534 -0.1125
 9797TIP3   OH250881   3.362   2.273   0.983 -0.2223  0.2471  0.5354
 9797TIP3    H150882   3.272   2.297   0.962 -0.1299  0.7697  0.7371
 9797TIP3    H250883   3.412   2.294   0.904 -0.3966 -0.7466  0.1505
 9798TIP3   OH250884   1.301   0.809   2.493  0.0243 -0.2354  0.5530
 9798TIP3    H150885   1.257   0.762   2.422  0.2739  0.7522 -0.2733
 9798TIP3    H250886   1.238   0.807   2.566 -0.3833 -0.9384  0.1927
 9799TIP3   OH250887   2.633   4.273  13.640 -0.4132 -0.4928 -0.0284
 9799TIP3    H150888   2.565   4.291  13.705 -1.4018  2.2185 -1.6408
 9799TIP3    H250889   2.714   4.301  13.681 -0.8396 -0.0248  0.5127
 9800TIP3   OH250890   0.362   5.770  11.226  0.4224 -0.6730 -0.1271
 9800TIP3    H150891   0.269   5.760  11.248  0.6338  0.1461  1.3121
 9800TIP3    H250892   0.408   5.741  11.305  1.3927 -1.0290 -0.8096
 9801TIP3   OH250893   3.554   5.001   2.588 -0.3123 -0.4340 -0.0314
 9801TIP3    H150894   3.489   4.946   2.545  1.3704 -0.7695 -2.3853
 9801TIP3    H250895   3.566   5.075   2.528  0.6757  0.1918  0.8945
 9802TIP3   OH250896   2.506   3.859  11.615  0.4201 -0.2720  0.1789
 9802TIP3    H150897   2.435   3.869  11.551  0.2650 -0.1630  0.3661
 9802TIP3    H250898   2.465   3.815  11.689  1.3958 -3.7212 -1.1647
 9803TIP3   OH250899   0.571   4.089  10.689  0.1053  0.0622  0.0902
 9803TIP3    H150900   0.507   4.079  10.760  1.7901 -0.0226  1.6863
 9803TIP3    H250901   0.600   4.180  10.695  0.5290 -0.0457 -0.2460
 9804TIP3   OH250902   1.578   1.729   3.086 -0.8652 -0.3513  0.5680
 9804TIP3    H150903   1.616   1.712   2.999 -0.0820 -0.2328  0.8790
 9804TIP3    H250904   1.509   1.663   3.095 -2.0276  0.6121 -0.7837
 9805TIP3   OH250905   0.551   6.421   1.394 -0.1772 -0.3375  0.5608
 9805TIP3    H150906   0.619   6.485   1.414  0.3351 -0.9368  0.7614
 9805TIP3    H250907   0.481   6.472   1.352  0.2376  0.3398  0.6874
 9806TIP3   OH250908   4.922   5.186   0.255  0.1213 -0.6141 -0.8313
 9806TIP3    H150909   4.998   5.238   0.281  1.2790 -2.1676 -0.9111
 9806TIP3    H250910   4.929   5.178   0.160 -0.7539  0.1067 -0.9658
 9807TIP3   OH250911   1.586   4.074  15.324  0.0581 -0.0680  0.6134
 9807TIP3    H150912   1.491   4.077  15.321  0.0803  0.2475  0.0516
 9807TIP3    H250913   1.608   3.984  15.299 -0.1030 -0.2689  1.1904
 9808TIP3   OH250914   4.028   2.914  16.173  0.4790 -0.0387 -0.7678
 9808TIP3    H150915   4.005   2.970  16.247  1.2992 -1.6080  0.7499
 9808TIP3    H250916   3.973   2.836  16.184  1.0009 -0.5241 -1.5012
 9809TIP3   OH250917   3.107   2.148  12.403  0.7305  0.0118 -0.4692
 9809TIP3    H150918   3.113   2.145  12.308 -1.0761 -2.3263 -0.5984
 9809TIP3    H250919   3.190   2.112  12.434  1.6762  1.5903 -1.1080
 9810TIP3   OH250920   4.863   0.910   0.705  0.1612 -0.2094 -0.0803
 9810TIP3    H150921   4.907   0.985   0.745  0.8375 -1.4752  1.6535
 9810TIP3    H250922   4.933   0.862   0.661 -0.3439  0.3722 -1.5964
 9811TIP3   OH250923   2.398   6.600  14.081 -0.8323 -0.1060 -0.4942
 9811TIP3    H150924   2.436   6.512  14.074  1.2570  0.7883 -0.8293
 9811TIP3    H250925   2.382   6.612  14.175  0.8955 -0.0634 -0.1704
 9812TIP3   OH250926   3.346   4.467   0.759 -0.3465  0.5563  0.2245
 9812TIP3    H150927   3.286   4.398   0.730  2.5806 -2.7773  1.4245
 9812TIP3    H250928   3.317   4.488   0.848 -0.7205  0.1537  0.2019
 9813TIP3   OH250929   0.062   5.654  12.228  0.4263  0.3065  0.7622
 9813TIP3    H150930   0.123   5.707  12.279  0.8367  1.9541 -1.3074
 9813TIP3    H250931   0.018   5.716  12.170  0.3511 -1.5010 -1.2492
 9814TIP3   OH250932   2.873   0.046  13.146  0.0553  0.6788 -0.5967
 9814TIP3    H150933   2.842   0.065  13.057  0.2495  0.6147 -0.6768
 9814TIP3    H250934   2.968   0.051  13.140  0.1447 -0.8836 -0.7416
 9815TIP3   OH250935   3.468   6.629   4.808  0.6258  0.3616 -0.3169
 9815TIP3    H150936   3.493   6.564   4.873  1.4304  0.7483 -0.2354
 9815TIP3    H250937   3.517   6.708   4.832  0.5306  0.6606 -1.0835
 9816TIP3   OH250938   2.958   1.708  16.770  0.1201 -0.5647  0.1840
 9816TIP3    H150939   2.923   1.674  16.853  0.3965 -1.9525 -0.2416
 9816TIP3    H250940   2.924   1.648  16.704 -0.4058  0.7439 -0.7727
 9817TIP3   OH250941   5.171   6.513  13.509  0.2435  0.2397  0.0824
 9817TIP3    H150942   5.189   6.493  13.417  1.5218 -0.9517  0.5473
 9817TIP3    H250943   5.244   6.568  13.536  0.1620  0.1365  0.5197
 9818TIP3   OH250944   0.945   0.602   6.297  0.1353  0.2407  0.5974
 9818TIP3    H150945   0.857   0.568   6.277  1.3167 -1.6830 -2.0430
 9818TIP3    H250946   0.955   0.677   6.239 -0.2203  1.3127  1.8955
 9819TIP3   OH250947   4.427   5.349   1.333 -0.4958 -1.1169 -0.9783
 9819TIP3    H150948   4.480   5.269   1.328 -0.2356 -0.9315 -1.1690
 9819TIP3    H250949   4.433   5.387   1.245  0.3403 -0.2614 -0.5658
 9820TIP3   OH250950   0.797   3.803  14.801  0.0977  0.4849 -0.1520
 9820TIP3    H150951   0.707   3.827  14.781 -0.1834 -1.1829 -1.0990
 9820TIP3    H250952   0.842   3.886  14.815 -1.0813  1.4700 -1.8775
 9821TIP3   OH250953   1.939   2.136  10.852 -0.4017  0.1615 -0.4174
 9821TIP3    H150954   2.004   2.206  10.858  1.2024 -1.2401 -0.5479
 9821TIP3    H250955   1.920   2.129  10.759  0.4729 -0.4559 -0.5580
 9822TIP3   OH250956   1.500   5.924   1.217  0.4593 -0.0641 -0.4790
 9822TIP3    H150957   1.419   5.905   1.170  0.5140  1.6612 -1.3536
 9822TIP3    H250958   1.472   5.952   1.304  0.1803 -0.4268 -0.4515
 9823TIP3   OH250959   4.001   4.879   0.868 -0.3684  0.1684  0.3565
 9823TIP3    H150960   3.948   4.827   0.807 -0.9098  1.3409 -0.1932
 9823TIP3    H250961   4.086   4.887   0.825 -0.6947  0.8447 -0.1752
 9824TIP3   OH250962   5.766   0.449   3.651  0.1045  0.8393  0.3137
 9824TIP3    H150963   5.829   0.515   3.623  1.7254 -0.2573  1.2071
 9824TIP3    H250964   5.816   0.390   3.708 -1.8561  0.1816  1.4525
 9825TIP3   OH250965   2.657   3.131  11.735 -0.2529  0.5490  0.1138
 9825TIP3    H150966   2.693   3.153  11.649  0.8908 -0.1924  0.3629
 9825TIP3    H250967   2.676   3.207  11.790 -0.1781  0.6633 -0.0709
 9826TIP3   OH250968   6.056   3.681  16.392  0.0074 -0.4430  0.1104
 9826TIP3    H150969   5.982   3.653  16.337  0.4153 -1.9454  0.2884
 9826TIP3    H250970   6.105   3.742  16.337 -0.2384 -1.0241 -0.7823
 9827TIP3   OH250971   5.581   3.531  12.211  0.0394 -0.1343  0.2575
 9827TIP3    H150972   5.532   3.450  12.225  1.0591 -0.3083  4.1181
 9827TIP3    H250973   5.584   3.571  12.298  1.0111  3.2541 -1.1874
 9828TIP3   OH250974   1.706   0.520  13.279 -0.4360 -0.4396  0.0141
 9828TIP3    H150975   1.620   0.541  13.316 -0.4693 -1.6693  0.6869
 9828TIP3    H250976   1.703   0.426  13.265 -0.1544 -0.1388 -2.5135
 9829TIP3   OH250977   2.685   4.780  14.473 -0.0603 -0.4622 -0.5158
 9829TIP3    H150978   2.722   4.736  14.549  0.3529 -0.4949 -0.7331
 9829TIP3    H250979   2.594   4.750  14.470 -0.1320 -0.3173  0.0672
 9830TIP3   OH250980   3.081   0.336   1.884 -0.5635 -0.2628 -0.2150
 9830TIP3    H150981   3.134   0.293   1.950 -0.4095  2.0566  1.2745
 9830TIP3    H250982   3.071   0.426   1.915 -4.1492 -0.1726 -1.1162
 9831TIP3   OH250983   4.096   2.173   3.248 -1.1950  0.6999  0.1414
 9831TIP3    H150984   4.142   2.225   3.182 -0.7702  1.4262  0.9870
 9831TIP3    H250985   4.153   2.097   3.263 -1.3849  0.4357 -0.4544
 9832TIP3   OH250986   2.202   6.207  12.108 -0.4808  0.6116  0.7496
 9832TIP3    H150987   2.182   6.198  12.201 -1.2369 -2.7826  0.3971
 9832TIP3    H250988   2.118   6.190  12.064  0.0448  1.3026 -0.5611
 9833TIP3   OH250989   4.822   2.051  13.649  0.3396 -0.7359  0.1177
 9833TIP3    H150990   4.811   2.128  13.594  2.5985 -0.9850 -0.7773
 9833TIP3    H250991   4.841   2.086  13.736 -0.3899 -0.3256  0.1225
 9834TIP3   OH250992   1.367   3.048  15.978 -0.1811 -0.3969 -0.2681
 9834TIP3    H150993   1.367   3.103  15.901 -3.3591  0.3856  0.1328
 9834TIP3    H250994   1.391   3.106  16.050  0.1294 -0.4513 -0.3285
 9835TIP3   OH250995   0.787   0.935  12.146 -0.2394  0.0493 -0.0845
 9835TIP3    H150996   0.844   0.956  12.072  0.9902 -0.9371  0.5403
 9835TIP3    H250997   0.815   0.848  12.174 -0.8829  0.2678  1.3422
 9836TIP3   OH250998   4.880   3.429  11.813 -0.1655 -0.1811 -0.3768
 9836TIP3    H150999   4.913   3.433  11.903  0.0521 -1.8298 -0.3523
 9836TIP3    H251000   4.956   3.404  11.761 -0.3501  0.5214 -1.0041
 9837TIP3   OH251001   0.936   5.685   4.920 -0.0882 -0.5065 -0.0012
 9837TIP3    H151002   0.851   5.729   4.915 -0.9396 -2.1366 -0.7102
 9837TIP3    H251003   0.948   5.647   4.833  3.6326  3.5306 -1.6226
 9838TIP3   OH251004   6.781   0.465  13.174  0.0491 -0.0518 -0.1380
 9838TIP3    H151005   6.738   0.545  13.205  0.8090  0.4587 -0.3668
 9838TIP3    H251006   6.808   0.486  13.084 -0.5222 -0.8786 -0.5135
 9839TIP3   OH251007   3.860   6.119   0.990  0.4435 -0.0067  0.0707
 9839TIP3    H151008   3.896   6.177   0.923 -0.3281  0.5318  0.1081
 9839TIP3    H251009   3.896   6.152   1.073 -1.0828  1.3385  0.2519
 9840TIP3   OH251010   6.380   3.630  16.455 -0.1026 -0.2434  0.5885
 9840TIP3    H151011   6.300   3.612  16.505  0.3760 -1.3100  1.0042
 9840TIP3    H251012   6.449   3.634  16.521  0.0689  1.7390  0.3547
 9841TIP3   OH251013   2.167   1.209   2.841 -0.2314  0.2127 -0.4840
 9841TIP3    H151014   2.191   1.148   2.772 -0.6759  1.0038 -1.3589
 9841TIP3    H251015   2.244   1.264   2.853 -0.3968  0.5305 -0.8583
 9842TIP3   OH251016   6.508   2.215   6.037  0.6036 -0.4947  0.2697
 9842TIP3    H151017   6.598   2.211   6.069  1.0612  0.7360 -0.7765
 9842TIP3    H251018   6.460   2.155   6.094  1.9914 -0.8397  1.1342
 9843TIP3   OH251019   2.078   6.809  16.644  0.1035  0.3243 -0.1834
 9843TIP3    H151020   2.132   6.742  16.685  1.0922  0.4861 -1.1782
 9843TIP3    H251021   2.133   6.887  16.642  0.1057  0.3263 -1.7674
 9844TIP3   OH251022   2.140   1.820  13.425  0.2863  0.6395 -0.0981
 9844TIP3    H151023   2.233   1.833  13.442  0.2166  0.6710  0.2645
 9844TIP3    H251024   2.128   1.849  13.334  1.0506 -1.3711 -0.9185
 9845TIP3   OH251025   3.894   1.385   4.361 -0.0994 -0.2591 -0.7949
 9845TIP3    H151026   3.917   1.341   4.280  0.2693  0.0658 -0.8729
 9845TIP3    H251027   3.955   1.349   4.426 -0.7340 -0.8961 -0.5442
 9846TIP3   OH251028   0.312   4.427   3.956 -0.4171 -0.0216 -0.2617
 9846TIP3    H151029   0.232   4.385   3.925  0.1260 -1.4610  0.1932
 9846TIP3    H251030   0.311   4.514   3.916 -2.1399 -0.0520 -0.3489
 9847TIP3   OH251031   4.037   1.704   0.670 -0.2141  0.4769  0.0426
 9847TIP3    H151032   4.028   1.799   0.663 -0.9993  0.3165 -1.5196
 9847TIP3    H251033   3.995   1.670   0.591 -0.3734 -1.2012  0.8085
 9848TIP3   OH251034   2.969   0.940  15.700  0.1290  0.3202  0.0507
 9848TIP3    H151035   2.975   0.855  15.657 -1.1334 -0.1497  0.7286
 9848TIP3    H251036   3.022   0.930  15.779  0.4197  0.3410 -0.1421
 9849TIP3   OH251037   5.982   2.915   1.486 -0.3055 -0.0561  0.5409
 9849TIP3    H151038   6.065   2.888   1.445  0.2742 -0.9491  2.1863
 9849TIP3    H251039   5.915   2.876   1.431  0.0094  4.0563 -3.3142
 9850TIP3   OH251040   4.682   0.791  14.027 -0.8867 -0.2199 -0.0265
 9850TIP3    H151041   4.592   0.760  14.043 -0.8139 -0.8055 -0.7440
 9850TIP3    H251042   4.671   0.882  13.999 -1.0960  0.4927  2.1668
 9851TIP3   OH251043   4.707   6.729   2.865  0.9597 -0.6933 -0.1462
 9851TIP3    H151044   4.641   6.743   2.797  0.8513  0.7473  0.2325
 9851TIP3    H251045   4.657   6.698   2.940  0.6707  0.5453  0.1890
 9852TIP3   OH251046   3.857   4.780  11.618 -0.2027 -0.0568  0.1913
 9852TIP3    H151047   3.867   4.696  11.662 -2.7478 -1.4828 -1.6795
 9852TIP3    H251048   3.810   4.835  11.681 -2.3421 -1.5265 -0.0034
 9853TIP3   OH251049   2.235   5.884  16.487  0.3570  0.0051  0.4440
 9853TIP3    H151050   2.185   5.814  16.530  0.7233  0.1172  1.0589
 9853TIP3    H251051   2.272   5.843  16.409 -0.7594 -0.0632 -0.0698
 9854TIP3   OH251052   0.774   4.221   4.964 -0.2223 -0.6545 -0.7690
 9854TIP3    H151053   0.745   4.288   4.902 -1.8533  0.0281  0.6473
 9854TIP3    H251054   0.794   4.271   5.044 -2.9560 -1.9443  0.8269
 9855TIP3   OH251055   1.181   4.129   1.943  0.8192  0.1069 -0.2158
 9855TIP3    H151056   1.257   4.071   1.952  1.3977  0.9990  0.9738
 9855TIP3    H251057   1.114   4.088   1.997  1.6039  1.0911  1.5982
 9856TIP3   OH251058   3.703   4.690  17.196  0.5518 -0.2414 -0.0839
 9856TIP3    H151059   3.706   4.632  17.120  0.8067  0.8543 -0.9246
 9856TIP3    H251060   3.659   4.769  17.165 -1.9169 -0.8106  1.6437
 9857TIP3   OH251061   3.721   0.492   6.782  0.0089 -0.1645  0.3367
 9857TIP3    H151062   3.685   0.426   6.841  0.8085 -0.4290  0.5323
 9857TIP3    H251063   3.801   0.522   6.824  0.0334  0.4157 -0.1015
 9858TIP3   OH251064   5.803   5.518  15.980  0.6475 -0.1805 -0.0840
 9858TIP3    H151065   5.876   5.509  15.919 -1.4119 -0.5906 -2.6421
 9858TIP3    H251066   5.782   5.428  16.006  1.3475 -0.0263  1.1284
 9859TIP3   OH251067   6.757   1.803   5.477  0.0209  0.2592 -0.1184
 9859TIP3    H151068   6.756   1.769   5.566 -0.2417  2.5959  0.8338
 9859TIP3    H251069   6.849   1.826   5.461 -0.1916  1.4245  0.2325
 9860TIP3   OH251070   2.194   6.193   5.776  0.0513  0.5144  0.2987
 9860TIP3    H151071   2.215   6.125   5.711 -0.3603  2.3416 -1.8587
 9860TIP3    H251072   2.255   6.264   5.756  0.2839  0.9389  2.3235
 9861TIP3   OH251073   5.186   3.208  12.535  0.0389 -0.2619  0.2644
 9861TIP3    H151074   5.181   3.271  12.463  1.0158  0.5552  0.8825
 9861TIP3    H251075   5.132   3.135  12.506 -1.6981  1.1269 -0.1772
 9862TIP3   OH251076   1.338   6.473  12.794  0.1307  0.2526  0.4986
 9862TIP3    H151077   1.295   6.450  12.711  2.1192 -1.1997 -0.1874
 9862TIP3    H251078   1.280   6.437  12.861 -0.6481 -0.0667 -0.3152
 9863TIP3   OH251079   1.556   4.103  11.607  1.0347 -0.6537  0.1918
 9863TIP3    H151080   1.504   4.100  11.527  0.9722 -0.1338  0.2075
 9863TIP3    H251081   1.633   4.050  11.588  2.2344  1.4206 -1.0903
 9864TIP3   OH251082   2.344   1.322  15.424  0.2035  0.0908  0.5501
 9864TIP3    H151083   2.422   1.377  15.410 -0.6176  1.3011  0.6128
 9864TIP3    H251084   2.319   1.293  15.337 -0.5965  1.5708  0.2746
 9865TIP3   OH251085   0.521   1.846  14.252  0.0521 -0.0146  0.4451
 9865TIP3    H151086   0.477   1.762  14.246  0.3421 -0.2016  0.8755
 9865TIP3    H251087   0.542   1.856  14.345  2.0284 -0.5117  0.1049
 9866TIP3   OH251088   5.199   4.080   3.441 -0.3048 -0.3702  0.5604
 9866TIP3    H151089   5.127   4.141   3.432  0.0581  0.1397  1.0819
 9866TIP3    H251090   5.264   4.109   3.377 -0.3590 -0.5509  0.4195
 9867TIP3   OH251091   3.902   2.804  12.176 -0.0839 -0.1000  0.2355
 9867TIP3    H151092   3.951   2.886  12.179 -1.6808  0.9635 -0.9905
 9867TIP3    H251093   3.899   2.782  12.083  0.8630 -1.9379  0.5917
 9868TIP3   OH251094   5.989   4.302  13.655 -0.5646 -0.8255  0.4815
 9868TIP3    H151095   6.032   4.294  13.740  0.2295 -0.3033  0.1462
 9868TIP3    H251096   6.061   4.298  13.591 -1.2783 -2.7506 -0.2813
 9869TIP3   OH251097   0.430   6.180  17.121 -0.3358  0.2591 -0.0683
 9869TIP3    H151098   0.496   6.249  17.129 -1.1372  0.9312  1.1986
 9869TIP3    H251099   0.423   6.144  17.210  2.3946 -3.7647 -1.2036
 9870TIP3   OH251100   3.570   4.897  14.913  0.1803  0.5721 -0.5912
 9870TIP3    H151101   3.569   4.802  14.903  0.1987  0.5501 -0.3979
 9870TIP3    H251102   3.630   4.913  14.986 -0.0125  0.7132 -0.4602
 9871TIP3   OH251103   0.368   2.758  16.124 -0.5363  0.3241 -0.1673
 9871TIP3    H151104   0.325   2.840  16.145 -0.6683 -0.1469  1.5169
 9871TIP3    H251105   0.350   2.701  16.199  0.2197 -0.9787 -0.9327
 9872TIP3   OH251106   4.871   4.214  11.921  0.6298 -0.0465 -0.9712
 9872TIP3    H151107   4.965   4.227  11.921  0.7983 -0.2972  2.1972
 9872TIP3    H251108   4.859   4.120  11.939 -0.1272  0.3206  0.6425
 9873TIP3   OH251109   0.632   1.381  16.433  0.3871 -0.3861 -0.4455
 9873TIP3    H151110   0.600   1.468  16.410  1.1743 -0.0031 -0.1225
 9873TIP3    H251111   0.687   1.355  16.359  0.1019 -0.6424 -0.5705
 9874TIP3   OH251112   1.774   6.035   3.131 -0.4494  0.2904  0.4159
 9874TIP3    H151113   1.722   6.060   3.054  2.4424 -0.5421 -1.9733
 9874TIP3    H251114   1.856   6.082   3.121  0.2459 -0.2944  2.7542
 9875TIP3   OH251115   4.737   3.987   5.746  0.1120  0.1606 -0.4790
 9875TIP3    H151116   4.659   3.936   5.725 -1.0714  1.5867  0.2616
 9875TIP3    H251117   4.738   3.993   5.841  1.9353 -0.9774 -0.3710
 9876TIP3   OH251118   2.757   0.485   5.591 -0.2093 -0.3516 -0.0177
 9876TIP3    H151119   2.792   0.461   5.677  1.3364  1.2417 -0.1417
 9876TIP3    H251120   2.671   0.523   5.611 -1.5646 -3.3237  0.3919
 9877TIP3   OH251121   1.764   5.584   0.511  0.1060  0.2412  0.3677
 9877TIP3    H151122   1.775   5.664   0.459  2.0884  0.5339  1.1708
 9877TIP3    H251123   1.720   5.523   0.451  0.0344  1.3793 -0.7938
 9878TIP3   OH251124   4.925   3.497   1.491 -0.1124 -0.5886  0.2618
 9878TIP3    H151125   4.873   3.423   1.523 -0.4192 -1.5261 -2.1240
 9878TIP3    H251126   5.015   3.472   1.507 -0.2800 -0.2690  1.8205
 9879TIP3   OH251127   5.757   4.229  16.816 -0.1535 -0.2122  0.4816
 9879TIP3    H151128   5.801   4.144  16.808  1.1774  0.4767  0.2895
 9879TIP3    H251129   5.701   4.220  16.893 -1.1986 -1.7592 -0.4130
 9880TIP3   OH251130   2.199   1.626   4.276 -0.6420  0.3571  0.2551
 9880TIP3    H151131   2.149   1.631   4.358 -0.4729  0.6126  0.3416
 9880TIP3    H251132   2.285   1.595   4.303 -1.5193 -2.8651 -0.1863
 9881TIP3   OH251133   1.868   3.993  11.048  0.3041  0.1383  0.4210
 9881TIP3    H151134   1.900   4.029  10.966 -0.8086  0.1730 -0.0043
 9881TIP3    H251135   1.784   3.953  11.027  0.1152 -0.0765  1.4864
 9882TIP3   OH251136   0.457   4.295   1.211 -0.2039  0.5189 -0.1899
 9882TIP3    H151137   0.415   4.213   1.183 -0.4872  0.9596 -1.0895
 9882TIP3    H251138   0.454   4.291   1.307 -1.0984 -0.0792 -0.2235
 9883TIP3   OH251139   1.640   1.403   1.197  0.1775 -0.3496 -0.5133
 9883TIP3    H151140   1.585   1.341   1.149  0.1096  0.5267 -1.6188
 9883TIP3    H251141   1.611   1.489   1.167  1.4233  0.1677 -0.3260
 9884TIP3   OH251142   1.983   3.849  16.987 -0.0968  0.1948  0.4163
 9884TIP3    H151143   2.021   3.863  17.074 -1.4115  3.6557  0.5681
 9884TIP3    H251144   1.900   3.806  17.005  0.6320 -1.1961  0.6212
 9885TIP3   OH251145   3.412   2.650  13.025 -0.4342 -0.1287  0.3579
 9885TIP3    H151146   3.397   2.587  12.954 -2.1592  0.0169  0.5534
 9885TIP3    H251147   3.440   2.730  12.980 -0.6009 -0.3130 -0.0817
 9886TIP3   OH251148   2.795   4.884   4.754 -0.1798 -0.1051 -0.3199
 9886TIP3    H151149   2.730   4.888   4.684 -2.3359 -0.4854  1.5726
 9886TIP3    H251150   2.821   4.975   4.769  0.0768  0.0048 -1.3717
 9887TIP3   OH251151   5.836   4.257  16.013 -0.4171 -0.5804 -0.2105
 9887TIP3    H151152   5.885   4.176  16.000 -0.6704 -0.7556 -0.0854
 9887TIP3    H251153   5.768   4.234  16.077  0.3574  0.0763  0.8915
 9888TIP3   OH251154   5.402   3.218  14.553 -0.5222  0.4682  0.4725
 9888TIP3    H151155   5.436   3.305  14.534  1.0239 -0.2105 -0.0491
 9888TIP3    H251156   5.326   3.233  14.609 -0.1508  2.1232  0.5725
 9889TIP3   OH251157   0.859   1.616   3.620 -0.2315 -0.8752 -0.2463
 9889TIP3    H151158   0.900   1.703   3.620 -3.9471  1.0902  1.5528
 9889TIP3    H251159   0.859   1.590   3.527  0.3968  1.3663 -0.9384
 9890TIP3   OH251160   4.823   1.190   1.948 -0.3658 -0.2806  0.6199
 9890TIP3    H151161   4.914   1.219   1.941  0.1084 -1.5709  1.1145
 9890TIP3    H251162   4.776   1.264   1.986  0.3605  0.5886 -0.1374
 9891TIP3   OH251163   5.968   4.470   3.261 -0.2753 -0.5642 -0.2754
 9891TIP3    H151164   5.981   4.380   3.293  1.6780  0.0449  0.7912
 9891TIP3    H251165   6.046   4.489   3.209 -1.5316 -0.0865 -2.0525
 9892TIP3   OH251166   3.834   6.519   1.656 -0.5493  1.0058 -0.5165
 9892TIP3    H151167   3.808   6.582   1.589 -2.3100 -0.1601 -0.9948
 9892TIP3    H251168   3.758   6.511   1.712 -0.7638 -1.3992 -1.0428
 9893TIP3   OH251169   0.786   3.120  15.526 -0.0293 -0.2334 -0.3309
 9893TIP3    H151170   0.691   3.130  15.520 -0.0537 -0.4987 -0.3943
 9893TIP3    H251171   0.818   3.207  15.549 -0.3349 -0.2588  0.2158
 9894TIP3   OH251172   2.354   5.035  15.962 -0.3212  0.1315 -0.1154
 9894TIP3    H151173   2.393   4.949  15.980 -0.8549 -0.9080 -3.3682
 9894TIP3    H251174   2.422   5.083  15.914 -0.7203  0.8165 -0.0188
 9895TIP3   OH251175   1.535   1.578  12.732  0.3490  0.3187  0.3003
 9895TIP3    H151176   1.611   1.617  12.775  2.2341 -0.8114 -1.8490
 9895TIP3    H251177   1.475   1.652  12.717  2.8100  2.0771 -1.6332
 9896TIP3   OH251178   1.395   0.329   1.857  0.0191 -0.5018 -0.5147
 9896TIP3    H151179   1.332   0.266   1.892 -0.6533 -1.7119 -3.6065
 9896TIP3    H251180   1.380   0.408   1.908 -0.9217 -2.0231  1.7656
 9897TIP3   OH251181   3.137   1.606  13.952 -0.3211 -0.2629  0.1057
 9897TIP3    H151182   3.223   1.614  13.993 -0.0800  1.5206 -0.6331
 9897TIP3    H251183   3.145   1.654  13.870 -1.3419 -2.1537 -1.1700
 9898TIP3   OH251184   5.933   3.755   1.896 -0.0363  0.2236 -0.5078
 9898TIP3    H151185   5.857   3.707   1.863  0.0336  1.0725 -2.0085
 9898TIP3    H251186   5.897   3.838   1.928  0.2059  0.4261 -0.7601
 9899TIP3   OH251187   6.632   1.898  15.450 -0.2943  0.4795  0.4698
 9899TIP3    H151188   6.706   1.838  15.447 -1.0683 -0.6886  2.5635
 9899TIP3    H251189   6.565   1.857  15.394 -1.8026 -2.2155  3.9019
 9900TIP3   OH251190   2.320   3.946   3.770 -0.0023  0.2424 -0.5528
 9900TIP3    H151191   2.346   4.027   3.727 -0.6196  0.2085 -0.9932
 9900TIP3    H251192   2.230   3.961   3.799  0.0362 -0.1234 -0.2301
 9901TIP3   OH251193   1.276   0.209   0.844  0.1836 -0.2153  0.0921
 9901TIP3    H151194   1.214   0.145   0.807  1.3512 -1.4878  0.2548
 9901TIP3    H251195   1.239   0.294   0.821 -1.8447 -0.9099  0.5140
 9902TIP3   OH251196   5.518   1.935  17.117  0.5849 -0.5359  0.1909
 9902TIP3    H151197   5.568   1.983  17.051 -0.5770 -0.4441 -0.6561
 9902TIP3    H251198   5.582   1.913  17.184  1.6198  0.1472 -0.5381
 9903TIP3   OH251199   4.870   0.258   0.121 -0.5972 -0.2327  0.5166
 9903TIP3    H151200   4.889   0.170   0.089  1.9015 -0.1497  1.5445
 9903TIP3    H251201   4.902   0.259   0.211 -1.0497  1.5681  0.7009
 9904TIP3   OH251202   3.037   0.983   0.684  0.2616  0.7970 -0.1211
 9904TIP3    H151203   3.063   0.966   0.775  0.2940 -1.0789 -0.4418
 9904TIP3    H251204   2.973   1.053   0.691  0.1552  0.5961  1.3781
 9905TIP3   OH251205   5.382   6.433   2.345  0.2753  0.0680 -0.5706
 9905TIP3    H151206   5.364   6.518   2.304  1.0420  0.2876 -0.4646
 9905TIP3    H251207   5.296   6.392   2.353 -0.4607  1.7546  1.3807
 9906TIP3   OH251208   3.370   5.950  17.163 -0.2343 -0.2200 -0.2340
 9906TIP3    H151209   3.327   5.877  17.208  1.5425 -1.0442  0.1916
 9906TIP3    H251210   3.338   5.944  17.073  0.6708 -2.2408 -0.4907
 9907TIP3   OH251211   6.615   1.143  13.742 -0.0789  0.1443 -0.7063
 9907TIP3    H151212   6.655   1.070  13.694 -0.9702 -0.1419 -1.0258
 9907TIP3    H251213   6.690   1.197  13.768  0.5961 -0.8333 -0.5260
 9908TIP3   OH251214   4.950   0.943   3.782  0.0171 -0.4798  0.2250
 9908TIP3    H151215   4.908   0.872   3.733  0.5937 -0.5934 -0.1042
 9908TIP3    H251216   4.889   1.017   3.774  1.2709  0.3753 -2.9546
 9909TIP3   OH251217   2.394   3.806  13.854 -0.3743  0.1023  0.4459
 9909TIP3    H151218   2.433   3.731  13.810  0.2088  0.7013 -0.0916
 9909TIP3    H251219   2.422   3.799  13.945 -0.2947 -0.3077  0.3890
 9910TIP3   OH251220   5.902   4.675   4.740 -0.0034  0.4492 -0.7635
 9910TIP3    H151221   5.864   4.597   4.700  0.8569 -1.1719  1.3878
 9910TIP3    H251222   5.901   4.657   4.834  0.7712  2.7953 -0.2410
 9911TIP3   OH251223   1.602   5.880   5.060  0.8793  0.4562  0.2049
 9911TIP3    H151224   1.546   5.869   5.137  0.4693 -0.5863 -0.2198
 9911TIP3    H251225   1.608   5.974   5.047  0.6054  0.6320  1.2547
 9912TIP3   OH251226   1.997   3.615   5.598 -0.2023  0.4551  0.3115
 9912TIP3    H151227   1.910   3.596   5.631 -0.1049  0.4033  0.5425
 9912TIP3    H251228   2.056   3.573   5.661  0.0327  2.0654  1.1982
 9913TIP3   OH251229   1.002   2.357  14.427  0.2565 -0.0004  0.2068
 9913TIP3    H151230   0.938   2.292  14.454 -1.1625  0.8062 -1.0465
 9913TIP3    H251231   1.085   2.309  14.422 -0.4177 -1.2935  0.9507
 9914TIP3   OH251232   0.881   3.853   5.799 -0.6851  0.7312 -0.1250
 9914TIP3    H151233   0.816   3.868   5.868 -1.6938  1.1405 -1.1458
 9914TIP3    H251234   0.936   3.783   5.833 -0.6632  1.4615  1.4462
 9915TIP3   OH251235   1.937   6.668   0.980  0.3771 -0.1439  0.3560
 9915TIP3    H151236   1.921   6.713   1.063  1.4630  0.3011  0.3464
 9915TIP3    H251237   1.853   6.672   0.933  0.7949  3.4349 -0.3721
 9916TIP3   OH251238   3.513   0.508  16.259 -0.2144 -0.1432 -0.2946
 9916TIP3    H151239   3.439   0.518  16.320  0.9105  0.0725  1.0681
 9916TIP3    H251240   3.478   0.539  16.175 -1.3220  1.1239  0.5814
 9917TIP3   OH251241   4.480   5.854   4.963 -0.2967  0.0395 -0.7039
 9917TIP3    H151242   4.460   5.787   4.897 -0.4895 -0.8777  0.2470
 9917TIP3    H251243   4.507   5.803   5.040  1.6506  1.1310 -0.6233
 9918TIP3   OH251244   3.891   5.157   3.300  0.3270  0.3348 -0.4128
 9918TIP3    H151245   3.814   5.147   3.244 -0.8333 -1.6685  1.3704
 9918TIP3    H251246   3.869   5.229   3.358  0.5509  0.8920 -1.0089
 9919TIP3   OH251247   2.824   4.957   0.985 -0.3535 -0.2656 -0.3591
 9919TIP3    H151248   2.823   5.020   0.912 -0.4754  0.0718 -0.0673
 9919TIP3    H251249   2.779   4.880   0.950  1.6362 -1.0147 -1.4259
 9920TIP3   OH251250   3.944   2.009   4.846 -0.3833  0.1916  0.0399
 9920TIP3    H151251   3.997   2.051   4.778 -1.4879  1.0677 -0.3170
 9920TIP3    H251252   3.976   2.046   4.928 -0.5938  0.9268 -0.1948
 9921TIP3   OH251253   4.004   5.912   3.552  0.2207  0.1446  0.1490
 9921TIP3    H151254   3.910   5.910   3.569  0.4624 -0.6922  1.5331
 9921TIP3    H251255   4.026   6.005   3.550 -0.8038  0.3929 -1.3737
 9922TIP3   OH251256   1.030   6.559   3.183 -0.4698 -0.1818  0.3580
 9922TIP3    H151257   1.016   6.504   3.106 -0.1795 -0.6490  0.6361
 9922TIP3    H251258   0.943   6.569   3.222 -0.5524 -0.2797  0.1982
 9923TIP3   OH251259   1.485   4.115  13.261  0.2122  0.3303 -0.2638
 9923TIP3    H151260   1.446   4.189  13.215 -0.4294 -0.2940 -0.7352
 9923TIP3    H251261   1.507   4.052  13.192 -2.9729 -1.6741  0.3733
 9924TIP3   OH251262   2.084   6.824   2.379  0.0539  0.0041  0.1112
 9924TIP3    H151263   2.131   6.825   2.295 -1.2126 -1.4600 -0.6816
 9924TIP3    H251264   2.143   6.867   2.440  2.1782 -1.2057 -0.9629
 9925TIP3   OH251265   1.156   5.881   2.666 -0.0096 -0.1041  0.0821
 9925TIP3    H151266   1.247   5.890   2.640  0.1741  0.5162  0.9248
 9925TIP3    H251267   1.110   5.861   2.584  0.8234 -0.0837 -0.4011
 9926TIP3   OH251268   1.412   2.786  16.088  0.1721 -0.6514 -0.3865
 9926TIP3    H151269   1.432   2.825  16.173 -0.8957 -1.8087  0.4141
 9926TIP3    H251270   1.389   2.861  16.032  1.5645  0.1924  0.1067
 9927TIP3   OH251271   6.296   4.468  14.335  0.2822 -0.4342 -0.1068
 9927TIP3    H151272   6.384   4.435  14.318  0.1495 -0.5583 -0.5768
 9927TIP3    H251273   6.304   4.517  14.417  0.9305  0.1246 -0.4984
 9928TIP3   OH251274   3.605   3.485  10.896 -0.1043 -0.6938  0.4371
 9928TIP3    H151275   3.537   3.552  10.890  0.3309 -0.3305 -0.7595
 9928TIP3    H251276   3.575   3.415  10.837  1.5667  0.4354 -1.9120
 9929TIP3   OH251277   3.328   0.030   0.666 -0.1411  0.0321  0.0270
 9929TIP3    H151278   3.381   0.033   0.746 -2.2916 -1.0533  1.6163
 9929TIP3    H251279   3.389   0.051   0.596  2.0282  0.2908  1.8654
 9930TIP3   OH251280   5.859   2.753  14.977 -0.1236  0.3890 -0.5450
 9930TIP3    H151281   5.916   2.824  15.007  0.8223 -1.1505  1.5399
 9930TIP3    H251282   5.790   2.747  15.043  0.3132 -1.1634 -0.1977
 9931TIP3   OH251283   6.028   2.154  15.449 -0.0789  0.0726  0.1317
 9931TIP3    H151284   5.958   2.118  15.394 -0.3250  0.6513  0.0580
 9931TIP3    H251285   6.079   2.078  15.475  0.5110 -0.1457 -1.5245
 9932TIP3   OH251286   2.184   2.505  13.513  0.2901  0.7199  0.2508
 9932TIP3    H151287   2.119   2.564  13.551 -1.0872  1.0438 -2.3626
 9932TIP3    H251288   2.217   2.552  13.437 -0.1645 -1.4272 -1.3809
 9933TIP3   OH251289   5.080   3.201  11.729 -0.5610 -0.5969  0.2845
 9933TIP3    H151290   5.042   3.164  11.808 -0.2483 -2.1750 -0.2640
 9933TIP3    H251291   5.175   3.198  11.744 -0.5470  1.1582  0.7169
 9934TIP3   OH251292   5.942   6.364   5.589  0.5934  0.5280 -0.1026
 9934TIP3    H151293   5.956   6.270   5.591  2.7624  0.7919 -0.1528
 9934TIP3    H251294   5.882   6.382   5.661  2.4511 -0.5973  1.8300
 9935TIP3   OH251295   4.527   5.740   2.124 -0.1600 -0.1372 -0.4364
 9935TIP3    H151296   4.554   5.757   2.034  1.1024  1.3870  0.1712
 9935TIP3    H251297   4.464   5.810   2.143 -0.4984 -0.5124 -0.1577
 9936TIP3   OH251298   6.354   5.687   0.199  0.6100  0.0146  0.4840
 9936TIP3    H151299   6.406   5.767   0.204 -0.0141  0.3653  1.9566
 9936TIP3    H251300   6.348   5.656   0.290 -2.7222  0.6717  0.6172
 9937TIP3   OH251301   5.931   0.531   3.195 -0.3437  0.8213 -0.1689
 9937TIP3    H151302   5.893   0.451   3.231  1.3938  0.0154 -0.0222
 9937TIP3    H251303   5.911   0.527   3.102  0.0790 -0.0169 -0.2345
 9938TIP3   OH251304   0.549   3.953   4.396 -0.5605 -0.0113  0.6467
 9938TIP3    H151305   0.570   4.019   4.462  2.8777  1.7595 -1.9183
 9938TIP3    H251306   0.549   3.870   4.444  4.0626  0.8702  2.7284
 9939TIP3   OH251307   1.276   2.247  14.498  0.0410  0.1736  0.0660
 9939TIP3    H151308   1.338   2.209  14.561  0.4274 -0.8438 -0.9065
 9939TIP3    H251309   1.283   2.192  14.420 -2.5272 -0.3490  0.1031
 9940TIP3   OH251310   5.422   4.399  17.133  0.4376 -0.3306 -0.2184
 9940TIP3    H151311   5.426   4.388  17.228 -0.4782 -3.2712 -0.4200
 9940TIP3    H251312   5.330   4.418  17.115  0.4255 -0.7230 -0.5797
 9941TIP3   OH251313   2.952   2.485   0.700  0.2427 -0.3336 -0.8445
 9941TIP3    H151314   2.932   2.415   0.639  0.6977 -0.6652 -0.6210
 9941TIP3    H251315   2.868   2.505   0.742 -0.1669  0.2451 -1.9288
 9942TIP3   OH251316   5.529   2.156  16.146  0.0713  0.0516 -0.2831
 9942TIP3    H151317   5.449   2.203  16.174 -1.6484 -3.5074  1.4084
 9942TIP3    H251318   5.594   2.178  16.213 -0.0774  1.4044 -0.5529
 9943TIP3   OH251319   2.516   2.330  13.659 -0.1957  0.0101  0.5337
 9943TIP3    H151320   2.464   2.409  13.643 -1.3245 -0.5245  1.4034
 9943TIP3    H251321   2.459   2.258  13.633  0.4089 -0.5625  0.7720
 9944TIP3   OH251322   4.308   0.477   4.853 -0.1550 -0.7030  0.4603
 9944TIP3    H151323   4.224   0.433   4.847 -0.5132  0.0150  0.1138
 9944TIP3    H251324   4.372   0.407   4.838 -0.7454 -0.9137 -1.4640
 9945TIP3   OH251325   1.322   4.102  11.458 -0.0364 -0.0053 -0.5852
 9945TIP3    H151326   1.318   4.173  11.394 -0.3843 -0.4106 -1.0190
 9945TIP3    H251327   1.237   4.058  11.452 -0.1274  0.0424  0.2640
 9946TIP3   OH251328   5.299   4.960   3.066  0.2782 -0.3666  0.3345
 9946TIP3    H151329   5.280   4.983   3.157  1.1282 -1.1952  0.7332
 9946TIP3    H251330   5.311   5.045   3.023 -1.9344  0.1236  0.5431
 9947TIP3   OH251331   3.743   4.411   0.530 -0.4022  0.1334  0.2506
 9947TIP3    H151332   3.680   4.349   0.567 -1.2254 -0.1843 -1.5679
 9947TIP3    H251333   3.691   4.487   0.506  0.0286  0.1926 -0.5417
 9948TIP3   OH251334   4.286   3.801   3.243  0.2522  0.1603 -0.4155
 9948TIP3    H151335   4.250   3.726   3.291  0.0981  1.4364  1.5606
 9948TIP3    H251336   4.212   3.836   3.193 -0.4859  0.8044  1.0707
 9949TIP3   OH251337   1.218   6.665   2.344  0.3781 -0.1675  0.0193
 9949TIP3    H151338   1.313   6.668   2.334  0.3476  0.3264 -0.1438
 9949TIP3    H251339   1.195   6.748   2.386 -0.1487  0.4418 -1.3981
 9950TIP3   OH251340   1.042   1.121   2.369 -0.0693  0.1384  0.1278
 9950TIP3    H151341   1.079   1.200   2.330  0.8241 -1.6265 -2.9232
 9950TIP3    H251342   0.981   1.153   2.435 -0.5895  3.4234 -1.7392
 9951TIP3   OH251343   1.154   0.669  16.977  0.2713 -0.3911 -0.0872
 9951TIP3    H151344   1.248   0.681  16.967 -0.2252  4.0240 -2.2232
 9951TIP3    H251345   1.124   0.751  17.016 -2.7993 -1.2003 -0.4903
 9952TIP3   OH251346   2.445   3.725  12.566 -0.2571 -0.2955  0.3949
 9952TIP3    H151347   2.465   3.761  12.652  2.5407 -1.9378  0.5614
 9952TIP3    H251348   2.468   3.795  12.505 -1.5462  0.6095  0.9039
 9953TIP3   OH251349   0.669   2.800  11.564 -0.1499 -0.2891 -0.0376
 9953TIP3    H151350   0.761   2.818  11.546  0.1045 -0.6736  0.8169
 9953TIP3    H251351   0.660   2.706  11.550 -0.6158 -0.1291 -0.9123
 9954TIP3   OH251352   3.511   2.550  12.212  0.4418 -0.0434 -0.4547
 9954TIP3    H151353   3.521   2.599  12.294  0.2040  0.0771 -0.4960
 9954TIP3    H251354   3.497   2.618  12.145  0.4477 -0.1507 -0.5660
 9955TIP3   OH251355   2.917   4.172   4.120 -0.4692 -0.2500  0.0010
 9955TIP3    H151356   2.875   4.238   4.175 -1.1881 -1.0759  0.4831
 9955TIP3    H251357   2.869   4.091   4.139 -0.8191 -0.5512 -1.9179
 9956TIP3   OH251358   3.943   2.277   5.898  0.5499 -0.1963 -0.5621
 9956TIP3    H151359   3.850   2.267   5.883 -0.0813  1.4032  1.6447
 9956TIP3    H251360   3.974   2.189   5.922 -1.3399 -0.1182  2.7452
 9957TIP3   OH251361   5.302   2.724  15.683  0.0629  0.3232  0.4588
 9957TIP3    H151362   5.261   2.640  15.701 -1.8970  0.6606 -1.8378
 9957TIP3    H251363   5.257   2.786  15.740 -0.5306  0.2239  0.1036
 9958TIP3   OH251364   5.266   2.268  15.550 -0.4228 -0.1832 -0.5250
 9958TIP3    H151365   5.272   2.342  15.611  1.8346 -1.2961  0.7052
 9958TIP3    H251366   5.284   2.307  15.465  1.5771  0.6186  0.1952
 9959TIP3   OH251367   4.745   2.074  14.591  0.2660 -0.0164  0.8178
 9959TIP3    H151368   4.758   2.168  14.580  2.0403 -0.2403  0.7012
 9959TIP3    H251369   4.701   2.065  14.676 -2.4929  1.0291 -0.3915
 9960TIP3   OH251370   6.641   2.309   1.552 -0.4346  0.5233 -0.2676
 9960TIP3    H151371   6.719   2.255   1.537  0.1617  1.4968 -0.8039
 9960TIP3    H251372   6.676   2.393   1.580 -1.3951  0.2224  2.0303
 9961TIP3   OH251373   6.164   0.039  16.993 -0.2187  0.3928  0.0192
 9961TIP3    H151374   6.221   0.057  16.918 -1.0295 -1.7809 -1.2075
 9961TIP3    H251375   6.217   0.064  17.069  2.0803 -0.6822 -1.0959
 9962TIP3   OH251376   0.578   1.323   5.818 -0.0223  0.0075  0.3159
 9962TIP3    H151377   0.668   1.339   5.789  0.0626 -2.0024 -0.6925
 9962TIP3    H251378   0.588   1.262   5.891 -0.5125  1.3434  1.5585
 9963TIP3   OH251379   4.710   3.130  11.597 -0.1367 -0.0175 -0.5951
 9963TIP3    H151380   4.652   3.190  11.551  0.7414  1.9373  0.7110
 9963TIP3    H251381   4.666   3.115  11.681 -0.8916 -2.1815 -1.3030
 9964TIP3   OH251382   4.086   1.798  13.657 -0.6662 -0.2645  0.1326
 9964TIP3    H151383   4.010   1.824  13.605  0.3409 -1.5064 -2.0947
 9964TIP3    H251384   4.082   1.854  13.735 -2.7800  1.0245 -0.8104
 9965TIP3   OH251385   4.391   4.860   3.855 -0.1534 -0.5133  0.5647
 9965TIP3    H151386   4.343   4.874   3.773  0.1445  1.2803  0.6572
 9965TIP3    H251387   4.478   4.832   3.827  0.4865  1.7029  0.1405
 9966TIP3   OH251388   3.625   1.065  15.479  0.2203 -0.8483  1.1519
 9966TIP3    H151389   3.700   1.123  15.490  0.8084 -1.4442  0.3453
 9966TIP3    H251390   3.558   1.102  15.536  0.5154  0.7529  0.5225
 9967TIP3   OH251391   5.320   3.458   3.789  0.2133  0.1410  0.2911
 9967TIP3    H151392   5.319   3.522   3.718 -2.9195 -1.4754 -1.3324
 9967TIP3    H251393   5.296   3.375   3.748  0.0928 -1.2538  2.9469
 9968TIP3   OH251394   3.251   4.919   3.513 -0.2074 -0.2127  0.0971
 9968TIP3    H151395   3.190   4.866   3.563 -1.7432  1.6967  0.3558
 9968TIP3    H251396   3.333   4.917   3.563 -1.3695  0.7217  2.1082
 9969TIP3   OH251397   4.531   0.985  12.813 -0.2648  0.4246 -0.1019
 9969TIP3    H151398   4.436   0.977  12.819 -0.1896 -1.6352 -0.5983
 9969TIP3    H251399   4.550   0.976  12.719  0.2779  3.9124 -0.4354
 9970TIP3   OH251400   1.763   2.621   5.464 -0.0733  0.0377 -0.4524
 9970TIP3    H151401   1.817   2.687   5.419  2.0436 -0.9490  0.5151
 9970TIP3    H251402   1.819   2.544   5.469 -1.0503 -0.6020  1.8754
 9971TIP3   OH251403   4.196   0.851  15.167  0.5586 -0.0626  0.0283
 9971TIP3    H151404   4.143   0.799  15.107  0.7086 -0.0472 -0.1179
 9971TIP3    H251405   4.280   0.805  15.172  0.8267  0.3734 -0.4035
 9972TIP3   OH251406   6.213   6.135  14.124 -0.2052 -0.9862  0.3947
 9972TIP3    H151407   6.253   6.093  14.048  1.5431 -2.0637  1.8155
 9972TIP3    H251408   6.142   6.075  14.150 -0.2236 -1.0730  0.1422
 9973TIP3   OH251409   4.945   0.753   2.045 -0.3162 -0.8306 -0.3460
 9973TIP3    H151410   5.005   0.681   2.058 -1.3193 -1.8537 -1.2210
 9973TIP3    H251411   4.944   0.799   2.130  0.6543 -1.5683  0.0803
 9974TIP3   OH251412   4.979   5.645  12.162  0.0245  0.4179  0.7922
 9974TIP3    H151413   5.063   5.614  12.128 -1.3492 -2.9778  0.0185
 9974TIP3    H251414   4.946   5.704  12.094  0.9136  0.1676  0.1180
 9975TIP3   OH251415   6.056   0.926  16.058 -0.5542  0.0958  0.8966
 9975TIP3    H151416   6.130   0.950  16.114  0.8947 -0.8184 -0.4974
 9975TIP3    H251417   6.081   0.958  15.971 -0.7792 -2.0543 -0.0261
 9976TIP3   OH251418   5.437   2.577   2.658 -0.2001  0.3311  0.2976
 9976TIP3    H151419   5.349   2.607   2.678 -0.6654  0.4313 -1.7783
 9976TIP3    H251420   5.458   2.516   2.729 -1.6626  0.8052  1.1648
 9977TIP3   OH251421   2.207   4.881  11.628  0.0898 -0.0984 -0.4662
 9977TIP3    H151422   2.286   4.906  11.676 -0.0761 -0.7262  0.1579
 9977TIP3    H251423   2.239   4.824  11.558  0.2963  0.5286 -0.8873
 9978TIP3   OH251424   3.338   1.511   0.849 -0.3284  0.1650 -0.0502
 9978TIP3    H151425   3.343   1.525   0.944  2.7467 -0.4259 -0.0175
 9978TIP3    H251426   3.336   1.599   0.811 -0.0158  0.4349  0.5445
 9979TIP3   OH251427   4.103   0.501  13.412 -0.1764 -0.2450 -0.1908
 9979TIP3    H151428   4.141   0.521  13.497 -0.6738 -1.2663  0.2872
 9979TIP3    H251429   4.011   0.525  13.420 -0.0556  0.4228 -0.7147
 9980TIP3   OH251430   4.635   0.524  13.254  0.2988 -0.1905  0.8778
 9980TIP3    H151431   4.719   0.532  13.298  0.9674  0.3014 -0.4396
 9980TIP3    H251432   4.647   0.450  13.194  0.0919  0.4193  0.0699
 9981TIP3   OH251433   1.627   4.783  13.075  0.2935  0.1627 -0.4452
 9981TIP3    H151434   1.559   4.842  13.044 -1.5142 -1.0066  1.1035
 9981TIP3    H251435   1.589   4.740  13.152  2.3498 -1.3970 -0.2108
 9982TIP3   OH251436   4.391   6.836   5.795  0.2319  0.4500 -0.2489
 9982TIP3    H151437   4.328   6.764   5.789  0.4060  0.3987 -2.3695
 9982TIP3    H251438   4.411   6.843   5.888 -1.0627 -1.1277  0.1983
 9983TIP3   OH251439   1.709   3.404  16.207 -0.4317  0.1727 -0.5466
 9983TIP3    H151440   1.655   3.343  16.157 -1.6183  0.3851  0.4130
 9983TIP3    H251441   1.742   3.466  16.142  0.0259 -0.9204 -1.3966
 9984TIP3   OH251442   1.062   4.655   3.336 -0.1494 -0.1650  0.5418
 9984TIP3    H151443   1.048   4.565   3.305  0.6904 -0.3493  0.6652
 9984TIP3    H251444   1.126   4.646   3.407 -0.5411  0.4684  0.9828
 9985TIP3   OH251445   2.075   3.313  16.839 -0.2626  0.4323 -0.2694
 9985TIP3    H151446   2.148   3.264  16.801 -1.1538  0.2053 -1.7524
 9985TIP3    H251447   2.075   3.286  16.931  0.1098 -1.3513 -0.7368
 9986TIP3   OH251448   2.233   6.107  15.251 -0.1595  0.3253 -0.2760
 9986TIP3    H151449   2.234   6.058  15.169  1.1506 -0.2814  0.0833
 9986TIP3    H251450   2.177   6.056  15.309  1.0874 -0.7118  0.0549
 9987TIP3   OH251451   6.429   0.542   2.102  0.4731  0.1769 -0.0454
 9987TIP3    H151452   6.396   0.620   2.059  0.1013 -0.1816 -0.4273
 9987TIP3    H251453   6.483   0.498   2.035 -0.3025 -0.5071 -0.2416
 9988TIP3   OH251454   0.160   4.127   4.808  0.3614 -0.1055  0.8867
 9988TIP3    H151455   0.247   4.087   4.819 -0.3925 -1.6626  1.5075
 9988TIP3    H251456   0.112   4.064   4.755 -0.7416  0.1707  1.5291
 9989TIP3   OH251457   2.754   5.529   5.203 -0.4038  0.1600  0.0478
 9989TIP3    H151458   2.821   5.581   5.247  0.5151  1.0404 -2.2344
 9989TIP3    H251459   2.725   5.466   5.269  0.2774  1.8958  2.1242
 9990TIP3   OH251460   5.522   0.469  11.642 -0.1854 -0.1264 -0.2925
 9990TIP3    H151461   5.525   0.374  11.643 -1.3091 -0.1774  0.0013
 9990TIP3    H251462   5.430   0.490  11.657  0.3815  1.0153  2.1256
 9991TIP3   OH251463   3.392   5.733   3.039  0.0257 -0.0301 -0.4431
 9991TIP3    H151464   3.453   5.664   3.015  0.6193  0.0360  0.8040
 9991TIP3    H251465   3.377   5.781   2.957  2.1635  0.3551 -0.6503
 9992TIP3   OH251466   6.242   2.215   0.163  0.0019 -0.4115  0.6324
 9992TIP3    H151467   6.203   2.251   0.084 -0.4047 -0.7576  0.6705
 9992TIP3    H251468   6.333   2.197   0.139 -0.5178 -2.0773 -0.2939
 9993TIP3   OH251469   5.761   2.989   2.346  0.0979 -0.1930 -0.7339
 9993TIP3    H151470   5.745   2.973   2.439  2.6123  1.1036  0.0075
 9993TIP3    H251471   5.697   3.057   2.322  0.0536  0.1477  0.3090
 9994TIP3   OH251472   6.481   5.595  16.005 -0.0632  0.3455 -0.2494
 9994TIP3    H151473   6.491   5.662  15.937  1.3934  0.1671 -0.2489
 9994TIP3    H251474   6.386   5.587  16.017 -0.3192  1.1108 -1.5249
 9995TIP3   OH251475   2.226   1.331   1.896  0.4866  0.9036 -0.4498
 9995TIP3    H151476   2.150   1.320   1.953  1.1904  1.1042  0.5468
 9995TIP3    H251477   2.301   1.331   1.955  1.3019  0.3341 -1.4529
 9996TIP3   OH251478   2.880   6.619   2.786 -0.8053 -0.4396 -0.1077
 9996TIP3    H151479   2.910   6.706   2.760  0.4609 -1.0842 -0.9197
 9996TIP3    H251480   2.785   6.628   2.795 -0.4763  1.8111  2.9126
 9997TIP3   OH251481   3.404   5.818  12.832 -0.2460 -0.3784  0.0927
 9997TIP3    H151482   3.495   5.808  12.804  0.4609  0.7313  1.7953
 9997TIP3    H251483   3.388   5.741  12.887 -0.8936 -1.4006 -1.4824
 9998TIP3   OH251484   0.414   6.309  12.353 -0.0965 -0.2766 -0.0069
 9998TIP3    H151485   0.340   6.370  12.360  0.8162  0.7958  0.6882
 9998TIP3    H251486   0.460   6.338  12.274 -0.3874 -0.9163 -0.4149
 9999TIP3   OH251487   1.978   5.936   4.378  0.2030  0.2019  0.5278
 9999TIP3    H151488   2.037   5.879   4.329 -0.6392 -1.6095  1.5013
 9999TIP3    H251489   1.900   5.942   4.323  0.1734  0.1615  0.5656
10000TIP3   OH251490   4.584   0.299   2.571  0.1033  0.9116  0.3623
10000TIP3    H151491   4.552   0.360   2.504 -0.5276  1.0237  0.7564
10000TIP3    H251492   4.548   0.214   2.546  1.0339  0.6812 -0.2212
10001TIP3   OH251493   4.076   1.166  16.343  0.4005  0.1123  0.4932
10001TIP3    H151494   4.134   1.189  16.416  1.5837 -0.9705 -0.0670
10001TIP3    H251495   4.112   1.084  16.309 -0.3241  0.4317 -1.1115
10002TIP3   OH251496   3.813   4.642   4.361 -0.7045 -0.2852 -0.0689
10002TIP3    H151497   3.759   4.654   4.283 -3.0606 -1.7307  1.2272
10002TIP3    H251498   3.753   4.655   4.435  0.8050 -1.4556  1.4678
10003TIP3   OH251499   5.540   3.183  12.356  0.3609 -0.0186 -0.2240
10003TIP3    H151500   5.467   3.237  12.327  2.4804  2.9471 -0.5251
10003TIP3    H251501   5.553   3.206  12.448  1.2976  0.0143 -0.3476
10004TIP3   OH251502   1.490   4.748   5.494  0.0193 -1.1126  0.1280
10004TIP3    H151503   1.413   4.699   5.526 -0.4154 -1.3680 -1.2411
10004TIP3    H251504   1.559   4.682   5.488  0.1105 -1.0583  0.5374
10005TIP3   OH251505   0.765   2.408   3.323 -0.4744  0.1698 -0.5263
10005TIP3    H151506   0.673   2.421   3.346 -0.1560  1.8736 -0.0632
10005TIP3    H251507   0.777   2.458   3.243  0.6313  2.2894  0.8619
10006TIP3   OH251508   0.938   4.856  10.460 -0.5393  1.1429  0.0340
10006TIP3    H151509   0.846   4.833  10.462 -0.6677  1.5895  2.2121
10006TIP3    H251510   0.940   4.952  10.469  0.1201  1.1124  0.3505
10007TIP3   OH251511   5.879   1.745   5.562 -0.2338  0.3085 -0.3522
10007TIP3    H151512   5.893   1.752   5.467 -1.6559 -0.0947 -0.6254
10007TIP3    H251513   5.798   1.694   5.570  1.6974 -2.7821  1.1545
10008TIP3   OH251514   2.094   1.584  14.318  0.1207 -0.0760  0.0664
10008TIP3    H151515   2.176   1.613  14.278  0.8195 -1.5649  0.3661
10008TIP3    H251516   2.110   1.590  14.412 -1.0435  2.0927  0.2002
10009TIP3   OH251517   6.658   0.682   0.627 -0.0069 -0.1205 -0.3507
10009TIP3    H151518   6.705   0.692   0.710 -0.2876  0.0551 -0.2133
10009TIP3    H251519   6.689   0.755   0.573  0.2115 -0.2618 -0.4213
10010TIP3   OH251520   3.031   6.388   2.782 -0.3237  0.1532  0.3217
10010TIP3    H151521   3.090   6.410   2.710 -1.3028  0.7596 -0.3059
10010TIP3    H251522   2.966   6.458   2.783 -1.2543 -0.6935  0.7564
10011TIP3   OH251523   5.970   0.867  12.982  0.2694 -0.3960 -0.0481
10011TIP3    H151524   5.904   0.869  12.912  0.4011 -0.5046 -0.1743
10011TIP3    H251525   6.054   0.867  12.936  0.4427  2.4650  0.1100
10012TIP3   OH251526   6.776   6.271  14.564 -0.1860  0.5971 -0.0761
10012TIP3    H151527   6.727   6.264  14.482 -0.3086  0.1060  0.0352
10012TIP3    H251528   6.865   6.244  14.541  0.2568  2.2827 -0.4634
10013TIP3   OH251529   3.246   2.625  13.634 -0.2258 -0.1808 -0.2847
10013TIP3    H151530   3.311   2.688  13.603 -0.3590  0.2996  0.3849
10013TIP3    H251531   3.296   2.547  13.656  0.3616  0.6951  1.6751
10014TIP3   OH251532   6.776   3.955   2.688 -0.6141 -0.1859 -0.3030
10014TIP3    H151533   6.757   4.034   2.738 -1.3296 -0.6571  0.2003
10014TIP3    H251534   6.696   3.939   2.637 -0.2552 -0.2531 -0.8486
10015TIP3   OH251535   1.216   5.670  16.769 -0.4145  0.7155 -0.4964
10015TIP3    H151536   1.171   5.602  16.719 -0.9736  1.7284 -1.4181
10015TIP3    H251537   1.193   5.752  16.724  0.0823  1.5358  0.6957
10016TIP3   OH251538   2.187   4.278   2.021  0.5795  0.6432 -0.1882
10016TIP3    H151539   2.192   4.240   2.109  1.0815  1.5563  0.1830
10016TIP3    H251540   2.161   4.204   1.965  1.6258 -0.2808  0.4978
10017TIP3   OH251541   1.827   2.552   1.852  0.1675  0.2191 -0.2424
10017TIP3    H151542   1.754   2.563   1.792  1.0138 -0.9630 -1.5440
10017TIP3    H251543   1.808   2.471   1.899 -2.2542  2.8107  3.7909
10018TIP3   OH251544   3.981   4.503  11.659  0.3215  0.2235  0.0258
10018TIP3    H151545   4.052   4.549  11.614 -0.0734  1.0295  0.2047
10018TIP3    H251546   4.019   4.477  11.743  0.4625  0.4947  0.0491
10019TIP3   OH251547   1.843   2.845  16.739  0.7549  0.2293 -0.1022
10019TIP3    H151548   1.921   2.809  16.782  0.3237  0.3873  0.8321
10019TIP3    H251549   1.829   2.930  16.780  1.6589  1.4628 -2.1671
10020TIP3   OH251550   0.134   1.414   2.394  1.0049  0.2877  0.4423
10020TIP3    H151551   0.063   1.477   2.394 -0.8072 -1.4515  4.2040
10020TIP3    H251552   0.104   1.344   2.336  1.0331  0.8318 -0.2481
10021TIP3   OH251553   6.123   2.778  12.174  0.1766 -0.9247  0.3921
10021TIP3    H151554   6.070   2.782  12.254 -0.9374 -2.3397 -0.2413
10021TIP3    H251555   6.148   2.685  12.167 -0.2650 -0.9491 -1.2212
10022TIP3   OH251556   4.517   4.342  15.255 -0.9385 -0.2680 -0.2671
10022TIP3    H151557   4.478   4.321  15.171 -1.0611 -0.5386 -0.1425
10022TIP3    H251558   4.457   4.406  15.294 -0.2576  0.7995 -0.9063
10023TIP3   OH251559   0.249   0.875  15.150 -0.3296  0.2425 -0.5714
10023TIP3    H151560   0.159   0.874  15.183 -0.6281 -2.6091 -1.1734
10023TIP3    H251561   0.251   0.805  15.084  2.1955  0.5883 -0.9626
10024TIP3   OH251562   1.259   0.514   2.463  0.1047  0.2375  0.2427
10024TIP3    H151563   1.212   0.516   2.546  0.4464  0.7966  0.4316
10024TIP3    H251564   1.235   0.431   2.423  0.6443 -0.4588  1.3278
10025TIP3   OH251565   2.075   4.921   0.125 -0.3143  0.2884 -0.3087
10025TIP3    H151566   2.035   4.923   0.212  1.5807 -0.0638  0.6466
10025TIP3    H251567   2.103   5.011   0.109 -0.1171  0.2333 -0.2767
10026TIP3   OH251568   0.252   3.878  15.256 -0.3547 -0.6840  0.1915
10026TIP3    H151569   0.316   3.941  15.289 -2.1309  0.9727  0.5952
10026TIP3    H251570   0.204   3.849  15.333  0.3300 -2.5178  0.0016
10027TIP3   OH251571   3.669   4.232  13.604 -0.0836 -0.1453 -0.2888
10027TIP3    H151572   3.577   4.205  13.605 -0.6212  1.5729  0.2896
10027TIP3    H251573   3.666   4.323  13.576  1.5423 -0.3018 -1.0669
10028TIP3   OH251574   0.796   3.399  11.011 -0.3797  0.1103 -0.1661
10028TIP3    H151575   0.875   3.345  11.007 -2.3242 -3.0665  0.5152
10028TIP3    H251576   0.783   3.416  11.104  0.8199  2.9491 -0.4246
10029TIP3   OH251577   5.178   6.597   2.189  0.1199 -0.5719 -0.3553
10029TIP3    H151578   5.165   6.654   2.114 -0.3536 -0.6086 -0.3060
10029TIP3    H251579   5.174   6.508   2.153  0.1728 -0.5851 -0.3284
10030TIP3   OH251580   0.321   3.609   3.608 -0.2243  0.0204  0.0360
10030TIP3    H151581   0.361   3.559   3.678 -1.9332  1.0358  1.8501
10030TIP3    H251582   0.320   3.699   3.640 -1.7333  0.3993 -0.9398
10031TIP3   OH251583   1.034   6.575  11.867  0.3019  0.6782 -0.2164
10031TIP3    H151584   0.955   6.544  11.823 -0.3732  1.0250  0.7366
10031TIP3    H251585   1.103   6.563  11.801 -0.6778  1.1947 -1.3868
10032TIP3   OH251586   5.194   2.168  12.823  0.0571  0.0469 -0.2366
10032TIP3    H151587   5.275   2.219  12.817 -0.4448  0.8218 -0.5111
10032TIP3    H251588   5.219   2.080  12.792  1.0776 -0.0681  0.8664
10033TIP3   OH251589   6.642   5.745   5.818  0.2006  0.0720  0.2510
10033TIP3    H151590   6.572   5.720   5.877 -0.9417  0.2562 -0.9807
10033TIP3    H251591   6.603   5.809   5.759  0.9526 -0.9292 -1.4160
10034TIP3   OH251592   4.717   4.655   3.679 -0.1167  0.0595 -0.0722
10034TIP3    H151593   4.697   4.565   3.655 -1.8178  0.9005 -2.1614
10034TIP3    H251594   4.723   4.702   3.596  1.9496  1.6732  0.8934
10035TIP3   OH251595   5.831   2.982   3.079 -0.0832  0.0645 -0.0748
10035TIP3    H151596   5.738   2.991   3.097 -0.4349  0.2672 -1.8517
10035TIP3    H251597   5.871   2.969   3.165 -1.7995 -0.6101  0.6527
10036TIP3   OH251598   2.862   2.460   5.414  0.1181  0.3170 -0.9144
10036TIP3    H151599   2.905   2.375   5.405  1.0362  0.7223 -0.5015
10036TIP3    H251600   2.776   2.439   5.449  1.8816 -0.2899  3.9766
10037TIP3   OH251601   1.691   2.124   5.433  0.0994  0.1794  0.2715
10037TIP3    H151602   1.658   2.067   5.502  0.4192 -2.0087 -1.2867
10037TIP3    H251603   1.775   2.085   5.406  0.8696  1.9927 -0.1661
10038TIP3   OH251604   6.068   1.107  13.332  0.3206 -0.1948  0.0772
10038TIP3    H151605   6.101   1.032  13.382 -0.6233 -1.2194 -0.7737
10038TIP3    H251606   6.000   1.070  13.276 -0.4853  1.3879 -0.0481
10039TIP3   OH251607   0.366   5.747  16.536  0.2972 -0.1820 -0.4009
10039TIP3    H151608   0.399   5.706  16.616  0.0289 -0.1296 -0.2621
10039TIP3    H251609   0.353   5.839  16.560  1.9713  0.2471 -1.0328
10040TIP3   OH251610   2.934   5.606  12.410 -0.3980 -0.5845 -0.7536
10040TIP3    H151611   2.854   5.656  12.397 -1.7748 -2.2490  0.8157
10040TIP3    H251612   2.923   5.529  12.355  0.4020 -0.5509 -0.9713
10041TIP3   OH251613   3.273   2.278  10.874 -0.3389  0.2344  0.1886
10041TIP3    H151614   3.314   2.217  10.814  1.1084  1.5230 -0.1868
10041TIP3    H251615   3.339   2.346  10.889 -2.3024  2.4577 -0.4995
10042TIP3   OH251616   4.487   0.796   3.995  0.0802  0.0905 -0.8487
10042TIP3    H151617   4.465   0.716   3.947 -3.4021 -0.5347  1.4531
10042TIP3    H251618   4.555   0.769   4.057 -1.3668 -1.2808  0.2063
10043TIP3   OH251619   6.732   5.492  11.250 -0.1436  0.0845 -0.1302
10043TIP3    H151620   6.745   5.516  11.158  0.4297 -2.7225 -0.8818
10043TIP3    H251621   6.676   5.561  11.285 -1.2965  0.6977 -2.8956
10044TIP3   OH251622   1.281   2.401   0.430  0.4340 -0.0071 -0.2915
10044TIP3    H151623   1.273   2.316   0.387 -0.2874 -0.4343  0.6557
10044TIP3    H251624   1.278   2.465   0.358 -4.9829 -0.4106 -0.7707
10045TIP3   OH251625   5.825   3.802   4.789 -0.1025 -0.1768 -0.2972
10045TIP3    H151626   5.757   3.847   4.838  0.3028  0.8676 -0.6677
10045TIP3    H251627   5.862   3.739   4.851 -0.2295  0.4652  0.4357
10046TIP3   OH251628   2.867   3.786   6.503 -0.0686  0.3885  0.3261
10046TIP3    H151629   2.919   3.708   6.486  0.4799  0.9103 -0.4329
10046TIP3    H251630   2.898   3.817   6.588  1.2391  0.9771 -0.3409
10047TIP3   OH251631   1.752   2.905   5.014 -0.1135  0.4199 -0.0708
10047TIP3    H151632   1.666   2.881   5.048 -1.3064  0.9498 -2.4605
10047TIP3    H251633   1.778   2.981   5.067  0.0937 -1.2342  2.3277
10048TIP3   OH251634   3.964   2.704  14.215  0.1936  0.0187 -0.2658
10048TIP3    H151635   4.044   2.690  14.165  1.0702  0.4982  0.9713
10048TIP3    H251636   3.991   2.702  14.307 -1.3133 -0.4393  0.2056
10049TIP3   OH251637   4.294   1.615   3.840  0.2641  0.2938 -0.2804
10049TIP3    H151638   4.211   1.592   3.881 -0.0456  1.3176 -0.3135
10049TIP3    H251639   4.339   1.668   3.906  1.4485 -1.3043  0.2391
10050TIP3   OH251640   5.280   6.060  13.924  0.6389  0.5383  0.0530
10050TIP3    H151641   5.372   6.035  13.921  0.3180 -1.5193  2.8945
10050TIP3    H251642   5.234   5.990  13.877  0.4383  1.4270 -1.1364
10051TIP3   OH251643   2.154   6.312   0.373  0.2904  0.4163  0.5472
10051TIP3    H151644   2.085   6.256   0.338  0.0537  1.7868 -1.3254
10051TIP3    H251645   2.235   6.264   0.354  0.0311  0.2039 -0.0660
10052TIP3   OH251646   2.480   6.194  11.109  0.2613  0.3302 -0.9701
10052TIP3    H151647   2.445   6.271  11.064  0.0934 -0.3390 -2.0198
10052TIP3    H251648   2.465   6.211  11.202 -0.5634  1.1777 -1.2493
10053TIP3   OH251649   0.548   1.447  12.619  0.9784 -0.5219 -0.3665
10053TIP3    H151650   0.610   1.406  12.559  0.7409 -1.6835  0.1448
10053TIP3    H251651   0.467   1.456  12.568  1.1777 -0.2123 -0.6333
10054TIP3   OH251652   6.060   1.258   0.867  0.0035  0.3509  0.1277
10054TIP3    H151653   6.149   1.227   0.883  0.0128  0.8660  1.1962
10054TIP3    H251654   6.071   1.333   0.808  0.1740 -0.2387 -0.6045
10055TIP3   OH251655   0.638   5.312   2.049  0.2574  0.1878 -0.1225
10055TIP3    H151656   0.650   5.333   1.957  0.3375 -0.0082 -0.1582
10055TIP3    H251657   0.618   5.218   2.050 -1.7564  0.5656 -0.1003
10056TIP3   OH251658   1.136   2.283   5.540 -0.6576  0.2593 -0.2198
10056TIP3    H151659   1.206   2.302   5.477 -0.3078 -1.0796 -0.2601
10056TIP3    H251660   1.132   2.188   5.544 -1.4485  0.3168  0.9384
10057TIP3   OH251661   3.532   3.210   1.998  0.0157  0.0164 -0.4969
10057TIP3    H151662   3.437   3.210   2.001 -0.0066  1.2253 -0.6432
10057TIP3    H251663   3.557   3.302   2.008  1.1733 -0.2936 -0.3169
10058TIP3   OH251664   1.004   3.189   5.429 -0.0785  0.9978 -0.4128
10058TIP3    H151665   0.955   3.122   5.477  0.6462  0.6492 -0.1582
10058TIP3    H251666   0.948   3.209   5.354 -1.2021  1.5022  0.5142
10059TIP3   OH251667   2.776   3.625  16.522 -0.6497  0.2799 -0.2218
10059TIP3    H151668   2.844   3.660  16.465 -1.1160  0.4836 -0.6592
10059TIP3    H251669   2.694   3.639  16.474 -0.8809 -1.1555 -0.2855
10060TIP3   OH251670   0.496   0.761   2.177  0.1948 -0.9763 -0.4519
10060TIP3    H151671   0.403   0.745   2.191 -0.3819  0.3772 -2.4052
10060TIP3    H251672   0.522   0.817   2.251 -0.9448 -0.0282 -0.7351
10061TIP3   OH251673   0.694   6.336  12.083  0.1841 -0.4283 -0.3357
10061TIP3    H151674   0.702   6.383  12.166  0.0857 -0.8124 -0.1055
10061TIP3    H251675   0.682   6.244  12.108 -2.7961 -0.2156 -0.6607
10062TIP3   OH251676   4.275   5.065   4.018  0.2608  0.1293  0.3580
10062TIP3    H151677   4.343   5.128   4.043  0.2195  1.2750 -2.0758
10062TIP3    H251678   4.315   5.012   3.949 -0.4692 -0.9595  0.7453
10063TIP3   OH251679   1.594   1.351   0.773 -0.1713 -0.4705 -0.0044
10063TIP3    H151680   1.641   1.307   0.844 -0.3638 -0.1970  0.2976
10063TIP3    H251681   1.660   1.365   0.706  0.1907 -0.0852  0.4192
10064TIP3   OH251682   2.643   4.097   5.127 -0.0213  0.1952  0.1102
10064TIP3    H151683   2.607   4.036   5.064 -1.4394 -1.4870  2.3805
10064TIP3    H251684   2.593   4.178   5.115 -1.9107 -0.8480  0.5533
10065TIP3   OH251685   2.915   5.549  12.085 -0.4068  0.4001  0.4361
10065TIP3    H151686   2.956   5.488  12.146 -0.2525  0.1224  0.0569
10065TIP3    H251687   2.923   5.507  11.999  1.7130  1.9147 -0.1835
10066TIP3   OH251688   3.694   3.817  12.135  0.4701 -0.1803 -1.0563
10066TIP3    H151689   3.702   3.856  12.223 -1.7441 -3.0075  0.5663
10066TIP3    H251690   3.782   3.785  12.116  1.1458  1.0394 -0.1808
10067TIP3   OH251691   1.188   3.079  12.700 -0.0037 -0.3422  0.1010
10067TIP3    H151692   1.093   3.076  12.714 -0.4419 -1.6045 -2.5245
10067TIP3    H251693   1.205   3.008  12.638  2.5943  0.2313  0.0630
10068TIP3   OH251694   5.727   2.704   4.673  0.3984 -0.0799 -0.3343
10068TIP3    H151695   5.644   2.697   4.719  0.3958 -0.3296 -0.3776
10068TIP3    H251696   5.775   2.624   4.695  1.1612  0.6475  0.7268
10069TIP3   OH251697   3.566   5.645   3.683  0.2337  0.1057 -0.1045
10069TIP3    H151698   3.584   5.581   3.752 -0.3364  0.6344  0.5444
10069TIP3    H251699   3.551   5.592   3.605 -0.8111 -0.5970  0.5457
10070TIP3   OH251700   4.850   0.626  13.028  0.3282  0.7133  0.4377
10070TIP3    H151701   4.779   0.635  12.965  0.8414  1.9858  0.0172
10070TIP3    H251702   4.861   0.531  13.037 -0.8445  0.4986 -0.1256
10071TIP3   OH251703   6.199   3.078   1.726 -0.0138  0.2827  0.9631
10071TIP3    H151704   6.202   2.987   1.756 -0.4180  0.0674  0.3801
10071TIP3    H251705   6.121   3.082   1.670  0.5070  0.7466  0.2473
10072TIP3   OH251706   3.988   3.857   3.190 -0.2544  0.0026  0.1116
10072TIP3    H151707   3.954   3.777   3.230 -0.9863  0.0361 -0.4284
10072TIP3    H251708   3.927   3.925   3.216  0.2079  0.3463  0.3277
10073TIP3   OH251709   4.218   1.928   3.211 -0.1671  0.3542 -0.8793
10073TIP3    H151710   4.157   1.854   3.219 -1.4523  1.4267 -0.3231
10073TIP3    H251711   4.290   1.894   3.159 -0.3109 -1.5460  0.0891
10074TIP3   OH251712   5.109   6.835  16.091  0.8793  0.2568  0.0660
10074TIP3    H151713   5.128   6.846  15.998 -0.1221  1.2825 -0.0375
10074TIP3    H251714   5.148   6.751  16.114  2.8164  0.8509 -0.8252
10075TIP3   OH251715   2.381   0.952  14.146  0.2394 -0.1203  0.1229
10075TIP3    H151716   2.467   0.981  14.114  0.4275  0.4335  1.0628
10075TIP3    H251717   2.369   0.865  14.108  1.5279 -0.4875  0.5027
10076TIP3   OH251718   1.152   4.963   4.100  0.1489  0.0415  0.2722
10076TIP3    H151719   1.246   4.971   4.086 -0.1848 -0.0607 -2.8384
10076TIP3    H251720   1.114   5.035   4.050 -1.5070 -1.6900 -1.1420
10077TIP3   OH251721   1.876   4.913  12.557  0.1901  0.3497  0.2350
10077TIP3    H151722   1.924   4.994  12.543 -1.0006  0.8259 -1.5924
10077TIP3    H251723   1.943   4.846  12.564  1.1792  1.1067 -1.3482
10078TIP3   OH251724   5.622   4.862   4.266 -0.2064 -0.3056  0.8412
10078TIP3    H151725   5.542   4.908   4.292 -0.4032  0.0987 -0.4142
10078TIP3    H251726   5.594   4.771   4.255 -0.1420 -0.4586  1.9177
10079TIP3   OH251727   6.222   1.928  13.121  0.2910  0.3549 -0.2007
10079TIP3    H151728   6.200   2.003  13.065 -2.9700 -0.0471  0.3322
10079TIP3    H251729   6.299   1.957  13.171 -1.0304  3.5422  0.2541
10080TIP3   OH251730   4.358   0.786  16.743  0.3598 -0.0924 -0.3865
10080TIP3    H151731   4.270   0.757  16.766 -0.0699  0.8937 -0.7064
10080TIP3    H251732   4.362   0.780  16.648  0.3314  0.6576 -0.4433
10081TIP3   OH251733   5.568   1.421   5.296 -0.1715  0.5611 -0.0138
10081TIP3    H151734   5.557   1.368   5.375 -0.2797  0.8929  0.1983
10081TIP3    H251735   5.496   1.395   5.239  1.0585 -1.1626 -0.8655
10082TIP3   OH251736   2.117   1.387  15.573 -0.1389  0.2857 -0.6648
10082TIP3    H151737   2.199   1.355  15.535 -0.6556  1.1421 -2.5821
10082TIP3    H251738   2.052   1.374  15.505 -1.4482  0.4169  0.5243
10083TIP3   OH251739   0.506   2.334   5.413  0.3631 -0.6891 -0.5275
10083TIP3    H151740   0.452   2.259   5.386  0.4617 -1.0435  0.2499
10083TIP3    H251741   0.502   2.334   5.509 -1.2327  1.4385 -0.4982
10084TIP3   OH251742   4.710   2.756  12.522  0.5928 -0.0308 -0.5259
10084TIP3    H151743   4.728   2.799  12.439 -2.4203 -3.3332 -3.2340
10084TIP3    H251744   4.639   2.806  12.561  1.0658  0.7422 -0.6480
10085TIP3   OH251745   1.291   3.595   1.260  0.8904 -0.4759 -0.1440
10085TIP3    H151746   1.232   3.529   1.224 -0.2134  1.1452 -1.5047
10085TIP3    H251747   1.351   3.614   1.188 -0.0823  1.3863 -0.5362
10086TIP3   OH251748   1.250   4.166   4.864 -0.1558 -0.0855  0.1380
10086TIP3    H151749   1.252   4.259   4.888 -0.0739 -0.2026  0.5925
10086TIP3    H251750   1.221   4.121   4.944 -2.8857 -0.2210 -0.8228
10087TIP3   OH251751   3.016   6.251  14.782 -0.1381  0.2547  0.5203
10087TIP3    H151752   3.101   6.209  14.769 -0.1770  0.3293 -0.0095
10087TIP3    H251753   2.992   6.283  14.695  0.1574  1.8794  1.0034
10088TIP3   OH251754   5.327   4.191   5.289  0.9242 -0.1814  0.3257
10088TIP3    H151755   5.335   4.278   5.250  2.0774 -0.6457 -0.5312
10088TIP3    H251756   5.299   4.135   5.216  1.0321 -0.6895  0.6704
10089TIP3   OH251757   5.156   0.060  14.726 -0.3209  0.0131  0.2758
10089TIP3    H151758   5.160   0.153  14.704 -1.9272 -0.2508 -1.3934
10089TIP3    H251759   5.206   0.052  14.807  1.7088  1.9674 -0.6729
10090TIP3   OH251760   2.839   6.192  12.397 -0.4347 -0.6719 -0.1738
10090TIP3    H151761   2.837   6.106  12.356 -0.8106 -0.7832  0.0673
10090TIP3    H251762   2.927   6.199  12.435 -0.7347 -1.3889  0.7025
10091TIP3   OH251763   5.947   4.582  17.144 -0.2758  0.1101 -0.3716
10091TIP3    H151764   5.892   4.508  17.118 -1.3116  1.0734 -1.0154
10091TIP3    H251765   5.885   4.654  17.159  0.5983  0.5295  1.4734
10092TIP3   OH251766   4.518   6.027  12.236 -0.8516  0.0176  0.0661
10092TIP3    H151767   4.587   5.961  12.244 -1.2988 -0.8516 -2.5240
10092TIP3    H251768   4.437   5.978  12.252 -1.0228  0.6373  1.2059
10093TIP3   OH251769   2.029   5.786   4.623  0.4340  0.1491 -0.1024
10093TIP3    H151770   2.060   5.696   4.613 -2.5767 -0.9194 -0.9861
10093TIP3    H251771   2.052   5.828   4.539 -2.0594 -1.2175 -1.5904
10094TIP3   OH251772   2.663   0.759   1.919 -0.7724 -0.3590  0.2960
10094TIP3    H151773   2.634   0.836   1.869  0.6272  0.4266  0.6671
10094TIP3    H251774   2.586   0.702   1.921 -1.8147  0.9940 -0.0474
10095TIP3   OH251775   1.284   3.437   4.532  0.1605 -0.1253  0.1937
10095TIP3    H151776   1.322   3.424   4.445  1.7825  2.0292  0.4930
10095TIP3    H251777   1.270   3.531   4.539  1.1587 -0.0822  2.6547
10096TIP3   OH251778   3.882   3.476  12.897 -0.0133  0.8920 -0.1600
10096TIP3    H151779   3.793   3.451  12.870  1.1424 -2.7562 -1.2894
10096TIP3    H251780   3.922   3.511  12.818  0.4047 -0.3995 -0.5507
10097TIP3   OH251781   4.049   6.730  14.805 -0.5241  0.3526  0.4444
10097TIP3    H151782   3.987   6.714  14.876 -1.3993  1.7045  0.0265
10097TIP3    H251783   4.012   6.803  14.757 -0.2358 -0.8713 -1.7584
10098TIP3   OH251784   4.913   2.138   1.604  0.2086 -0.0930 -0.4669
10098TIP3    H151785   4.867   2.201   1.659  0.2399 -1.5848  1.3940
10098TIP3    H251786   4.856   2.061   1.603  1.4208 -1.0313 -0.3173
10099TIP3   OH251787   4.351   3.780   1.436 -0.2206  0.0205 -0.6517
10099TIP3    H151788   4.259   3.760   1.455 -0.0803 -1.3411 -1.3250
10099TIP3    H251789   4.395   3.774   1.521 -0.9102  1.8542 -0.1014
10100TIP3   OH251790   5.637   5.043  16.113 -0.0348  0.0195 -0.0587
10100TIP3    H151791   5.548   5.067  16.085  0.1648  0.0828 -0.6658
10100TIP3    H251792   5.633   5.043  16.208 -0.6637  0.1199 -0.0777
10101TIP3   OH251793   6.206   5.667  16.316  0.1291 -0.0587  0.0542
10101TIP3    H151794   6.139   5.612  16.274 -0.7501  0.2808  0.9686
10101TIP3    H251795   6.163   5.701  16.395  0.9751  1.1644  0.0198
10102TIP3   OH251796   5.322   3.802   2.018 -0.4795  0.2508  0.0446
10102TIP3    H151797   5.400   3.820   2.070 -0.8092  0.4862  0.4594
10102TIP3    H251798   5.249   3.816   2.078 -0.7908 -2.9507  0.5916
10103TIP3   OH251799   2.636   5.059  13.238 -0.4867  0.1445 -0.1315
10103TIP3    H151800   2.656   5.151  13.256 -0.3937  0.3110 -1.0342
10103TIP3    H251801   2.545   5.060  13.208  0.4564  0.4220 -3.3147
10104TIP3   OH251802   0.648   6.807   3.823 -0.4199 -0.5201 -0.5415
10104TIP3    H151803   0.565   6.799   3.870  0.6085  0.1313  1.5121
10104TIP3    H251804   0.683   6.718   3.821 -0.8760 -0.6964 -0.8842
10105TIP3   OH251805   0.512   2.195  16.310  0.3885 -0.4188 -0.2680
10105TIP3    H151806   0.581   2.261  16.319  0.0243 -0.1315  0.6158
10105TIP3    H251807   0.497   2.189  16.216  0.6678  0.5205 -0.3900
10106TIP3   OH251808   0.201   2.206   5.503 -0.2137 -0.2008 -0.2663
10106TIP3    H151809   0.236   2.127   5.546  0.0784  0.5620  0.9523
10106TIP3    H251810   0.181   2.178   5.414 -1.0268 -1.9084  0.4194
10107TIP3   OH251811   6.329   5.742  12.409  0.0449 -0.3760  0.0092
10107TIP3    H151812   6.353   5.738  12.317  1.3110  0.0396  0.3037
10107TIP3    H251813   6.285   5.659  12.426  0.9652 -1.0228 -0.6523
10108TIP3   OH251814   2.899   1.609   3.541 -0.0893  0.8090  0.3259
10108TIP3    H151815   2.952   1.599   3.461 -1.2942 -1.8954 -0.2707
10108TIP3    H251816   2.960   1.641   3.607  1.0165  2.8580 -1.5501
10109TIP3   OH251817   6.705   5.314  14.570 -0.1089  0.7557 -0.1803
10109TIP3    H151818   6.775   5.257  14.539 -0.9475 -0.0937 -0.5621
10109TIP3    H251819   6.750   5.391  14.604  1.0396 -0.0656  0.2102
10110TIP3   OH251820   3.149   1.327  16.571 -0.6556 -0.7213 -0.3764
10110TIP3    H151821   3.130   1.361  16.484  1.8966 -0.9050 -1.1035
10110TIP3    H251822   3.208   1.253  16.556 -0.4730 -1.0124  1.4814
10111TIP3   OH251823   5.797   3.071   5.857  0.2542 -0.2708  0.0333
10111TIP3    H151824   5.742   3.148   5.853  0.2868 -0.2735 -0.6678
10111TIP3    H251825   5.826   3.057   5.766  2.3825  0.4411  0.5375
10112TIP3   OH251826   2.586   1.322   0.142 -0.9500 -0.4457  0.4509
10112TIP3    H151827   2.635   1.240   0.141 -0.6958 -0.2934  0.1335
10112TIP3    H251828   2.561   1.335   0.050  1.5603  1.3337 -0.0928
10113TIP3   OH251829   0.637   1.539  16.027  0.1992  0.0581  0.1355
10113TIP3    H151830   0.723   1.498  16.034  0.6850  0.8636 -0.8414
10113TIP3    H251831   0.655   1.628  15.998 -0.9955 -0.0121 -0.9291
10114TIP3   OH251832   1.364   4.696   2.705  0.8819  0.1663  0.4769
10114TIP3    H151833   1.269   4.690   2.706  0.8466  0.6312  0.5272
10114TIP3    H251834   1.384   4.749   2.628  1.1823 -1.0478 -0.3043
10115TIP3   OH251835   4.695   2.308   3.608  0.4393  0.0633 -0.4280
10115TIP3    H151836   4.665   2.217   3.608  1.8544 -0.4437  0.0247
10115TIP3    H251837   4.665   2.343   3.692  1.8108 -0.7108  0.4254
10116TIP3   OH251838   2.240   3.383   1.754 -0.0452  0.3963  0.4709
10116TIP3    H151839   2.281   3.463   1.720  0.6212  0.8302  2.2135
10116TIP3    H251840   2.172   3.415   1.814 -1.0944 -0.3561 -0.2781
10117TIP3   OH251841   3.767   6.223  16.806 -0.3970  0.1423 -0.0783
10117TIP3    H151842   3.856   6.221  16.840 -0.9927  0.1803  1.5666
10117TIP3    H251843   3.711   6.228  16.884 -1.8046  1.2229 -1.0948
10118TIP3   OH251844   1.497   3.997  10.760 -0.0795 -0.1300  0.8078
10118TIP3    H151845   1.406   3.983  10.787  0.9092 -1.1073  4.1411
10118TIP3    H251846   1.513   4.090  10.778  0.5038 -0.7161  3.9520
10119TIP3   OH251847   3.500   4.744  11.418  0.0126  0.2433  0.5005
10119TIP3    H151848   3.585   4.786  11.407  0.4966 -0.2961  1.9126
10119TIP3    H251849   3.520   4.650  11.419 -0.6744  0.0882  0.3636
10120TIP3   OH251850   1.641   2.645  16.635  0.1565  0.2192  0.0413
10120TIP3    H151851   1.608   2.735  16.626 -1.2432 -0.2603  0.1327
10120TIP3    H251852   1.630   2.625  16.728  0.5884 -0.0120  0.0458
10121TIP3   OH251853   3.411   2.397   3.068  0.2042 -0.0275  0.2641
10121TIP3    H151854   3.400   2.348   2.987 -1.3997 -1.9967  1.5830
10121TIP3    H251855   3.337   2.458   3.070  0.1753 -0.0638  0.3051
10122TIP3   OH251856   2.282   3.265  11.294 -0.6531 -0.2585  1.1538
10122TIP3    H151857   2.270   3.290  11.385  0.2824 -1.9110  1.7786
10122TIP3    H251858   2.356   3.317  11.264  0.3419 -1.1515  1.9832
10123TIP3   OH251859   1.193   6.550   4.984  0.5462 -0.3378 -0.0969
10123TIP3    H151860   1.218   6.587   4.899  1.5251  0.2688  0.4408
10123TIP3    H251861   1.241   6.602   5.048 -1.6450  0.4782  0.9841
10124TIP3   OH251862   4.517   6.007  14.945  0.2482  0.2988 -0.2032
10124TIP3    H151863   4.565   5.934  14.906  0.8331 -0.0701  1.1711
10124TIP3    H251864   4.438   5.967  14.983  0.4220  0.4216  0.2913
10125TIP3   OH251865   1.350   6.431  17.004  0.3294 -0.5372 -0.3419
10125TIP3    H151866   1.381   6.521  17.010 -4.4772  1.3719  1.6383
10125TIP3    H251867   1.334   6.404  17.094 -0.3965 -2.5111 -0.9830
10126TIP3   OH251868   0.086   5.570  11.933 -0.0334  0.2263 -0.9261
10126TIP3    H151869   0.154   5.516  11.892  0.4798 -0.7390  1.1022
10126TIP3    H251870   0.053   5.517  12.005  0.4929  2.5728  1.2068
10127TIP3   OH251871   6.022   3.106  12.288 -0.0798  0.9699  0.4218
10127TIP3    H151872   5.985   3.096  12.200  1.2405 -0.8874  0.0070
10127TIP3    H251873   6.042   3.199  12.295 -2.2229  1.5455 -0.3583
10128TIP3   OH251874   2.790   5.575   1.936 -0.0633  0.4115  0.1319
10128TIP3    H151875   2.752   5.503   1.885  0.3187  0.6238 -0.4549
10128TIP3    H251876   2.884   5.564   1.928  0.0723 -0.7261  2.4427
10129TIP3   OH251877   2.114   1.493   2.406  0.3641 -0.1193  0.1806
10129TIP3    H151878   2.178   1.452   2.348  1.3734  2.0142 -0.3084
10129TIP3    H251879   2.057   1.544   2.347 -0.6776 -0.5479  0.7793
10130TIP3   OH251880   6.068   4.677   6.080 -0.3149  0.6791 -0.2070
10130TIP3    H151881   6.019   4.754   6.107 -0.6940 -0.2921  2.0559
10130TIP3    H251882   6.158   4.694   6.108 -0.5339  0.0338  0.9215
10131TIP3   OH251883   2.141   6.798   5.976 -0.2024  0.7868  0.7197
10131TIP3    H151884   2.053   6.772   5.949  0.5119 -2.7757  1.3151
10131TIP3    H251885   2.147   6.772   6.068  1.2723  1.6475  0.9121
10132TIP3   OH251886   0.277   0.522   5.093 -0.9114 -0.0377 -0.6627
10132TIP3    H151887   0.240   0.506   5.006 -0.0396  3.2189 -1.7509
10132TIP3    H251888   0.372   0.517   5.079 -0.7462 -1.8084  0.7011
10133TIP3   OH251889   4.162   2.453   6.022 -0.3250  0.1622  0.0868
10133TIP3    H151890   4.154   2.458   6.118  1.4799 -1.1274  0.3519
10133TIP3    H251891   4.084   2.404   5.994 -0.6197  0.1152  0.9570
10134TIP3   OH251892   2.631   5.209   4.404 -0.3849 -0.1178  1.1345
10134TIP3    H151893   2.635   5.143   4.473  1.1997 -1.1378  0.1279
10134TIP3    H251894   2.571   5.172   4.339 -0.4423 -0.0041  1.1226
10135TIP3   OH251895   0.869   3.499   5.681 -0.3001  0.7635  0.2442
10135TIP3    H151896   0.775   3.484   5.688 -0.6312  2.1738 -0.7496
10135TIP3    H251897   0.899   3.509   5.771 -0.9181 -0.6007  0.6259
10136TIP3   OH251898   6.514   3.898   6.529  0.3312 -0.0075 -0.2364
10136TIP3    H151899   6.516   3.880   6.623 -0.4864  1.3610  0.0675
10136TIP3    H251900   6.591   3.952   6.514 -1.3670  2.7917  0.3763
10137TIP3   OH251901   3.372   2.709  16.412 -0.5763 -0.2283 -0.1930
10137TIP3    H151902   3.378   2.624  16.369 -1.0783  0.0094 -0.7497
10137TIP3    H251903   3.279   2.728  16.416 -0.5044  0.0117  0.5089
10138TIP3   OH251904   4.796   5.016   5.188  0.7289  0.1859 -0.4290
10138TIP3    H151905   4.884   5.052   5.196  2.4302 -3.4878 -0.7746
10138TIP3    H251906   4.773   4.987   5.276  0.4164 -0.0584 -0.5862
10139TIP3   OH251907   6.202   5.516  13.692  0.1163 -0.4433  0.6015
10139TIP3    H151908   6.237   5.498  13.604 -1.8859  1.6090 -0.7130
10139TIP3    H251909   6.140   5.445  13.708 -2.2132  0.9842 -1.3231
10140TIP3   OH251910   0.029   5.205  14.934  0.8623  0.1323  0.0695
10140TIP3    H151911   0.087   5.143  14.978  2.1341  2.0026  1.1401
10140TIP3    H251912   0.086   5.254  14.875 -0.0999  0.3599 -0.7019
10141TIP3   OH251913   0.966   3.110   1.391 -0.5271 -0.4798  0.4194
10141TIP3    H151914   0.930   3.146   1.472 -1.4358 -0.4430  0.0057
10141TIP3    H251915   1.055   3.084   1.414 -0.8113 -0.5674  1.4622
10142TIP3   OH251916   5.302   3.815  14.606 -0.1157  0.2108  0.8819
10142TIP3    H151917   5.344   3.899  14.619 -0.0079  0.0241  1.7931
10142TIP3    H251918   5.293   3.778  14.694 -2.1569  0.2240  0.7286
10143TIP3   OH251919   5.813   3.976   2.016 -0.5652  0.1787  0.4560
10143TIP3    H151920   5.828   4.069   1.999 -1.8197  0.1232 -1.1629
10143TIP3    H251921   5.719   3.964   2.004 -0.2646 -1.4994 -0.4839
10144TIP3   OH251922   6.427   3.972  14.383  0.3806 -0.1600 -0.3283
10144TIP3    H151923   6.348   4.017  14.355  0.2381  0.3489  0.8329
10144TIP3    H251924   6.430   3.986  14.477  1.5923 -0.5914 -0.2877
10145TIP3   OH251925   5.923   4.667   1.697 -0.0174 -0.5098  0.0510
10145TIP3    H151926   5.857   4.624   1.643 -1.0238  0.5490  0.3905
10145TIP3    H251927   5.873   4.715   1.762  1.1128  0.0860  0.5123
10146TIP3   OH251928   3.569   3.539  13.767  0.0616 -0.5325  0.0946
10146TIP3    H151929   3.605   3.596  13.835  1.6010 -1.5697  0.1938
10146TIP3    H251930   3.633   3.544  13.695  1.0240 -3.1808  0.6560
10147TIP3   OH251931   1.172   3.890  12.212  0.4475  0.4618 -0.2391
10147TIP3    H151932   1.224   3.970  12.213  0.3902  0.4984  0.0373
10147TIP3    H251933   1.127   3.892  12.128  0.6774  0.5699 -0.3596
10148TIP3   OH251934   0.228   5.876   1.359 -0.0024 -1.0452  0.4896
10148TIP3    H151935   0.156   5.904   1.415 -0.3768 -0.5930 -0.2002
10148TIP3    H251936   0.274   5.957   1.337  1.0320 -1.3775  1.3272
10149TIP3   OH251937   2.969   0.201   4.185  0.8921 -0.0566  0.2821
10149TIP3    H151938   2.930   0.229   4.268  3.0516  2.7891  0.5203
10149TIP3    H251939   3.037   0.138   4.210  2.4146  1.7455  0.9423
10150TIP3   OH251940   4.741   0.822  14.291 -0.6166  0.0963 -0.3288
10150TIP3    H151941   4.760   0.811  14.198  0.3699 -2.5956  0.1151
10150TIP3    H251942   4.776   0.908  14.312  1.4624 -0.2683 -1.9210
10151TIP3   OH251943   3.682   0.660   1.576  0.2055 -0.7962  0.4177
10151TIP3    H151944   3.775   0.659   1.555  0.0720 -1.8925 -0.2450
10151TIP3    H251945   3.660   0.752   1.586  1.2882 -0.5061  0.2492
10152TIP3   OH251946   5.727   2.960  16.352  0.1109  0.2033  0.1572
10152TIP3    H151947   5.765   2.904  16.284 -0.2653  0.6770 -0.4633
10152TIP3    H251948   5.762   3.048  16.332 -0.6170  0.4856  0.1023
10153TIP3   OH251949   1.067   4.384   0.062 -0.0970  0.1161  0.3448
10153TIP3    H151950   1.040   4.393  -0.029  2.2489  0.8137 -0.3451
10153TIP3    H251951   1.108   4.298   0.066 -0.8489 -0.2263  0.9514
10154TIP3   OH251952   2.811   5.881   1.067 -0.8329  0.0481  0.6679
10154TIP3    H151953   2.747   5.862   1.135  0.3627 -1.4547  1.4239
10154TIP3    H251954   2.895   5.856   1.105  0.0158  0.3739 -0.9056
10155TIP3   OH251955   3.385   4.545  10.955 -0.1058 -0.4197 -0.7494
10155TIP3    H151956   3.452   4.614  10.957  0.2306 -0.6638  2.9864
10155TIP3    H251957   3.434   4.464  10.941  0.2062 -0.4161  0.2500
10156TIP3   OH251958   3.974   5.279  15.700  0.3438  0.1763  0.0998
10156TIP3    H151959   4.068   5.297  15.701  0.5024 -0.6396  0.1294
10156TIP3    H251960   3.965   5.196  15.655 -0.4703  0.7654 -0.8746
10157TIP3   OH251961   4.104   0.731  10.913 -0.3802  0.1963 -0.2153
10157TIP3    H151962   4.182   0.785  10.908  0.3473 -0.5994  1.6273
10157TIP3    H251963   4.037   0.780  10.866  1.0499  1.1939 -1.2732
10158TIP3   OH251964   0.168   1.858   2.500  0.5084 -0.0744 -0.5851
10158TIP3    H151965   0.160   1.952   2.486  0.5507 -0.0240 -0.2804
10158TIP3    H251966   0.128   1.818   2.423  1.7254  0.1977 -1.3883
10159TIP3   OH251967   2.277   4.363  17.196  0.0766  0.1211 -0.0818
10159TIP3    H151968   2.193   4.366  17.150  0.9152  1.2902 -1.6010
10159TIP3    H251969   2.296   4.269  17.203 -1.7725 -0.2309  1.1833
10160TIP3   OH251970   4.771   2.042  12.508 -0.1167 -0.2453  0.5124
10160TIP3    H151971   4.815   2.127  12.502  1.6839 -1.0454  1.6557
10160TIP3    H251972   4.680   2.061  12.488  0.3767  1.8293  0.0147
10161TIP3   OH251973   1.326   1.871  13.945  0.6054 -0.0206  0.3902
10161TIP3    H151974   1.296   1.783  13.923  0.1133  0.2823 -0.1935
10161TIP3    H251975   1.344   1.869  14.038 -3.7503  0.4523  1.4672
10162TIP3   OH251976   6.796   0.697   4.001  0.4188 -0.1718 -0.4098
10162TIP3    H151977   6.891   0.709   4.010  0.6219 -1.4392 -0.6726
10162TIP3    H251978   6.772   0.645   4.078  0.2054 -1.1514 -1.1227
10163TIP3   OH251979   2.038   0.082  12.500  0.1047 -0.4476  0.5589
10163TIP3    H151980   2.131   0.094  12.481 -0.3286  2.2232 -0.2192
10163TIP3    H251981   2.025   0.125  12.585 -0.4872 -0.5603  0.5262
10164TIP3   OH251982   4.526   3.557  14.660 -0.3981 -0.7054  0.1147
10164TIP3    H151983   4.571   3.628  14.614  0.2524 -0.0046  1.7548
10164TIP3    H251984   4.541   3.575  14.753 -1.3631 -2.2587  0.6136
10165TIP3   OH251985   0.982   5.649   6.373  0.5075 -0.0748  0.1642
10165TIP3    H151986   0.910   5.681   6.428  1.0290  0.6150  0.4594
10165TIP3    H251987   1.046   5.614   6.435  0.5316 -0.4674 -0.0832
10166TIP3   OH251988   1.149   1.883   5.766 -0.3330 -0.3277 -0.8298
10166TIP3    H151989   1.139   1.851   5.855 -3.9368 -0.5453 -1.1400
10166TIP3    H251990   1.195   1.813   5.720  0.9979 -0.4839  0.6659
10167TIP3   OH251991   5.791   3.621  14.977 -0.1358 -0.0797  0.8243
10167TIP3    H151992   5.745   3.557  15.032 -0.4255  0.0940  0.7847
10167TIP3    H251993   5.727   3.648  14.912 -0.2092  0.6918  1.1953
10168TIP3   OH251994   0.729   5.410   5.805  0.5165  0.3816  0.4248
10168TIP3    H151995   0.789   5.377   5.738  0.5293 -0.9128  1.0606
10168TIP3    H251996   0.643   5.408   5.762  0.1980 -2.3544  1.0217
10169TIP3   OH251997   1.161   2.863   1.175 -0.5958 -0.3475 -0.1580
10169TIP3    H151998   1.158   2.842   1.269 -1.4335 -1.3029 -0.3772
10169TIP3    H251999   1.107   2.796   1.134 -0.0744 -0.0628 -1.3598
10170TIP3   OH252000   0.791   4.092  14.863  0.5871  0.4058  0.2319
10170TIP3    H152001   0.760   4.077  14.952  0.8471 -1.2786  0.0664
10170TIP3    H252002   0.738   4.034  14.808  0.9997  0.7964 -0.6041
10171TIP3   OH252003   3.785   2.128  14.114 -0.0735 -0.1465  0.6232
10171TIP3    H152004   3.763   2.110  14.206  1.3027  0.4977  1.1008
10171TIP3    H252005   3.873   2.166  14.117 -0.3016  0.5728 -0.9087
10172TIP3   OH252006   0.559   3.367  13.970 -0.3802 -0.7940  0.1207
10172TIP3    H152007   0.636   3.371  13.913  0.3274  1.9794  1.1313
10172TIP3    H252008   0.486   3.352  13.909  0.5018  0.7292 -1.4070
10173TIP3   OH252009   6.511   5.367  14.342  0.0478 -0.1061  0.1525
10173TIP3    H152010   6.567   5.299  14.379 -1.3287 -0.5432  1.5425
10173TIP3    H252011   6.424   5.348  14.376 -0.2530  2.9339  1.4900
10174TIP3   OH252012   1.996   5.441   0.781  0.2389 -0.0148 -0.2062
10174TIP3    H152013   1.969   5.364   0.731  1.0804 -1.3166  1.2759
10174TIP3    H252014   1.916   5.471   0.824  0.1427 -0.7625  0.1333
10175TIP3   OH252015   2.097   1.264   4.838  0.2090  0.0056  0.2609
10175TIP3    H152016   2.124   1.289   4.926 -0.3436 -0.2450  0.5089
10175TIP3    H252017   2.174   1.279   4.783  0.4328  0.5368  0.7169
10176TIP3   OH252018   4.737   2.354   5.603  0.3094  0.3928  0.4209
10176TIP3    H152019   4.750   2.290   5.672 -0.3784 -2.2225 -1.7173
10176TIP3    H252020   4.777   2.434   5.637  1.0005 -1.0501  3.3240
10177TIP3   OH252021   4.153   1.981  13.869 -0.8677  0.1703 -0.5132
10177TIP3    H152022   4.237   1.954  13.832 -1.2023  0.2840 -1.3633
10177TIP3    H252023   4.161   1.961  13.962 -0.3013 -0.8378 -0.7657
10178TIP3   OH252024   4.211   0.138   0.936  0.2448  0.2799 -0.4688
10178TIP3    H152025   4.220   0.051   0.975  0.9944  0.4503 -0.2296
10178TIP3    H252026   4.144   0.128   0.870 -0.8352 -0.0992  0.6407
10179TIP3   OH252027   5.700   0.428  13.593  0.1198 -0.5340 -0.2955
10179TIP3    H152028   5.653   0.464  13.518 -1.5465 -1.4497  0.2612
10179TIP3    H252029   5.792   0.430  13.566 -0.3379  0.0685 -1.9694
10180TIP3   OH252030   3.457   4.010   1.822  0.7605 -0.7143  0.0715
10180TIP3    H152031   3.429   3.941   1.762 -2.9891  0.6811 -0.0044
10180TIP3    H252032   3.472   4.086   1.765 -1.3515  0.2019  0.6608
10181TIP3   OH252033   0.533   5.253  13.470  0.1565 -1.0823  0.0845
10181TIP3    H152034   0.533   5.266  13.565  0.1288  1.2009 -0.1951
10181TIP3    H252035   0.623   5.230  13.449  0.5912  0.1953  0.4666
10182TIP3   OH252036   6.515   1.255  13.424  0.5334 -0.3150  0.5725
10182TIP3    H152037   6.478   1.266  13.511  3.6333  1.5818  1.7970
10182TIP3    H252038   6.589   1.195  13.437  0.8419 -0.2747 -0.8450
10183TIP3   OH252039   6.167   6.688  15.511  0.0288  0.0010  0.4232
10183TIP3    H152040   6.251   6.722  15.478  0.8636 -0.7026  1.7337
10183TIP3    H252041   6.184   6.595  15.526 -1.0901 -0.2058  0.4307
10184TIP3   OH252042   4.430   5.636  11.647  0.2363 -0.3390 -0.9212
10184TIP3    H152043   4.370   5.632  11.722 -1.8346 -0.0789 -2.4901
10184TIP3    H252044   4.488   5.709  11.667 -0.5883  0.0383  0.1915
10185TIP3   OH252045   6.476   0.995   6.417  0.3766 -0.3871  0.1502
10185TIP3    H152046   6.516   0.908   6.428 -1.2841 -1.0564  1.2848
10185TIP3    H252047   6.518   1.049   6.484  2.4141  0.1237 -1.4390
10186TIP3   OH252048   1.424   4.132  16.243  0.3482  0.4703 -0.0618
10186TIP3    H152049   1.452   4.196  16.177  1.3631  0.1453  0.0464
10186TIP3    H252050   1.488   4.141  16.314  0.5010 -0.6662 -0.0445
10187TIP3   OH252051   2.310   3.970  11.477 -0.5002 -0.2988  0.0149
10187TIP3    H152052   2.304   4.048  11.533 -0.0967  0.2569 -0.6978
10187TIP3    H252053   2.219   3.951  11.454 -0.6661 -0.4929  0.7853
10188TIP3   OH252054   1.657   4.378  11.572  0.1599 -0.5569  0.3681
10188TIP3    H152055   1.656   4.373  11.477  1.7477 -2.3444  0.3727
10188TIP3    H252056   1.619   4.295  11.600 -1.0322  0.2851  1.3264
10189TIP3   OH252057   2.584   4.341  12.495  0.3497 -0.0951 -0.3347
10189TIP3    H152058   2.620   4.416  12.449 -0.8885  1.1394  0.6417
10189TIP3    H252059   2.490   4.360  12.504 -0.3835 -2.5715 -1.6318
10190TIP3   OH252060   5.857   3.796  15.698 -0.2024 -0.3540  0.0757
10190TIP3    H152061   5.847   3.880  15.651 -3.6862 -0.6717 -0.0232
10190TIP3    H252062   5.851   3.820  15.791 -0.5223 -0.4105  0.0711
10191TIP3   OH252063   1.693   4.984   1.397 -0.0955  0.5554 -0.5044
10191TIP3    H152064   1.776   5.029   1.412  0.9823 -1.4459 -0.1477
10191TIP3    H252065   1.663   5.017   1.312  2.2135 -0.2909 -1.7480
10192TIP3   OH252066   6.638   2.051  15.677  0.0005  0.4050 -0.7469
10192TIP3    H152067   6.621   1.991  15.604 -0.4137 -0.2287 -0.1379
10192TIP3    H252068   6.554   2.060  15.721  0.2696  0.6995 -0.2850
10193TIP3   OH252069   6.779   4.772   3.071 -0.1873  0.3710  0.1263
10193TIP3    H152070   6.815   4.822   3.145 -0.0738 -3.0020  2.5763
10193TIP3    H252071   6.705   4.725   3.109  0.1744 -1.8782 -1.7955
10194TIP3   OH252072   2.441   4.117   5.673  0.2060  0.2087  0.0361
10194TIP3    H152073   2.392   4.061   5.613 -0.6434 -0.6929  1.5125
10194TIP3    H252074   2.469   4.059   5.743  0.4206  1.3880  0.9635
10195TIP3   OH252075   0.585   5.042  16.383  0.2983 -0.3045  0.1278
10195TIP3    H152076   0.572   4.990  16.304 -0.4982 -0.5727  0.4211
10195TIP3    H252077   0.637   4.985  16.440 -0.6535 -0.8365  0.4852
10196TIP3   OH252078   3.117   5.406   0.383  0.1069  0.6086  0.1115
10196TIP3    H152079   3.183   5.410   0.314  1.6707  0.3443  1.5417
10196TIP3    H252080   3.163   5.372   0.459 -1.4455  1.3470  1.4434
10197TIP3   OH252081   5.158   4.636  14.975 -0.3815 -0.1940 -0.3642
10197TIP3    H152082   5.199   4.569  14.920  0.0472 -1.3180  1.2591
10197TIP3    H252083   5.130   4.590  15.054  0.8786  1.6655  1.2986
10198TIP3   OH252084   3.813   0.186  16.159 -0.0755 -0.1968 -0.1261
10198TIP3    H152085   3.863   0.164  16.080  1.1862  0.5664  0.4238
10198TIP3    H252086   3.844   0.125  16.225 -0.6712 -0.4221 -0.0504
10199TIP3   OH252087   4.707   5.776  12.259  0.3461  0.5272 -0.3785
10199TIP3    H152088   4.709   5.743  12.349  1.1320  2.5507  0.4030
10199TIP3    H252089   4.794   5.757  12.225 -0.5594 -2.1040 -1.5221
10200TIP3   OH252090   1.857   1.440  15.775  0.4636  0.1735 -0.0339
10200TIP3    H152091   1.869   1.534  15.782  2.5883 -0.0299 -0.3470
10200TIP3    H252092   1.898   1.417  15.691  0.3475 -1.0797  0.2347
10201TIP3   OH252093   2.634   0.912  11.902  0.0952 -0.0488 -0.0861
10201TIP3    H152094   2.607   0.834  11.951 -0.0299  0.3938  0.5615
10201TIP3    H252095   2.726   0.894  11.879 -0.3318 -0.9915 -1.1775
10202TIP3   OH252096   4.992   4.004   5.302  0.0232 -0.5340 -0.7106
10202TIP3    H152097   5.020   3.985   5.392  0.2845  1.2233 -0.3706
10202TIP3    H252098   4.897   3.994   5.304  0.1142 -1.4341 -0.4954
10203TIP3   OH252099   4.803   4.406  11.705 -0.3187 -0.0986 -0.4840
10203TIP3    H152100   4.890   4.444  11.716 -0.2020  0.1274 -1.9551
10203TIP3    H252101   4.809   4.320  11.747  1.2208 -0.8738 -2.1467
10204TIP3   OH252102   6.664   5.290  16.630 -0.3671 -0.0818 -0.1711
10204TIP3    H152103   6.707   5.298  16.715  0.3511 -2.7218 -0.1963
10204TIP3    H252104   6.733   5.303  16.566 -0.8837  1.7815 -0.4066
10205TIP3   OH252105   0.773   0.439  12.948 -0.6278 -0.0572  0.0854
10205TIP3    H152106   0.703   0.374  12.955 -0.3342 -0.6696 -1.9653
10205TIP3    H252107   0.732   0.521  12.974 -1.5791 -0.7067  0.7128
10206TIP3   OH252108   1.105   4.363  13.298  0.2958 -0.6757 -0.6228
10206TIP3    H152109   1.115   4.458  13.310 -3.1477 -0.1841 -0.7781
10206TIP3    H252110   1.123   4.326  13.384 -0.8800  0.4348  0.1429
10207TIP3   OH252111   2.961   1.094  17.111  1.4694 -0.3439  0.4042
10207TIP3    H152112   3.010   1.018  17.143  2.4996 -0.0427 -0.4150
10207TIP3    H252113   2.988   1.166  17.169 -0.1699 -0.7385  1.7470
10208TIP3   OH252114   2.069   1.429   5.679  0.4077 -0.2319 -0.0691
10208TIP3    H152115   2.126   1.352   5.679 -0.9665 -1.3099  1.4900
10208TIP3    H252116   2.117   1.493   5.732 -0.1946 -1.5063  2.1551
10209TIP3   OH252117   1.133   4.472   1.255  0.6069 -0.1589  0.2346
10209TIP3    H152118   1.194   4.407   1.291  0.7242 -0.1573  0.0386
10209TIP3    H252119   1.180   4.555   1.260  0.7942 -0.2285 -0.3366
10210TIP3   OH252120   1.782   4.479   1.900  0.7199  0.5307  0.4582
10210TIP3    H152121   1.741   4.393   1.891 -0.3987  1.0468  0.4810
10210TIP3    H252122   1.770   4.521   1.814  1.4222  0.6003  0.3869
10211TIP3   OH252123   2.701   4.668   3.016  0.4415 -0.7310  0.0948
10211TIP3    H152124   2.661   4.667   2.929  1.5134  1.0333 -0.4743
10211TIP3    H252125   2.628   4.677   3.076 -0.3117 -1.9156 -0.6133
10212TIP3   OH252126   0.025   5.304  16.457  0.0909  0.0128 -0.7313
10212TIP3    H152127   0.016   5.393  16.423  1.0474  1.1087  1.6708
10212TIP3    H252128   0.097   5.266  16.406  0.0729  0.8120 -1.3726
10213TIP3   OH252129   0.256   1.745   0.532 -0.3001  0.1799 -0.1503
10213TIP3    H152130   0.182   1.749   0.471 -0.4433 -0.4073 -0.0239
10213TIP3    H252131   0.333   1.737   0.476 -0.2663  1.3423 -0.3050
10214TIP3   OH252132   5.675   1.943   3.194  0.7596  0.5574 -0.4528
10214TIP3    H152133   5.714   1.857   3.211 -0.0044  0.6687  2.2656
10214TIP3    H252134   5.701   1.997   3.268  0.4436  2.4482 -1.6346
10215TIP3   OH252135   3.836   4.053  16.330 -0.4488 -0.8548 -0.0951
10215TIP3    H152136   3.888   4.014  16.261  1.7734 -2.3277  2.2227
10215TIP3    H252137   3.805   3.978  16.381 -1.8909  0.1799  0.6230
10216TIP3   OH252138   1.789   0.789  16.257  0.4452  0.4045  0.1429
10216TIP3    H152139   1.745   0.800  16.173  0.6252  0.2896  0.0313
10216TIP3    H252140   1.856   0.858  16.258  1.2537 -0.3545 -0.3426
10217TIP3   OH252141   6.405   5.054  10.308  0.0482 -0.0635 -0.7828
10217TIP3    H152142   6.344   4.982  10.318 -0.9406  0.9565  1.1440
10217TIP3    H252143   6.466   5.045  10.381  1.6783 -0.5193 -2.1394
10218TIP3   OH252144   5.788   2.764   0.248 -0.4995  0.6375 -0.1198
10218TIP3    H152145   5.858   2.815   0.207 -0.0545 -0.3840 -0.6476
10218TIP3    H252146   5.833   2.701   0.303 -1.0049 -0.0229 -0.4546
10219TIP3   OH252147   6.581   3.364   5.284 -0.2300  0.2547 -0.4155
10219TIP3    H152148   6.619   3.426   5.221 -1.9732  0.5844 -1.1880
10219TIP3    H252149   6.491   3.353   5.255  0.3187 -3.7471 -1.1343
10220TIP3   OH252150   4.273   6.024  14.742  0.5248  0.6161  0.1900
10220TIP3    H152151   4.244   5.946  14.790 -0.2928 -0.0268 -1.2831
10220TIP3    H252152   4.220   6.095  14.777 -2.7297 -0.4446 -2.0789
10221TIP3   OH252153   1.638   2.185  16.596 -0.8442  0.7951  0.1972
10221TIP3    H152154   1.710   2.240  16.626  0.3038  1.1296 -2.7859
10221TIP3    H252155   1.678   2.101  16.575 -1.8396  0.1236  0.8792
10222TIP3   OH252156   2.006   1.691  15.133  0.3509  0.0098  0.1365
10222TIP3    H152157   1.943   1.625  15.162  0.1856 -0.0997 -0.4661
10222TIP3    H252158   2.088   1.667  15.176  1.5138 -3.2111 -3.3083
10223TIP3   OH252159   5.736   0.828  11.149  1.0390  0.3612  0.1062
10223TIP3    H152160   5.659   0.830  11.093 -0.9800  1.2453  2.6948
10223TIP3    H252161   5.770   0.918  11.146  1.7284  0.0886 -0.6603
10224TIP3   OH252162   3.261   5.847  15.674 -0.1347 -0.6148  0.0880
10224TIP3    H152163   3.277   5.796  15.595  1.5460 -0.3355  0.2106
10224TIP3    H252164   3.240   5.781  15.741 -1.1037 -0.8849 -0.4758
10225TIP3   OH252165   4.463   3.994  16.730 -0.4900 -0.8036  0.2189
10225TIP3    H152166   4.553   3.989  16.698 -0.6027 -1.0004 -0.0687
10225TIP3    H252167   4.470   4.041  16.813 -0.1633 -0.5286  0.0386
10226TIP3   OH252168   0.217   2.290  13.052 -0.0212 -0.5957 -0.7683
10226TIP3    H152169   0.185   2.261  12.966  0.0184 -2.2996 -0.2417
10226TIP3    H252170   0.233   2.209  13.100 -0.6778  0.3313  1.1045
10227TIP3   OH252171   1.688   3.440   3.532  0.1291 -0.0576 -0.1360
10227TIP3    H152172   1.613   3.498   3.547 -1.0148 -0.9144 -2.1680
10227TIP3    H252173   1.668   3.361   3.583 -0.2773 -0.2124 -0.5302
10228TIP3   OH252174   6.567   4.770   1.552  0.6556 -0.0196 -0.1023
10228TIP3    H152175   6.566   4.692   1.608 -1.1625 -0.4693 -0.6859
10228TIP3    H252176   6.654   4.807   1.563  1.8253 -2.5134 -0.3239
10229TIP3   OH252177   5.690   4.239   5.632  0.2614 -0.4108  1.2124
10229TIP3    H152178   5.698   4.155   5.677 -0.1578 -0.0260  2.0198
10229TIP3    H252179   5.614   4.228   5.574  2.0716 -1.6400 -1.1023
10230TIP3   OH252180   6.671   6.486  14.247  0.1758  0.2041  0.2113
10230TIP3    H152181   6.673   6.517  14.156 -1.0916  1.1054  0.4501
10230TIP3    H252182   6.711   6.557  14.297 -1.6175  0.9737  0.6293
10231TIP3   OH252183   1.693   3.675  12.708 -0.6756  0.0666 -0.1525
10231TIP3    H152184   1.690   3.610  12.638  0.7594 -0.3659  0.1553
10231TIP3    H252185   1.783   3.672  12.740 -1.1263  0.7120  1.2848
10232TIP3   OH252186   5.129   5.302  11.418 -0.1560  0.4531  0.5516
10232TIP3    H152187   5.159   5.267  11.334 -0.6845 -0.2642  0.6516
10232TIP3    H252188   5.206   5.345  11.454  0.2279  0.2977 -0.0575
10233TIP3   OH252189   1.717   2.320   1.975 -0.3071 -0.0905  0.5292
10233TIP3    H152190   1.624   2.312   1.953 -0.6743  2.1411  1.0215
10233TIP3    H252191   1.719   2.377   2.051  1.4288 -1.1282  1.3178
10234TIP3   OH252192   6.030   3.840   1.549 -0.1704 -0.2917  0.2714
10234TIP3    H152193   6.111   3.878   1.516 -0.7325  1.5420  0.8849
10234TIP3    H252194   5.966   3.911   1.542 -0.7083 -0.2995  3.6662
10235TIP3   OH252195   1.150   4.114  14.056  0.5430 -0.8397 -0.0976
10235TIP3    H152196   1.124   4.041  14.113 -0.4387  0.3805  1.0889
10235TIP3    H252197   1.222   4.156  14.102 -0.9504  0.7998  0.8516
10236TIP3   OH252198   1.173   6.748  15.448  0.2091  0.0753  0.5772
10236TIP3    H152199   1.100   6.764  15.388  0.0915  0.2036  0.7561
10236TIP3    H252200   1.185   6.653  15.445 -0.6097 -0.0579  1.3068
10237TIP3   OH252201   2.316   6.572   1.657  0.1436 -0.1498 -0.2305
10237TIP3    H152202   2.257   6.536   1.724  0.0575  1.8920  0.8545
10237TIP3    H252203   2.375   6.499   1.637 -0.7214 -1.2608  1.0208
10238TIP3   OH252204   5.643   0.739  14.689 -0.1060  0.0329  0.2060
10238TIP3    H152205   5.592   0.788  14.625 -0.0518  0.9872  0.8542
10238TIP3    H252206   5.675   0.807  14.749  2.4267 -0.4211 -0.5146
10239TIP3   OH252207   0.526   6.425   1.835  0.5899 -0.3582  0.4322
10239TIP3    H152208   0.445   6.430   1.785  0.6540  0.7128  0.4297
10239TIP3    H252209   0.524   6.337   1.874 -1.7814  0.5062  2.4685
10240TIP3   OH252210   2.220   5.505   2.089 -0.2235  0.0149 -0.0229
10240TIP3    H152211   2.251   5.545   2.008 -0.1239 -1.5415 -0.8007
10240TIP3    H252212   2.274   5.426   2.099 -1.5091 -0.8334  0.5281
10241TIP3   OH252213   2.519   1.614  15.751 -0.0475  0.4952  0.2696
10241TIP3    H152214   2.427   1.597  15.769 -0.1459  1.0894  0.3529
10241TIP3    H252215   2.517   1.678  15.679  0.3133 -0.4976 -0.6467
10242TIP3   OH252216   4.818   2.907  13.797 -0.0262 -0.6089  0.1696
10242TIP3    H152217   4.799   3.000  13.808  2.5435  0.0256 -0.2026
10242TIP3    H252218   4.750   2.863  13.849 -0.4290  1.4972  1.5681
10243TIP3   OH252219   4.248   3.782   3.561  0.2073  1.0772 -0.1552
10243TIP3    H152220   4.182   3.849   3.546 -0.6613  0.2051 -0.2780
10243TIP3    H252221   4.212   3.728   3.632  0.2626 -0.0720 -0.9816
10244TIP3   OH252222   6.687   0.162  16.231 -0.3421  0.0690 -0.2597
10244TIP3    H152223   6.629   0.185  16.304  0.6233 -0.4237  0.6837
10244TIP3    H252224   6.676   0.068  16.221 -1.9456  0.3723 -2.0829
10245TIP3   OH252225   3.857   3.388  17.041 -0.1944  0.5565 -0.1356
10245TIP3    H152226   3.795   3.386  17.114  1.7948  1.0880  1.6970
10245TIP3    H252227   3.803   3.403  16.963 -2.2714  1.5603  1.4071
10246TIP3   OH252228   0.918   3.496   2.022  0.2507 -0.8345  0.7237
10246TIP3    H152229   0.936   3.504   2.116  1.5396 -1.4392  0.5509
10246TIP3    H252230   0.967   3.568   1.982 -1.3560  0.2416  0.6010
10247TIP3   OH252231   3.311   1.021  11.924  1.0222  0.4095 -0.3650
10247TIP3    H152232   3.313   1.091  11.858  0.7986 -0.0391 -0.8534
10247TIP3    H252233   3.218   1.007  11.941  1.0568  0.0726 -0.4451
10248TIP3   OH252234   6.191   2.155  12.693 -0.2276  0.2171 -0.5518
10248TIP3    H152235   6.132   2.229  12.683 -2.0987 -1.0817  0.2268
10248TIP3    H252236   6.159   2.091  12.629 -1.3841 -1.4803  1.5722
10249TIP3   OH252237   0.535   5.295   6.660 -0.2442  0.5504  0.4373
10249TIP3    H152238   0.471   5.259   6.599 -1.2728  1.2881  1.0632
10249TIP3    H252239   0.615   5.245   6.642 -0.9443 -0.2997 -0.4399
10250TIP3   OH252240   5.844   3.183  16.194 -0.5712  0.3415  0.5543
10250TIP3    H152241   5.910   3.244  16.226 -0.4823  0.6876 -0.2509
10250TIP3    H252242   5.893   3.104  16.171 -0.4963  0.4375  0.3804
10251TIP3   OH252243   4.848   2.250   0.127 -0.2585  0.3619  0.1464
10251TIP3    H152244   4.862   2.156   0.140 -0.4915  0.3341  0.2106
10251TIP3    H252245   4.762   2.256   0.085 -0.3798  0.5599  0.4170
10252TIP3   OH252246   1.076   0.659   5.468  0.1918 -0.1883 -1.4195
10252TIP3    H152247   0.992   0.701   5.449 -0.0607 -0.4877 -0.9688
10252TIP3    H252248   1.081   0.657   5.563  0.8678  0.1386 -1.4480
10253TIP3   OH252249   3.350   4.087  12.901 -0.3700 -0.0210 -0.0041
10253TIP3    H152250   3.373   4.125  12.985  1.1666  2.9324 -1.5889
10253TIP3    H252251   3.355   3.993  12.915 -1.6476  0.3025  3.5189
10254TIP3   OH252252   1.731   0.469  14.525 -0.2153 -0.2478  0.0718
10254TIP3    H152253   1.747   0.487  14.618 -1.8689 -0.8208  0.5076
10254TIP3    H252254   1.715   0.374  14.522 -0.2593 -0.2189 -0.7893
10255TIP3   OH252255   1.478   0.838  16.346  0.0169  0.6121 -0.1696
10255TIP3    H152256   1.568   0.805  16.339  0.0610  0.5059  0.7726
10255TIP3    H252257   1.431   0.796  16.275  0.7626  0.8334 -0.8070
10256TIP3   OH252258   4.513   1.099  10.580  0.1820 -0.7024  0.0289
10256TIP3    H152259   4.496   1.079  10.672 -1.4502 -2.1042 -0.5295
10256TIP3    H252260   4.432   1.078  10.534  1.3508 -1.3491 -1.9192
10257TIP3   OH252261   5.340   6.271  12.878  0.5470 -0.1154 -0.0147
10257TIP3    H152262   5.313   6.362  12.861 -1.4349 -0.3553  1.4838
10257TIP3    H252263   5.261   6.219  12.862  1.3888 -1.4734  0.0844
10258TIP3   OH252264   3.714   1.161  15.747 -0.3343  0.0284 -0.5731
10258TIP3    H152265   3.793   1.152  15.695 -1.4463 -1.2210 -2.1540
10258TIP3    H252266   3.730   1.106  15.825  1.2630  1.7559  0.3929
10259TIP3   OH252267   6.467   0.724  13.761  0.4727 -0.4719  0.1887
10259TIP3    H152268   6.433   0.809  13.735 -1.4038 -0.2421  2.9655
10259TIP3    H252269   6.391   0.666  13.761  1.4926 -1.8793 -0.4572
10260TIP3   OH252270   2.822   0.711   1.398 -0.0976 -0.2201  0.1008
10260TIP3    H152271   2.834   0.798   1.437  1.1992 -0.8886  1.2662
10260TIP3    H252272   2.794   0.655   1.470  1.0207 -1.1897 -0.1773
10261TIP3   OH252273   1.700   2.708   4.351 -0.3113 -0.1856 -0.1225
10261TIP3    H152274   1.787   2.686   4.383 -0.2522 -2.1603 -1.4767
10261TIP3    H252275   1.641   2.654   4.404 -0.3218 -2.2907 -2.1683
10262TIP3   OH252276   4.110   4.633  10.883  0.1477  0.5589  0.3554
10262TIP3    H152277   4.102   4.541  10.908 -0.7147  0.2918 -0.7941
10262TIP3    H252278   4.181   4.634  10.819 -1.6326  0.1737 -1.7467
10263TIP3   OH252279   1.901   6.565   2.916 -0.0836 -0.3165  0.1203
10263TIP3    H152280   1.898   6.589   3.009 -0.2519 -1.3935  0.3982
10263TIP3    H252281   1.846   6.488   2.909  0.0342 -0.3190 -0.8598
10264TIP3   OH252282   2.757   2.971  16.236 -0.0037  0.6820  0.1976
10264TIP3    H152283   2.717   3.054  16.262 -0.2642  0.6208 -0.0044
10264TIP3    H252284   2.762   2.976  16.141 -1.5441 -0.2195  0.0443
10265TIP3   OH252285   6.102   4.469   1.784  0.2739 -0.8178 -0.2585
10265TIP3    H152286   6.114   4.400   1.719  2.3665 -1.7411  1.0209
10265TIP3    H252287   6.034   4.525   1.746  2.0233 -0.7518 -3.7174
10266TIP3   OH252288   3.320   6.481   1.651 -0.1328 -0.2508  0.2734
10266TIP3    H152289   3.230   6.449   1.641 -0.7119  0.5796  2.1968
10266TIP3    H252290   3.333   6.542   1.578 -0.9477 -0.7538 -0.3046
10267TIP3   OH252291   4.856   6.540   3.334 -0.2307  0.2870 -0.5767
10267TIP3    H152292   4.887   6.450   3.327 -2.0058 -0.2817 -1.8141
10267TIP3    H252293   4.878   6.580   3.250 -2.3239 -0.0125 -1.3304
10268TIP3   OH252294   1.777   0.447   0.537  0.5259 -0.0051  0.2907
10268TIP3    H152295   1.812   0.518   0.590  0.4925  0.3298 -0.1282
10268TIP3    H252296   1.763   0.375   0.599 -1.7006  1.0949  1.1667
10269TIP3   OH252297   1.981   0.598  10.603 -0.0280 -0.1596  0.0943
10269TIP3    H152298   1.960   0.688  10.576 -3.2134 -0.7738  0.1434
10269TIP3    H252299   1.996   0.604  10.697  0.7398  0.4529 -0.0602
10270TIP3   OH252300   1.786   6.214  16.408 -0.3969  0.5956 -0.5007
10270TIP3    H152301   1.854   6.168  16.458 -2.0441 -0.1600  1.1767
10270TIP3    H252302   1.825   6.298  16.385  0.9649  0.3511  0.7735
10271TIP3   OH252303   3.039   1.957  14.201 -0.1929  0.1119 -0.5036
10271TIP3    H152304   2.958   2.004  14.220 -1.2223 -1.3526 -1.1682
10271TIP3    H252305   3.027   1.920  14.114  1.1982 -0.1326 -0.6189
10272TIP3   OH252306   1.309   4.409   2.051  0.4466  0.7220  0.0962
10272TIP3    H152307   1.338   4.321   2.027 -1.4846  0.0851 -0.0606
10272TIP3    H252308   1.382   4.445   2.102  0.7165 -1.5482  1.4647
10273TIP3   OH252309   4.078   2.137  16.805 -0.2232 -0.8250 -0.2915
10273TIP3    H152310   4.028   2.075  16.750 -3.6617  0.9816  0.5116
10273TIP3    H252311   4.080   2.095  16.891  0.9166 -1.5153 -0.6412
10274TIP3   OH252312   0.802   1.893   2.559  0.5231 -0.1189 -0.1140
10274TIP3    H152313   0.845   1.976   2.537  2.2644 -1.1654 -0.8448
10274TIP3    H252314   0.856   1.826   2.517 -1.7584 -1.5512 -0.9454
10275TIP3   OH252315   4.540   1.751   3.718 -0.3848 -0.1929  0.4468
10275TIP3    H152316   4.610   1.755   3.783 -0.5831  0.4164  0.6300
10275TIP3    H252317   4.459   1.751   3.770 -0.5315 -1.2434  0.2540
10276TIP3   OH252318   3.233   4.627   5.832 -0.6880  0.5459 -0.2397
10276TIP3    H152319   3.326   4.642   5.815 -0.6021 -0.3782 -0.6380
10276TIP3    H252320   3.193   4.625   5.745 -0.9759  0.3309 -0.1025
10277TIP3   OH252321   5.779   2.425  11.618 -0.5756  0.4897  0.0524
10277TIP3    H152322   5.723   2.406  11.542 -1.0281  0.8732  0.2865
10277TIP3    H252323   5.719   2.461  11.683 -0.1456  0.3864  0.5076
10278TIP3   OH252324   6.166   6.085  13.369 -0.1666 -0.0670 -0.0226
10278TIP3    H152325   6.177   6.105  13.276  0.0552  2.5543  0.4774
10278TIP3    H252326   6.078   6.048  13.375  0.8866 -3.1627 -1.5896
10279TIP3   OH252327   5.552   1.835   4.417  0.9220  0.0598 -0.3418
10279TIP3    H152328   5.510   1.848   4.502  0.1772 -0.4722 -0.6225
10279TIP3    H252329   5.605   1.914   4.404 -0.3472  0.9764 -0.1806
10280TIP3   OH252330   6.457   0.070  16.030  0.1796  0.2522 -0.2547
10280TIP3    H152331   6.523   0.107  15.971 -0.1603  0.2276 -0.6506
10280TIP3    H252332   6.460  -0.024  16.014 -0.9528  0.3762 -1.3263
10281TIP3   OH252333   3.258   2.269  11.757 -0.2606 -0.5634  0.5669
10281TIP3    H152334   3.296   2.238  11.839  2.1660 -0.4243 -0.4092
10281TIP3    H252335   3.281   2.362  11.754  1.3457 -0.9629 -1.0699
10282TIP3   OH252336   4.569   0.290   3.370 -0.0017  0.6624 -0.1058
10282TIP3    H152337   4.636   0.224   3.357  0.8462  1.2509  1.0436
10282TIP3    H252338   4.487   0.240   3.378  0.1095 -0.0061 -2.3899
10283TIP3   OH252339   0.628   2.094  11.084  0.7895 -0.4237  0.0908
10283TIP3    H152340   0.697   2.031  11.101  0.0476 -1.5812 -1.0341
10283TIP3    H252341   0.569   2.050  11.023 -1.2775  0.2885  1.4508
10284TIP3   OH252342   2.546   4.887   0.495 -0.5151 -0.2306 -0.4402
10284TIP3    H152343   2.631   4.844   0.493  0.2250  1.1646 -0.6182
10284TIP3    H252344   2.485   4.820   0.524  1.1861 -0.3952  3.2605
10285TIP3   OH252345   2.051   4.496  11.325  0.1007  0.6351 -0.4594
10285TIP3    H152346   1.995   4.518  11.400 -0.2447 -0.4540 -0.3790
10285TIP3    H252347   2.018   4.411  11.295  0.6043  0.7974 -1.4994
10286TIP3   OH252348   4.287   2.348  11.712 -0.2647  0.1941 -0.0631
10286TIP3    H152349   4.277   2.425  11.769  1.4065  0.3067  0.1084
10286TIP3    H252350   4.305   2.276  11.771 -1.2749 -0.2513 -0.2708
10287TIP3   OH252351   2.457   4.782  15.178  0.0665 -0.4174  0.4662
10287TIP3    H152352   2.382   4.790  15.237 -0.2657  2.1394 -0.1858
10287TIP3    H252353   2.423   4.736  15.102 -0.7592  0.3091  0.3761
10288TIP3   OH252354   0.468   3.837  15.542 -0.2152  0.1189 -0.3602
10288TIP3    H152355   0.455   3.750  15.506 -0.7905  0.5327 -1.1857
10288TIP3    H252356   0.563   3.852  15.536  0.0914 -0.9870  1.1293
10289TIP3   OH252357   1.204   3.410   3.587 -0.0102  0.2417 -0.5207
10289TIP3    H152358   1.128   3.355   3.570  0.8938 -0.8115 -1.3214
10289TIP3    H252359   1.244   3.423   3.501  0.8997  0.4945 -0.0752
10290TIP3   OH252360   6.432   4.291  13.840 -0.1937  0.4525 -0.0616
10290TIP3    H152361   6.386   4.354  13.785 -1.7844  0.5929  1.3533
10290TIP3    H252362   6.447   4.338  13.923 -1.2686 -0.9370  0.9631
10291TIP3   OH252363   1.801   4.564  17.103  0.1462  0.1837  0.1388
10291TIP3    H152364   1.872   4.500  17.112  0.0406  0.1034  0.4051
10291TIP3    H252365   1.746   4.550  17.180 -1.3114 -1.1734 -1.0898
10292TIP3   OH252366   6.259   2.034   1.511 -0.4739  0.2140  0.1507
10292TIP3    H152367   6.213   2.029   1.595  1.4388  0.7611  1.3145
10292TIP3    H252368   6.242   2.122   1.479 -1.4194 -0.0808 -0.1868
10293TIP3   OH252369   5.499   5.989   3.968  0.1631  0.0181  0.4149
10293TIP3    H152370   5.588   5.998   3.933  0.2526 -0.3576  0.5414
10293TIP3    H252371   5.509   6.004   4.062  0.2837 -1.1579  0.6008
10294TIP3   OH252372   4.955   0.926  17.172 -0.0340  0.5235 -0.1476
10294TIP3    H152373   4.906   1.005  17.149 -1.6104  0.2659  2.0263
10294TIP3    H252374   4.940   0.867  17.098 -2.9404  0.5340  0.3122
10295TIP3   OH252375   1.318   5.802  11.315 -0.2803 -0.2022  0.1297
10295TIP3    H152376   1.259   5.794  11.240 -0.4986 -1.9965  0.4471
10295TIP3    H252377   1.376   5.874  11.293 -1.1512  0.1097 -1.2043
10296TIP3   OH252378   6.507   3.528   1.095  0.2578 -0.4551  0.0679
10296TIP3    H152379   6.588   3.579   1.100  0.3821 -0.7395  1.2646
10296TIP3    H252380   6.437   3.592   1.107  0.2691 -0.1878 -1.0991
10297TIP3   OH252381   1.924   6.775  11.366  0.2979  0.0642  0.0087
10297TIP3    H152382   1.904   6.867  11.384  2.1953  0.3702  0.8709
10297TIP3    H252383   2.020   6.770  11.373  0.3674 -1.6816 -1.5423
10298TIP3   OH252384   0.812   0.454   2.280  0.4830  0.3091 -0.3453
10298TIP3    H152385   0.725   0.458   2.240  0.0142 -0.2835  0.5688
10298TIP3    H252386   0.822   0.538   2.325  1.1450  1.1073 -1.9300
10299TIP3   OH252387   0.947   5.771   0.284 -0.5716 -0.4374 -0.4927
10299TIP3    H152388   0.870   5.813   0.246 -1.1227 -1.5532 -0.6272
10299TIP3    H252389   0.953   5.686   0.240  0.7634 -0.3610 -0.5116
10300TIP3   OH252390   5.616   0.185  13.529 -0.1951 -0.3350  0.1023
10300TIP3    H152391   5.542   0.199  13.470 -0.7057  0.7716  0.9609
10300TIP3    H252392   5.643   0.273  13.555  0.2242 -0.7794  1.2509
10301TIP3   OH252393   4.169   3.543  16.550 -0.0825 -0.0903 -0.0265
10301TIP3    H152394   4.084   3.564  16.590 -0.3328  1.6050 -1.3011
10301TIP3    H252395   4.196   3.625  16.509  1.8554 -0.8003 -0.2508
10302TIP3   OH252396   0.658   6.705  15.917  0.5902 -0.2378  0.0596
10302TIP3    H152397   0.645   6.649  15.994  0.1790 -0.1658  0.0439
10302TIP3    H252398   0.747   6.685  15.888  1.4558  1.0976  1.6432
10303TIP3   OH252399   4.211   5.155   2.915 -0.3414  0.2523 -0.1535
10303TIP3    H152400   4.280   5.210   2.878 -0.0129  0.5417  0.8872
10303TIP3    H252401   4.130   5.197   2.886 -0.0894  0.3929 -0.6693
10304TIP3   OH252402   1.672   1.603   2.857  0.3567  0.2139 -0.0882
10304TIP3    H152403   1.715   1.688   2.846 -0.8544  1.1064  1.6057
10304TIP3    H252404   1.741   1.539   2.840  1.2948  1.5150 -1.3977
10305TIP3   OH252405   3.119   5.381  15.283  0.0987 -0.1441  0.1316
10305TIP3    H152406   3.179   5.385  15.208 -1.5479 -0.9175 -1.2905
10305TIP3    H252407   3.122   5.289  15.311  0.5566  0.0996  0.9393
10306TIP3   OH252408   3.125   3.301  15.266  0.3475 -0.0610 -0.4123
10306TIP3    H152409   3.121   3.232  15.200 -0.0693 -0.2680 -0.1709
10306TIP3    H252410   3.172   3.261  15.340  0.8993  0.2008 -0.6149
10307TIP3   OH252411   5.555   2.393  16.967 -0.5216  0.1287  0.7350
10307TIP3    H152412   5.477   2.344  16.942  0.4764 -0.2037 -2.1127
10307TIP3    H252413   5.544   2.479  16.925  0.4258  0.2261  0.6657
10308TIP3   OH252414   5.530   0.746  16.649  0.8420 -0.2106  0.2707
10308TIP3    H152415   5.453   0.762  16.703  1.1446  1.5929  0.2462
10308TIP3    H252416   5.603   0.739  16.711  1.0524  0.9511  0.1862
10309TIP3   OH252417   4.714   2.802   5.533  0.0265 -0.2947  0.2707
10309TIP3    H152418   4.707   2.800   5.437  0.0631  0.8812  0.2262
10309TIP3    H252419   4.659   2.876   5.559 -0.2742 -0.8398  1.1913
10310TIP3   OH252420   3.544   0.048  10.287  0.1454  0.3589  0.1170
10310TIP3    H152421   3.481  -0.012  10.246 -1.4107  1.7452  0.3759
10310TIP3    H252422   3.541   0.026  10.380 -1.6811  1.8444  0.4686
10311TIP3   OH252423   2.675   5.694   2.151 -0.0864 -0.7978  0.0452
10311TIP3    H152424   2.700   5.644   2.074 -4.3734 -1.8797 -0.9008
10311TIP3    H252425   2.677   5.631   2.223 -0.7101 -1.0146 -0.1332
10312TIP3   OH252426   2.802   4.992   2.392 -0.2455 -0.3318 -0.1414
10312TIP3    H152427   2.841   5.067   2.346  1.2295  0.3178  2.0085
10312TIP3    H252428   2.875   4.930   2.403 -0.9373 -1.1400 -0.0140
10313TIP3   OH252429   2.851   4.091  15.621 -0.4042 -0.1279  0.2850
10313TIP3    H152430   2.805   4.169  15.589  0.6289  0.6996  0.7543
10313TIP3    H252431   2.812   4.019  15.572 -1.9975  0.5663  0.4503
10314TIP3   OH252432   2.866   2.641  16.578  0.6302  0.4348  0.2561
10314TIP3    H152433   2.833   2.590  16.652 -0.9225 -0.5053 -1.0206
10314TIP3    H252434   2.801   2.709  16.564 -0.2866 -0.7235 -1.5539
10315TIP3   OH252435   4.685   6.719   4.247 -0.1912  0.0301 -0.2343
10315TIP3    H152436   4.725   6.636   4.274  0.3790  0.0734 -0.9290
10315TIP3    H252437   4.599   6.694   4.213  0.3792 -0.4066 -1.3955
10316TIP3   OH252438   5.203   6.612   3.251 -0.2222  0.0930 -0.3136
10316TIP3    H152439   5.250   6.672   3.194 -0.4184  1.2044  0.6685
10316TIP3    H252440   5.267   6.586   3.317 -1.1099  2.2741  1.5337
10317TIP3   OH252441   2.229   5.904   2.361 -0.0463  0.4763  0.5308
10317TIP3    H152442   2.220   5.999   2.358  3.5906  0.9609 -0.0652
10317TIP3    H252443   2.317   5.890   2.398 -0.9142 -2.7152  1.7213
10318TIP3   OH252444   0.386   4.251   6.086 -0.3192  0.4362  0.2362
10318TIP3    H152445   0.463   4.195   6.097  0.1232  0.2830 -2.7258
10318TIP3    H252446   0.418   4.328   6.040 -1.6376  1.2003  0.5463
10319TIP3   OH252447   6.117   1.436  14.488 -0.6057  0.0650  0.7276
10319TIP3    H152448   6.069   1.519  14.484 -0.7847 -0.0783 -0.6057
10319TIP3    H252449   6.061   1.379  14.541 -0.7526  0.6197  1.1815
10320TIP3   OH252450   4.516   2.656  12.228 -0.0420  0.4650 -0.2978
10320TIP3    H152451   4.578   2.596  12.188  0.1696 -0.9278  1.9198
10320TIP3    H252452   4.495   2.616  12.313 -2.3885  1.9375 -0.0858
10321TIP3   OH252453   5.828   1.014  10.889  0.2492 -0.2851 -0.3208
10321TIP3    H152454   5.746   0.974  10.919  1.1225 -2.2529 -0.4277
10321TIP3    H252455   5.854   1.071  10.961 -0.4934 -0.7292  0.3215
10322TIP3   OH252456   1.535   2.806   2.932 -0.0465  0.3143  0.0804
10322TIP3    H152457   1.519   2.759   2.850 -0.1056  1.3504 -0.5166
10322TIP3    H252458   1.465   2.776   2.990 -1.2984  1.1472 -0.9427
10323TIP3   OH252459   3.295   2.126   3.056  0.3615  0.6028  0.1003
10323TIP3    H152460   3.268   2.064   2.989  1.0207  1.8097 -1.3448
10323TIP3    H252461   3.391   2.118   3.058  0.3033 -0.0384  1.5524
10324TIP3   OH252462   6.066   3.895   3.688  0.4212 -0.1606  0.1087
10324TIP3    H152463   6.148   3.944   3.680  1.6623 -1.5877  2.7510
10324TIP3    H252464   6.000   3.962   3.707  1.5171  0.7936  0.7231
10325TIP3   OH252465   3.192   2.076   0.335  0.4260  0.2095 -0.2041
10325TIP3    H152466   3.108   2.117   0.354  0.8045  0.8872  0.0345
10325TIP3    H252467   3.187   2.052   0.242  0.5202  1.5807 -0.5753
10326TIP3   OH252468   1.794   5.006  15.736 -0.0156 -0.3730  0.6242
10326TIP3    H152469   1.735   5.048  15.673 -0.8476  0.6409  2.0190
10326TIP3    H252470   1.881   5.032  15.708 -0.2996 -0.6829 -0.6154
10327TIP3   OH252471   1.401   6.765  16.070  0.1924  0.4482  0.1743
10327TIP3    H152472   1.400   6.673  16.097 -1.6973 -0.0207 -1.2681
10327TIP3    H252473   1.458   6.767  15.993  2.6799  1.1189  1.9181
10328TIP3   OH252474   2.763   0.049   0.570  0.4989 -0.1625 -0.1458
10328TIP3    H152475   2.741  -0.044   0.574 -0.7109  0.1527  0.8970
10328TIP3    H252476   2.775   0.075   0.662  0.2350  0.8456 -0.3829
10329TIP3   OH252477   4.553   0.973   4.638  0.5755 -0.0866 -0.0426
10329TIP3    H152478   4.497   0.933   4.572  0.6806 -0.6555  0.2039
10329TIP3    H252479   4.640   0.940   4.618  1.0655  1.7993 -1.2035
10330TIP3   OH252480   3.403   6.617  15.048 -0.2235  0.0206 -0.0941
10330TIP3    H152481   3.422   6.596  15.139 -0.9088 -0.6491 -0.0900
10330TIP3    H252482   3.457   6.557  14.997 -0.3086 -0.0315 -0.1226
10331TIP3   OH252483   5.622   3.039   4.000  0.4506  0.2302 -0.9243
10331TIP3    H152484   5.594   3.070   3.914 -1.5250  0.7148 -0.1839
10331TIP3    H252485   5.716   3.056   4.003  0.7004 -0.4202 -3.2107
10332TIP3   OH252486   6.493   1.052   4.306  0.5456 -0.6791 -0.2601
10332TIP3    H152487   6.488   0.963   4.339 -2.0626 -0.2718  0.6828
10332TIP3    H252488   6.556   1.096   4.363  3.0046 -2.1809 -1.6486
10333TIP3   OH252489   4.411   4.048   6.046  0.6466 -0.4491  0.3343
10333TIP3    H152490   4.399   4.029   5.953  0.0155  1.0974  0.0803
10333TIP3    H252491   4.459   3.972   6.079 -0.7549 -1.9232 -0.8392
10334TIP3   OH252492   2.029   4.053   5.201 -0.4624 -0.1207 -0.1976
10334TIP3    H152493   2.069   4.046   5.114  0.2364  1.2179 -0.0156
10334TIP3    H252494   2.030   3.964   5.236 -0.2595 -0.5877 -1.3357
10335TIP3   OH252495   6.160   6.669  13.967 -0.6560  0.1078  0.4293
10335TIP3    H152496   6.239   6.677  14.019 -0.8762  0.8186  0.6694
10335TIP3    H252497   6.122   6.585  13.993  0.0341 -0.2510  0.2861
10336TIP3   OH252498   2.366   6.373  14.446  0.1178  1.0726 -0.6591
10336TIP3    H152499   2.321   6.308  14.393  0.0273  1.0918 -0.6064
10336TIP3    H252500   2.323   6.368  14.532  1.2006  0.0454 -0.1544
10337TIP3   OH252501   3.582   2.780  13.227 -0.1201 -0.6997 -0.2676
10337TIP3    H152502   3.608   2.872  13.220  1.4379 -1.0396  0.6362
10337TIP3    H252503   3.560   2.754  13.137  0.0300  0.3795 -0.6312
10338TIP3   OH252504   3.034   5.182  13.549 -0.0828  0.4037 -0.0755
10338TIP3    H152505   3.086   5.161  13.471  1.4560  1.0415  0.7249
10338TIP3    H252506   3.063   5.120  13.615 -1.8641 -0.5729 -0.1587
10339TIP3   OH252507   1.836   1.664   3.562 -0.3745  0.0646  0.7230
10339TIP3    H152508   1.913   1.711   3.595 -0.5304 -0.4292  1.8578
10339TIP3    H252509   1.841   1.673   3.467  0.1765  1.4425  0.8600
10340TIP3   OH252510   0.973   5.905   3.115  0.0373  0.2767 -0.3914
10340TIP3    H152511   0.971   5.884   3.022 -0.3042  0.6852 -0.4786
10340TIP3    H252512   1.021   5.988   3.120  0.4815  0.0137 -0.1513
10341TIP3   OH252513   3.135   0.025  13.104 -0.4894  0.3056  0.1763
10341TIP3    H152514   3.192   0.073  13.165  0.5909 -0.0173 -0.5592
10341TIP3    H252515   3.144   0.071  13.021 -3.3960  1.8831  0.6037
10342TIP3   OH252516   5.576   0.148   2.411  0.5078  0.4375  0.1792
10342TIP3    H152517   5.612   0.185   2.330  0.6601  0.0981  0.0911
10342TIP3    H252518   5.490   0.189   2.419  0.5776  0.6327 -0.0447
10343TIP3   OH252519   0.502   2.977   0.979 -0.1043 -0.0721  0.0582
10343TIP3    H152520   0.497   2.894   1.026  1.8938 -1.8342 -2.5036
10343TIP3    H252521   0.583   3.017   1.009  0.4774 -0.5529 -0.8081
10344TIP3   OH252522   6.248   6.535  14.686  0.5207  0.0036 -0.3394
10344TIP3    H152523   6.235   6.548  14.780 -0.5536  0.0279 -0.4775
10344TIP3    H252524   6.228   6.620  14.646  0.2585 -0.2025 -0.6524
10345TIP3   OH252525   3.163   5.300  12.779  0.3867  0.6718  0.3735
10345TIP3    H152526   3.123   5.323  12.695 -0.3718 -0.3593  0.4268
10345TIP3    H252527   3.253   5.330  12.772  0.3685  0.4826 -0.8665
10346TIP3   OH252528   0.151   6.751  14.954  0.2613  0.2712  0.4101
10346TIP3    H152529   0.205   6.677  14.980  0.7635  0.0872 -1.0686
10346TIP3    H252530   0.110   6.724  14.872 -0.1471  1.3379  0.2416
10347TIP3   OH252531   3.689   1.053  13.077 -0.0229 -0.1587  0.0970
10347TIP3    H152532   3.780   1.063  13.106 -0.2441 -0.0154  0.7603
10347TIP3    H252533   3.695   1.045  12.982  0.7553 -1.0465  0.2099
10348TIP3   OH252534   2.904   3.059  16.497 -0.0159 -0.3991  0.7975
10348TIP3    H152535   2.869   3.027  16.413  2.1703 -0.0846 -0.3113
10348TIP3    H252536   2.842   3.126  16.525 -0.1540  0.3892 -1.2316
10349TIP3   OH252537   6.493   3.222   6.098  0.3980  0.1481 -0.1616
10349TIP3    H152538   6.472   3.284   6.029 -2.3722  1.0217  1.3361
10349TIP3    H252539   6.535   3.274   6.166 -2.1012  0.5212  1.1794
10350TIP3   OH252540   5.289   0.074   2.262  0.3089  0.2549  0.0986
10350TIP3    H152541   5.275  -0.013   2.300 -0.7091  0.0294 -0.7577
10350TIP3    H252542   5.202   0.115   2.263  0.2977  0.3358 -1.7170
10351TIP3   OH252543   1.811   2.365  13.712 -0.3200 -0.1267  0.3941
10351TIP3    H152544   1.824   2.290  13.654  0.2711 -0.8293  1.4139
10351TIP3    H252545   1.719   2.359  13.738  0.1183 -1.4796  1.7614
10352TIP3   OH252546   4.534   0.802   1.417 -0.2488 -0.1721  0.3215
10352TIP3    H152547   4.566   0.855   1.344 -1.2407 -1.9087 -1.4886
10352TIP3    H252548   4.610   0.789   1.474  0.4265  1.6524 -0.1035
10353TIP3   OH252549   5.716   5.978  12.752  0.3532 -0.8886 -0.1689
10353TIP3    H152550   5.655   6.048  12.727  1.5353 -0.3034 -1.5469
10353TIP3    H252551   5.664   5.898  12.749 -0.4251 -0.3718 -1.0226
10354TIP3   OH252552   6.598   1.490  11.520  0.0713  0.2547 -0.1597
10354TIP3    H152553   6.613   1.556  11.452 -0.6847  1.4112  0.7401
10354TIP3    H252554   6.572   1.411  11.472 -0.8233  1.1429 -1.2101
10355TIP3   OH252555   4.636   5.176   0.052 -0.1657 -0.3179 -0.2281
10355TIP3    H152556   4.565   5.224   0.009  0.3972 -0.4854 -1.4007
10355TIP3    H252557   4.690   5.245   0.092 -0.0975 -0.0654 -0.7430
10356TIP3   OH252558   5.930   4.736  15.878 -0.1865  0.4845 -0.2748
10356TIP3    H152559   5.991   4.710  15.946 -1.0656 -1.0673 -0.0400
10356TIP3    H252560   5.849   4.757  15.925 -1.1037 -1.5297 -0.8468
10357TIP3   OH252561   2.028   4.015  10.403  0.4126  0.1074 -0.2418
10357TIP3    H152562   1.984   3.990  10.484  0.0197 -0.7557 -0.7093
10357TIP3    H252563   2.116   3.980  10.412 -0.1709 -1.6373 -0.9451
10358TIP3   OH252564   0.894   4.055  14.570 -0.7453 -0.1592  0.2561
10358TIP3    H152565   0.981   4.041  14.532 -0.5450  2.2152 -0.2881
10358TIP3    H252566   0.833   4.035  14.499 -0.5609 -0.0113  0.0576
10359TIP3   OH252567   2.056   0.490   2.131  0.3830 -0.7037 -0.1867
10359TIP3    H152568   2.065   0.471   2.224 -0.7015 -0.7788 -0.0779
10359TIP3    H252569   2.079   0.583   2.124  1.4420 -0.9450 -0.0156
10360TIP3   OH252570   5.483   5.938  15.200  0.2336  0.8470  0.3681
10360TIP3    H152571   5.579   5.934  15.198  0.2188  0.6496 -1.4485
10360TIP3    H252572   5.456   5.847  15.216  0.3483  0.5291 -1.1375
10361TIP3   OH252573   0.123   2.687  14.589 -0.3254 -0.0069 -0.3195
10361TIP3    H152574   0.135   2.766  14.535 -0.3553 -0.8654 -1.6123
10361TIP3    H252575   0.128   2.614  14.527 -1.4026 -0.9765  0.6781
10362TIP3   OH252576   4.430   3.040  12.025  0.5768 -0.5817 -0.2407
10362TIP3    H152577   4.362   2.980  12.057  0.1487  0.7951  1.6187
10362TIP3    H252578   4.395   3.075  11.943 -2.1698  1.8043  1.7458
10363TIP3   OH252579   4.890   1.472  12.120  0.8473 -0.6965 -0.3624
10363TIP3    H152580   4.821   1.425  12.168 -0.4940 -0.1918 -1.7018
10363TIP3    H252581   4.937   1.521  12.188 -0.4583 -0.6347  0.5506
10364TIP3   OH252582   0.983   1.532   2.149  0.6057  0.0660 -0.2950
10364TIP3    H152583   0.990   1.454   2.204  0.6519  1.1165  1.2505
10364TIP3    H252584   1.068   1.537   2.104  0.2609 -1.2732 -1.1716
10365TIP3   OH252585   2.324   0.539   0.013  0.6497 -0.0193 -0.4178
10365TIP3    H152586   2.310   0.463   0.069 -1.7010  1.9266  1.8620
10365TIP3    H252587   2.237   0.562  -0.018  1.2730  1.8598 -0.8786
10366TIP3   OH252588   6.422   5.452  13.153  0.0271 -0.6492 -0.1795
10366TIP3    H152589   6.396   5.362  13.137  1.5879 -0.9037 -1.5823
10366TIP3    H252590   6.347   5.491  13.198 -1.2057 -2.2729 -0.7219
10367TIP3   OH252591   0.543   0.782  16.174 -0.2499 -0.1129  0.2719
10367TIP3    H152592   0.548   0.736  16.091 -0.0940  0.3810  0.0022
10367TIP3    H252593   0.452   0.770  16.203 -0.2135 -0.5694  0.2006
10368TIP3   OH252594   6.771   0.668  13.965 -0.2136  0.1777  0.6367
10368TIP3    H152595   6.703   0.732  13.986 -1.0142  0.1027 -1.4573
10368TIP3    H252596   6.723   0.591  13.936  0.7434 -0.1853 -0.0316
10369TIP3   OH252597   5.821   5.543  11.967 -0.2537  0.3089  0.2794
10369TIP3    H152598   5.870   5.607  11.914  0.9145 -0.5675  0.2463
10369TIP3    H252599   5.863   5.459  11.947 -1.0249 -0.3086  1.1732
10370TIP3   OH252600   0.378   4.170  16.166  0.0984 -0.3220  0.3841
10370TIP3    H152601   0.315   4.138  16.231 -0.0999  0.9944  0.8685
10370TIP3    H252602   0.462   4.169  16.213 -0.1180  1.0662  0.8448
10371TIP3   OH252603   1.284   3.028  16.477  0.1437 -0.5667  0.4758
10371TIP3    H152604   1.231   3.010  16.399  0.8583 -0.3994 -0.0613
10371TIP3    H252605   1.236   3.096  16.524  0.3583  0.2964 -0.5188
10372TIP3   OH252606   2.847   0.772   1.127  0.4154  0.3707 -0.3052
10372TIP3    H152607   2.756   0.801   1.128 -0.9912 -3.3285 -1.5579
10372TIP3    H252608   2.865   0.749   1.219 -1.1199 -1.7823 -0.4673
10373TIP3   OH252609   5.550   2.281  12.283  0.3367 -0.0109  0.7160
10373TIP3    H152610   5.464   2.306  12.248 -0.1110 -0.2005  1.6509
10373TIP3    H252611   5.567   2.346  12.352  1.5299  0.7902 -0.2797
10374TIP3   OH252612   1.287   6.227  14.676  0.4216  0.5360  0.3466
10374TIP3    H152613   1.311   6.167  14.605 -1.2481 -1.3005  1.2168
10374TIP3    H252614   1.342   6.200  14.749 -0.4384 -0.0729  0.7845
10375TIP3   OH252615   1.804   5.030  13.107 -0.1148  0.3153 -0.1020
10375TIP3    H152616   1.756   4.949  13.122 -1.5815  1.0241 -0.7405
10375TIP3    H252617   1.884   5.003  13.063  0.6760 -1.0153  2.0081
10376TIP3   OH252618   5.238   0.565  11.579 -0.1475  0.1403  0.5235
10376TIP3    H152619   5.152   0.593  11.610 -0.2612 -0.9943  1.2877
10376TIP3    H252620   5.277   0.644  11.542 -1.6843  0.5759 -0.2447
10377TIP3   OH252621   4.118   4.346  15.223 -0.1464  0.3409 -0.1280
10377TIP3    H152622   4.027   4.331  15.199 -0.0821  1.3468 -1.0574
10377TIP3    H252623   4.114   4.393  15.306 -0.4221 -1.0494  0.6734
10378TIP3   OH252624   0.810   2.621   0.616  1.2621  0.3346 -0.1727
10378TIP3    H152625   0.901   2.646   0.601  0.8585  0.8113 -2.1541
10378TIP3    H252626   0.760   2.675   0.555 -0.0933 -1.7262 -1.0142
10379TIP3   OH252627   3.042   3.683   1.509 -0.1477  1.0936  0.1884
10379TIP3    H152628   3.047   3.607   1.568  0.8440 -1.1463 -2.5412
10379TIP3    H252629   2.953   3.715   1.519 -0.2289  0.4016  2.3424
10380TIP3   OH252630   3.200   5.228   2.714  0.0365 -0.0183 -0.0633
10380TIP3    H152631   3.117   5.223   2.666  0.6122  0.6449 -1.1991
10380TIP3    H252632   3.195   5.158   2.779 -1.6577  0.4001  0.3124
10381TIP3   OH252633   2.718   2.106   0.086  0.7106 -0.1957  0.0088
10381TIP3    H152634   2.687   2.016   0.073 -1.9880  0.3320  1.8981
10381TIP3    H252635   2.670   2.157   0.021  1.2921  0.0391 -0.2358
10382TIP3   OH252636   6.012   2.742  16.327 -0.1777 -0.0403 -0.2085
10382TIP3    H152637   6.019   2.681  16.400 -0.4449  0.3934  0.1851
10382TIP3    H252638   6.089   2.724  16.273  1.3548  1.2061  1.4095
10383TIP3   OH252639   5.815   0.909   1.464  0.0113 -0.2649  0.4816
10383TIP3    H152640   5.722   0.911   1.489  0.1872 -0.6401  1.1817
10383TIP3    H252641   5.858   0.863   1.535  0.9532  1.0893  0.8252
10384TIP3   OH252642   4.669   2.515  14.740 -0.1126 -0.0757 -0.5660
10384TIP3    H152643   4.741   2.473  14.693  2.6638  0.6165  2.6323
10384TIP3    H252644   4.604   2.446  14.753  0.9923 -1.3611 -1.6219
10385TIP3   OH252645   3.258   1.624  12.449  0.0088  0.0872  0.2356
10385TIP3    H152646   3.294   1.617  12.538 -0.3615 -4.1796  0.2118
10385TIP3    H252647   3.326   1.587  12.393 -1.0516 -0.2725 -0.8540
10386TIP3   OH252648   1.550   0.522  12.699  0.3827 -0.0860  0.0842
10386TIP3    H152649   1.537   0.569  12.616  1.2482  0.0525  0.0141
10386TIP3    H252650   1.636   0.481  12.690  0.6900  0.3050  1.0844
10387TIP3   OH252651   2.423   1.979   0.163 -0.1641  0.1754 -0.5915
10387TIP3    H152652   2.455   1.973   0.073  0.2886  1.1072 -0.5036
10387TIP3    H252653   2.436   1.891   0.198 -0.5366 -0.2564 -1.4861
10388TIP3   OH252654   1.327   3.843  13.148  0.2735  0.8483  0.4416
10388TIP3    H152655   1.309   3.764  13.199  0.3423 -0.2237 -1.1085
10388TIP3    H252656   1.337   3.912  13.213  0.7555 -0.5164  1.8787
10389TIP3   OH252657   4.970   5.242   5.192  0.4668 -0.0963  0.4876
10389TIP3    H152658   5.026   5.283   5.127  1.9899 -0.6273  1.4157
10389TIP3    H252659   4.903   5.307   5.211 -0.3270 -0.1094 -1.9375
10390TIP3   OH252660   0.033   0.660  16.457 -0.2062  0.2184 -0.6791
10390TIP3    H152661  -0.052   0.656  16.500  0.8065 -2.7824  1.4097
10390TIP3    H252662   0.028   0.597  16.385  0.3073 -0.2318 -0.3339
10391TIP3   OH252663   4.373   5.033   0.331 -0.4489 -0.1899 -0.5685
10391TIP3    H152664   4.431   4.959   0.317 -0.4875 -0.5185  0.8809
10391TIP3    H252665   4.389   5.090   0.256  0.4869 -1.0653 -1.0649
10392TIP3   OH252666   4.699   3.380   4.543 -0.3759 -0.5979 -0.0663
10392TIP3    H152667   4.765   3.400   4.477  0.5591 -0.0341  1.0028
10392TIP3    H252668   4.695   3.284   4.545  0.6213 -0.6444  0.0537
10393TIP3   OH252669   2.042   3.287   5.272 -0.3419 -0.1388  0.4214
10393TIP3    H152670   2.081   3.307   5.356 -0.0047 -0.3326  0.3138
10393TIP3    H252671   1.947   3.294   5.286 -0.3243 -0.9975  1.0317
10394TIP3   OH252672   6.564   2.845  14.352 -0.1528 -0.3484 -0.5309
10394TIP3    H152673   6.515   2.888  14.281 -1.1929  0.5603  0.6998
10394TIP3    H252674   6.498   2.823  14.417  1.0418  1.1434  1.3157
10395TIP3   OH252675   3.391   3.012   5.766 -0.4349 -0.2087 -0.4903
10395TIP3    H152676   3.367   2.928   5.726 -0.9861 -0.8350  1.0500
10395TIP3    H252677   3.370   3.000   5.859 -1.7586  2.0799 -0.4220
10396TIP3   OH252678   4.552   4.769   4.100  0.3865  0.1958  0.2876
10396TIP3    H152679   4.626   4.769   4.039 -0.3173 -1.6044 -0.6212
10396TIP3    H252680   4.526   4.861   4.106  2.4415  0.8207  0.3378
10397TIP3   OH252681   2.580   2.209   0.898 -0.3322 -0.0410  0.5119
10397TIP3    H152682   2.547   2.170   0.818 -2.1701  1.3092  0.5527
10397TIP3    H252683   2.501   2.229   0.950  0.6252  1.7570  1.3733
10398TIP3   OH252684   0.707   5.606   3.506  0.2481 -0.5125  0.0112
10398TIP3    H152685   0.724   5.657   3.427  4.5481  2.9304  2.7156
10398TIP3    H252686   0.619   5.633   3.534 -0.2995  0.1216 -2.1770
10399TIP3   OH252687   4.453   3.775  15.017  0.1020 -0.5745 -0.3331
10399TIP3    H152688   4.361   3.751  15.009 -0.3363  0.7084  0.5606
10399TIP3    H252689   4.485   3.725  15.092 -0.4568  0.5574  0.6948
10400TIP3   OH252690   3.918   2.642   0.343  0.0736  0.1470  0.3888
10400TIP3    H152691   3.982   2.571   0.337  0.4551  0.4644  0.6081
10400TIP3    H252692   3.935   2.682   0.429 -1.1321 -0.4315  0.9179
10401TIP3   OH252693   6.181   5.282   3.337  0.5246  0.1175 -0.1334
10401TIP3    H152694   6.096   5.297   3.297  0.8515 -2.2893 -1.9342
10401TIP3    H252695   6.244   5.291   3.265  1.5747 -0.1317  0.7207
10402TIP3   OH252696   0.988   3.373   6.577  0.3658  0.2178 -0.4011
10402TIP3    H152697   0.896   3.351   6.560  0.1024  0.2593  0.8417
10402TIP3    H252698   1.026   3.388   6.490  0.1371 -3.3953 -1.2887
10403TIP3   OH252699   1.180   5.727  15.704  0.2573  0.1854  0.5172
10403TIP3    H152700   1.255   5.733  15.764  0.4792  1.8731  0.1097
10403TIP3    H252701   1.191   5.642  15.661  3.0847  1.1865 -0.9706
10404TIP3   OH252702   6.838   4.810  12.692  0.2883  0.1885  0.0519
10404TIP3    H152703   6.867   4.759  12.767  1.3222 -0.8011 -0.9946
10404TIP3    H252704   6.765   4.862  12.726  0.5898 -0.3898  1.6781
10405TIP3   OH252705   5.224   3.800  11.442  0.1627  1.0512  0.4182
10405TIP3    H152706   5.312   3.799  11.479  0.5428  2.0581 -0.4089
10405TIP3    H252707   5.216   3.716  11.396  0.7670  1.0356  0.3362
10406TIP3   OH252708   2.042   0.196   3.487 -0.3813 -0.0999 -0.0584
10406TIP3    H152709   2.117   0.192   3.427 -0.4537 -1.9683 -0.0876
10406TIP3    H252710   2.079   0.228   3.569  0.5274 -1.1687 -0.0176
10407TIP3   OH252711   0.162   6.820   2.112  1.1162 -0.0909 -0.3318
10407TIP3    H152712   0.070   6.796   2.101  1.3425 -0.9678 -0.4496
10407TIP3    H252713   0.209   6.737   2.099  1.7880 -0.0746  1.6867
10408TIP3   OH252714   0.556   4.459   6.580 -0.6143  0.2054 -0.3024
10408TIP3    H152715   0.486   4.429   6.521 -1.9354  1.7835  0.3876
10408TIP3    H252716   0.589   4.538   6.539 -0.9674  0.8464  0.6255
10409TIP3   OH252717   3.722   0.601  14.098 -0.1075  0.0004 -0.2000
10409TIP3    H152718   3.686   0.604  14.010 -0.1199  0.4449 -0.1826
10409TIP3    H252719   3.681   0.675  14.143  2.7715  2.2226 -0.9290
10410TIP3   OH252720   4.012   3.163  16.021  0.1277  0.1285  0.0441
10410TIP3    H152721   3.924   3.149  15.985  0.1413 -0.8116  0.3362
10410TIP3    H252722   4.042   3.075  16.045  0.0089  0.7249  2.5886
10411TIP3   OH252723   1.428   0.022   0.709  0.0021 -0.2238 -0.1572
10411TIP3    H152724   1.401   0.097   0.763 -0.3884 -1.5440  1.5956
10411TIP3    H252725   1.497   0.056   0.653 -1.7099  1.9988 -1.0651
10412TIP3   OH252726   4.414   4.838   5.545  0.2080 -0.1306 -0.0501
10412TIP3    H152727   4.445   4.877   5.463  1.7409 -2.5914 -0.7522
10412TIP3    H252728   4.338   4.785   5.519 -1.1464  1.3575  0.6947
10413TIP3   OH252729   5.159   5.397   2.068  0.0140  0.5483 -0.0264
10413TIP3    H152730   5.189   5.334   2.133 -1.7744 -0.5259 -0.1892
10413TIP3    H252731   5.205   5.372   1.988 -0.0798 -0.0487  0.1012
10414TIP3   OH252732   5.534   1.669  14.790 -0.4179 -0.2226  0.3608
10414TIP3    H152733   5.613   1.629  14.825 -0.8367 -0.6301  0.8539
10414TIP3    H252734   5.538   1.652  14.695 -0.3964 -1.1115  0.5102
10415TIP3   OH252735   5.291   1.802  15.906  0.4300  0.4850 -0.0036
10415TIP3    H152736   5.258   1.869  15.846  0.8158  0.9424  0.2877
10415TIP3    H252737   5.214   1.750  15.929  0.4619 -0.4233 -1.7860
10416TIP3   OH252738   5.827   6.157   2.675 -0.0208 -0.6861  0.2648
10416TIP3    H152739   5.867   6.162   2.588 -0.2107 -0.0659  0.2044
10416TIP3    H252740   5.838   6.066   2.702  1.9163 -0.4171  0.4908
10417TIP3   OH252741   5.677   4.351  14.139 -0.1125  0.2360 -0.6933
10417TIP3    H152742   5.590   4.326  14.172 -0.1709 -3.6813 -3.1525
10417TIP3    H252743   5.673   4.333  14.045  3.2615  0.2754 -0.9664
10418TIP3   OH252744   2.706   2.042   3.531  0.2655  0.2880 -0.4545
10418TIP3    H152745   2.685   2.098   3.456 -0.1486  0.2879 -0.3400
10418TIP3    H252746   2.720   1.955   3.493  0.9745  0.4744 -0.6410
10419TIP3   OH252747   4.888   1.819   6.161  0.2916  0.6346 -0.1084
10419TIP3    H152748   4.874   1.731   6.195 -0.2974  0.0109 -1.8662
10419TIP3    H252749   4.939   1.863   6.230 -0.6931 -0.5752  1.4694
10420TIP3   OH252750   3.716   3.247   4.905  0.4743  0.4563  0.4194
10420TIP3    H152751   3.647   3.267   4.968  1.2871  1.0356  1.1537
10420TIP3    H252752   3.763   3.173   4.943  0.1443 -0.0711 -0.1776
10421TIP3   OH252753   3.095   0.169   3.930  0.1665 -0.8426 -0.1424
10421TIP3    H152754   3.068   0.198   4.017 -0.2667 -0.7097 -0.3210
10421TIP3    H252755   3.168   0.109   3.947  2.4605  1.7964  0.1893
10422TIP3   OH252756   3.379   2.103  11.990 -0.3183  0.0411 -0.3445
10422TIP3    H152757   3.303   2.094  12.048 -1.0869 -0.0941 -1.3622
10422TIP3    H252758   3.441   2.038  12.024 -0.6013  0.2168  0.5587
10423TIP3   OH252759   1.963   1.893   0.535  0.4525  0.5465  0.4614
10423TIP3    H152760   1.976   1.936   0.450 -3.6444 -0.3648 -0.8214
10423TIP3    H252761   1.915   1.957   0.586 -1.1218 -0.5434  0.3975
10424TIP3   OH252762   2.009   3.199   1.026  0.1247  0.2892 -0.3600
10424TIP3    H152763   2.049   3.214   0.940 -0.6307 -0.2757 -0.8240
10424TIP3    H252764   1.919   3.172   1.006  0.0156 -0.0919  0.5998
10425TIP3   OH252765   3.903   1.747  13.019  0.2608 -0.2604  0.0793
10425TIP3    H152766   3.845   1.822  13.003 -0.1149 -0.4007  0.7292
10425TIP3    H252767   3.869   1.708  13.099  1.5174 -0.1038  0.7196
10426TIP3   OH252768   5.372   2.019  16.508  0.3842  0.1638 -0.5541
10426TIP3    H152769   5.369   1.924  16.515 -0.5955  0.1361 -1.1586
10426TIP3    H252770   5.427   2.047  16.581 -1.5927 -0.6988  1.3944
10427TIP3   OH252771   0.346   2.064  16.887 -0.1489 -0.0888 -0.1249
10427TIP3    H152772   0.328   2.114  16.966 -1.0960  0.6410 -0.7852
10427TIP3    H252773   0.403   1.992  16.917 -0.7526 -0.0240  1.2615
10428TIP3   OH252774   4.931   2.807   1.625 -0.0850  0.4359 -0.0193
10428TIP3    H152775   4.930   2.791   1.719 -0.2852 -0.2536 -0.1338
10428TIP3    H252776   4.941   2.902   1.617  2.0051  0.3335  0.6939
10429TIP3   OH252777   6.112   3.644   5.333 -0.1431 -0.2225 -0.1220
10429TIP3    H152778   6.034   3.659   5.386 -1.8207  0.8036 -2.7263
10429TIP3    H252779   6.158   3.573   5.378 -3.3292 -1.9319  0.6927
10430TIP3   OH252780   3.025   4.866  14.838  0.1520 -0.1339 -0.5132
10430TIP3    H152781   3.008   4.918  14.760  0.7751  1.8395  0.5980
10430TIP3    H252782   2.950   4.882  14.895  1.0845  0.8653  0.4826
10431TIP3   OH252783   2.932   1.769   0.214  0.3747  0.0141 -0.6638
10431TIP3    H152784   2.965   1.858   0.209 -0.0667  0.1358 -1.4990
10431TIP3    H252785   2.882   1.767   0.296 -0.2329  0.7553 -1.0012
10432TIP3   OH252786   3.002   1.779  10.538  0.3446 -0.3619  0.0983
10432TIP3    H152787   3.068   1.814  10.598 -0.4028 -0.5882  1.0957
10432TIP3    H252788   2.960   1.856  10.500 -0.8343 -0.1085  1.7700
10433TIP3   OH252789   5.682   6.528   5.600  0.6114 -0.1008 -0.1903
10433TIP3    H152790   5.702   6.556   5.511  0.4859  0.4020 -0.0614
10433TIP3    H252791   5.665   6.609   5.648  0.2392 -0.3926  0.1815
10434TIP3   OH252792   0.614   4.803   3.759 -0.5731 -0.1394  0.2420
10434TIP3    H152793   0.706   4.813   3.783 -1.0876  0.6354  2.1501
10434TIP3    H252794   0.606   4.847   3.675  1.0962 -1.6606 -0.7750
10435TIP3   OH252795   0.863   6.010   4.495 -0.0964 -0.0666  1.0299
10435TIP3    H152796   0.835   5.920   4.478 -0.1074 -0.0369  0.8944
10435TIP3    H252797   0.866   6.015   4.591 -0.0114 -0.2372  1.0372
10436TIP3   OH252798   6.183   4.937  15.050 -0.5208 -0.3071 -0.3575
10436TIP3    H152799   6.162   4.849  15.082  0.9410 -0.6099 -0.1509
10436TIP3    H252800   6.237   4.975  15.119  0.9032 -0.1798 -1.4870
10437TIP3   OH252801   4.639   2.169  12.944  0.2515 -0.3721  0.4992
10437TIP3    H152802   4.613   2.110  12.873  1.1027 -0.4409  0.2217
10437TIP3    H252803   4.735   2.169  12.940  0.2534  1.8549 -0.1706
10438TIP3   OH252804   5.483   5.400   4.653  0.2617  0.3753  0.1320
10438TIP3    H152805   5.516   5.406   4.743 -0.1982 -0.2329  0.3494
10438TIP3    H252806   5.506   5.312   4.625 -2.4417 -0.6281  0.8227
10439TIP3   OH252807   3.604   4.546   4.902 -0.4009 -0.8416  0.0759
10439TIP3    H152808   3.620   4.478   4.967 -1.6584 -1.9086 -0.6872
10439TIP3    H252809   3.516   4.578   4.922 -1.0975 -1.6714 -1.4853
10440TIP3   OH252810   2.370   3.599   1.653 -0.3652  0.1022  0.1552
10440TIP3    H152811   2.459   3.565   1.662 -0.6755 -1.3254 -1.6217
10440TIP3    H252812   2.381   3.684   1.612  0.1541 -0.5257 -1.0462
10441TIP3   OH252813   3.299   0.753  10.729 -0.2537 -0.4462  0.2893
10441TIP3    H152814   3.394   0.741  10.722 -0.5746 -4.2374  0.4684
10441TIP3    H252815   3.289   0.827  10.788  2.6289 -0.8854  1.5126
10442TIP3   OH252816   4.782   5.099  12.514  0.5100  0.1810 -0.2810
10442TIP3    H152817   4.792   5.046  12.436  2.0638 -1.3901  0.9068
10442TIP3    H252818   4.693   5.135  12.508 -0.9973 -3.2327 -0.7817
10443TIP3   OH252819   4.188   5.535  16.097 -0.1049  0.1774 -0.3722
10443TIP3    H152820   4.135   5.591  16.154 -0.4592  0.1473 -0.6662
10443TIP3    H252821   4.155   5.552  16.009 -2.5495 -2.8842 -0.2329
10444TIP3   OH252822   0.821   1.655   1.152  0.1519 -0.2032  0.6504
10444TIP3    H152823   0.883   1.598   1.106  2.8640 -0.0054  3.6455
10444TIP3    H252824   0.742   1.603   1.161  0.7828 -1.5470 -0.9712
10445TIP3   OH252825   6.687   4.115   4.307  0.1816 -0.4312 -0.2802
10445TIP3    H152826   6.609   4.059   4.309 -1.7398  2.0077 -2.0394
10445TIP3    H252827   6.715   4.115   4.216  1.8338 -0.6551  0.1927
10446TIP3   OH252828   4.249   4.914   0.768  0.2620  0.4122 -0.1714
10446TIP3    H152829   4.309   4.976   0.809  1.7605 -1.7326  1.0735
10446TIP3    H252830   4.292   4.829   0.778 -2.6770 -1.1500  0.1350
10447TIP3   OH252831   6.824   1.006   1.550  0.2148  0.0630 -0.2478
10447TIP3    H152832   6.892   0.992   1.484 -0.1868 -3.5248 -0.1085
10447TIP3    H252833   6.745   0.968   1.512 -0.7619  0.6222  1.1317
10448TIP3   OH252834   3.256   5.538   2.850 -0.0924  0.1362 -0.1280
10448TIP3    H152835   3.299   5.464   2.805 -1.0370  0.1585 -1.0964
10448TIP3    H252836   3.243   5.507   2.939 -0.3771 -0.8467 -0.4922
10449TIP3   OH252837   1.034   0.215  16.605  0.7116  0.5021  0.4547
10449TIP3    H152838   0.971   0.144  16.612  0.6639  0.4367 -0.4860
10449TIP3    H252839   1.089   0.207  16.683  0.4897 -0.3524  0.5281
10450TIP3   OH252840   5.187   6.786  14.327  0.4837 -0.2600  0.5115
10450TIP3    H152841   5.246   6.819  14.259  0.4283  1.5005  1.2725
10450TIP3    H252842   5.119   6.853  14.334  0.9410  0.0518  2.8665
10451TIP3   OH252843   3.888   6.556  16.915 -0.2756  0.0575 -0.0418
10451TIP3    H152844   3.974   6.556  16.959  0.0185 -0.3915 -0.6117
10451TIP3    H252845   3.885   6.473  16.869 -0.9493  0.1544 -0.1745
10452TIP3   OH252846   4.273   3.543  11.983 -0.0511 -0.3164 -0.0417
10452TIP3    H152847   4.350   3.504  11.940  0.0477  0.5585 -0.6923
10452TIP3    H252848   4.234   3.471  12.032  1.8359 -0.5148  1.2603
10453TIP3   OH252849   3.425   1.165  15.638  0.1701 -0.0360 -0.1724
10453TIP3    H152850   3.357   1.220  15.677 -1.0333 -0.3322 -1.7451
10453TIP3    H252851   3.499   1.171  15.699  0.2890  3.6758 -0.4296
10454TIP3   OH252852   2.446   6.559   3.703  0.3914  0.1060 -0.1970
10454TIP3    H152853   2.400   6.630   3.658  0.4492  0.1060 -0.2556
10454TIP3    H252854   2.507   6.525   3.638 -3.0275 -3.3171 -2.0131
10455TIP3   OH252855   2.094   5.929   1.511 -0.1295 -0.6083 -0.2529
10455TIP3    H152856   2.116   5.895   1.425 -2.7147 -2.4614 -0.3011
10455TIP3    H252857   2.085   6.024   1.498 -0.6815 -0.8755 -2.0754
10456TIP3   OH252858   0.397   4.971  16.616 -0.3291 -0.0061 -0.1607
10456TIP3    H152859   0.309   5.008  16.618  0.5508  2.1896  0.9132
10456TIP3    H252860   0.432   4.997  16.531 -0.3606 -0.0092 -0.1740
10457TIP3   OH252861   1.343   1.575   4.041  0.0327 -0.1026  0.2553
10457TIP3    H152862   1.256   1.540   4.024  0.0550 -1.1996  2.0514
10457TIP3    H252863   1.341   1.599   4.134  1.4276  0.5379  0.1476
10458TIP3   OH252864   5.162   0.592   2.992  0.0676  0.6503 -0.4489
10458TIP3    H152865   5.130   0.505   2.972  0.3408  0.3888  0.2313
10458TIP3    H252866   5.147   0.642   2.912 -0.0699 -0.0217 -0.8480
10459TIP3   OH252867   2.119   3.309  15.045 -0.3340 -0.0590  0.1140
10459TIP3    H152868   2.068   3.389  15.063 -0.4008  0.2160 -1.2360
10459TIP3    H252869   2.203   3.341  15.012 -0.4329 -0.5384 -0.6305
10460TIP3   OH252870   0.429   1.420  16.993  0.3075  0.2077  0.2915
10460TIP3    H152871   0.515   1.463  16.996  0.4678 -0.1151  0.4550
10460TIP3    H252872   0.371   1.476  17.043  0.6008  0.0436  0.8280
10461TIP3   OH252873   0.980   6.286   4.151  0.3043  0.1098  0.3711
10461TIP3    H152874   0.923   6.222   4.107  1.2701 -0.2941 -0.3439
10461TIP3    H252875   0.989   6.252   4.240  0.1103 -0.2728  0.2489
10462TIP3   OH252876   0.415   6.057  14.524 -0.5306  0.4569 -0.4833
10462TIP3    H152877   0.453   6.120  14.463  0.4508  0.1498 -0.2149
10462TIP3    H252878   0.487   5.997  14.544 -1.3278 -0.5009 -0.4071
10463TIP3   OH252879   3.539   0.798   3.049  0.1134 -0.1455  0.1554
10463TIP3    H152880   3.501   0.718   3.012 -0.5584  0.0288  0.4429
10463TIP3    H252881   3.621   0.811   3.001 -0.1818 -0.5443 -0.4645
10464TIP3   OH252882   5.041   0.487  16.208 -0.4537  1.1538 -0.5109
10464TIP3    H152883   5.003   0.574  16.212 -2.8621  0.1467  0.3191
10464TIP3    H252884   4.976   0.433  16.163  0.3607 -0.4997  0.1805
10465TIP3   OH252885   5.830   1.323   1.445 -0.4303 -0.3695 -0.1611
10465TIP3    H152886   5.745   1.359   1.470  0.2219  1.5145 -0.5020
10465TIP3    H252887   5.833   1.331   1.350  0.1515 -0.3643 -0.1491
10466TIP3   OH252888   4.790   3.654   5.765  0.2124 -0.2195  0.4573
10466TIP3    H152889   4.805   3.597   5.689 -0.4235 -0.6024  0.6118
10466TIP3    H252890   4.876   3.660   5.808  0.5145 -0.2171 -0.1395
10467TIP3   OH252891   3.066   1.588   2.598 -0.2239  0.2236  0.3913
10467TIP3    H152892   3.061   1.570   2.692 -1.0438  0.4771  0.4027
10467TIP3    H252893   3.118   1.516   2.562  1.5963  1.0207  1.2718
10468TIP3   OH252894   0.020   4.013  13.653  0.0344 -0.1911 -0.4325
10468TIP3    H152895  -0.046   4.082  13.657 -0.7444 -0.8971 -0.7282
10468TIP3    H252896   0.072   4.034  13.575 -0.3271 -0.0563 -0.6388
10469TIP3   OH252897   3.419   3.539   0.267  0.0399 -0.3717 -0.7662
10469TIP3    H152898   3.420   3.544   0.171 -3.1746  0.0400 -0.8843
10469TIP3    H252899   3.401   3.447   0.286  0.3137 -0.3811 -0.5385
10470TIP3   OH252900   1.475   2.963   3.442  0.2411  0.5523  0.0585
10470TIP3    H152901   1.463   3.013   3.523 -2.2113 -2.1251  1.5357
10470TIP3    H252902   1.411   3.000   3.381 -0.0011  0.6891  0.3905
10471TIP3   OH252903   0.848   4.952  12.256 -0.3342 -0.3617 -0.1317
10471TIP3    H152904   0.784   4.880  12.265  0.2943 -0.8534  0.5558
10471TIP3    H252905   0.933   4.910  12.272  0.0332  0.5429  0.3414
10472TIP3   OH252906   1.027   3.667   2.239 -0.1584 -0.4053 -0.4900
10472TIP3    H152907   1.053   3.725   2.311  0.3971  0.1697 -1.1342
10472TIP3    H252908   1.049   3.580   2.270 -2.5358 -0.4992  1.1674
10473TIP3   OH252909   5.754   0.044   4.183 -0.0636  0.1577  0.4607
10473TIP3    H152910   5.743   0.059   4.277  0.6230  0.5340  0.4804
10473TIP3    H252911   5.689  -0.024   4.163 -0.1161 -0.0338  1.2320
10474TIP3   OH252912   5.671   5.737  16.056 -0.3809 -0.0695 -0.1596
10474TIP3    H152913   5.724   5.657  16.059  0.4320  0.4693  0.5017
10474TIP3    H252914   5.630   5.743  16.142 -1.9050 -0.7138 -0.8181
10475TIP3   OH252915   5.056   3.381  11.141  0.1944 -0.3273 -0.0462
10475TIP3    H152916   5.032   3.288  11.152 -1.5851 -0.0891 -1.3576
10475TIP3    H252917   5.103   3.384  11.058  1.9401 -0.2817  0.9019
10476TIP3   OH252918   5.745   0.365  15.296  0.1300  0.3296  0.3333
10476TIP3    H152919   5.753   0.454  15.263  0.9007 -0.3224 -1.3561
10476TIP3    H252920   5.655   0.339  15.273 -0.1483  0.7150  0.9710
10477TIP3   OH252921   3.425   2.857   0.669 -0.1789  0.0814  0.3334
10477TIP3    H152922   3.374   2.935   0.690  0.8735  0.9489 -0.1779
10477TIP3    H252923   3.373   2.811   0.602 -0.9055  0.2248  0.7907
10478TIP3   OH252924   0.638   5.386  13.713 -0.3765 -0.1936 -0.6895
10478TIP3    H152925   0.694   5.462  13.732  1.4201 -0.5069 -3.9687
10478TIP3    H252926   0.700   5.317  13.691 -2.0313 -2.0649  0.2956
10479TIP3   OH252927   3.084   0.996   0.158 -0.2798  0.5143 -0.1374
10479TIP3    H152928   3.078   0.974   0.251  0.5991  0.4703 -0.0836
10479TIP3    H252929   3.071   0.913   0.112 -1.5224  0.6683 -0.0892
10480TIP3   OH252930   4.719   2.286   1.749  0.9898 -0.0687  0.2036
10480TIP3    H152931   4.629   2.255   1.754  1.2684 -1.0626 -0.5730
10480TIP3    H252932   4.718   2.355   1.683  0.7424  0.1420  0.4282
10481TIP3   OH252933   1.384   0.925  12.649 -0.0661  0.0598  0.3200
10481TIP3    H152934   1.377   0.892  12.738  0.6442 -1.1653 -0.0631
10481TIP3    H252935   1.343   1.012  12.653 -0.2654 -0.0726  1.7683
10482TIP3   OH252936   0.360   6.547   4.688 -0.6110  0.1648  0.3652
10482TIP3    H152937   0.327   6.586   4.769 -2.5701 -0.2571 -0.1815
10482TIP3    H252938   0.400   6.620   4.641 -1.1268  0.8014  0.8832
10483TIP3   OH252939   3.544   3.819   4.334  0.1485  0.6178 -0.6451
10483TIP3    H152940   3.583   3.849   4.416 -1.3004  2.3504 -0.5259
10483TIP3    H252941   3.588   3.870   4.267  1.1816 -0.6464 -0.9680
10484TIP3   OH252942   1.542   6.067   1.802  0.1432 -0.3144  0.4335
10484TIP3    H152943   1.506   6.079   1.889 -1.8075  2.1622 -0.6031
10484TIP3    H252944   1.470   6.088   1.742  1.5529 -1.3998 -1.8129
10485TIP3   OH252945   6.272   2.544   5.044 -0.1145 -0.3162  0.3186
10485TIP3    H152946   6.325   2.619   5.018 -0.0584 -0.5402 -0.2279
10485TIP3    H252947   6.326   2.468   5.023 -0.4802 -0.5334  0.1519
10486TIP3   OH252948   3.412   5.270   4.500 -0.1737 -0.0145  0.1999
10486TIP3    H152949   3.373   5.203   4.443  0.2039 -1.8381  1.9428
10486TIP3    H252950   3.472   5.318   4.444  0.2721 -1.7971 -0.9381
10487TIP3   OH252951   5.274   4.896   4.642 -0.2091  0.0064  0.0402
10487TIP3    H152952   5.332   4.966   4.612  0.4719 -0.7426 -0.4197
10487TIP3    H252953   5.188   4.920   4.607 -0.5255  1.8322  1.8483
10488TIP3   OH252954   3.668   4.948  12.910 -0.3644  0.4562 -0.8436
10488TIP3    H152955   3.740   5.009  12.894  0.5938 -0.2734  0.4572
10488TIP3    H252956   3.592   5.004  12.924  0.8476  1.5609  2.2443
10489TIP3   OH252957   1.205   3.709  11.215 -0.6162  0.2171 -0.0278
10489TIP3    H152958   1.183   3.620  11.187 -1.2419  0.0683  0.9217
10489TIP3    H252959   1.300   3.713  11.205 -0.3492 -1.1383  1.5220
10490TIP3   OH252960   5.816   0.846  12.745  0.7833  0.0805 -0.4798
10490TIP3    H152961   5.866   0.897  12.681  0.9204 -2.4142 -2.5782
10490TIP3    H252962   5.759   0.791  12.691 -0.3013 -0.9921  1.6457
10491TIP3   OH252963   3.665   1.451  17.145 -0.0939 -0.3824 -0.3469
10491TIP3    H152964   3.709   1.366  17.148  1.2986  0.3234  0.1987
10491TIP3    H252965   3.585   1.435  17.095 -0.7955 -2.4279  1.3080
10492TIP3   OH252966   3.853   1.246  16.498  0.0215 -0.3513  0.1693
10492TIP3    H152967   3.884   1.331  16.529 -3.0086  1.2566 -0.8253
10492TIP3    H252968   3.914   1.224  16.427  0.6467  1.1744  0.1876
10493TIP3   OH252969   5.555   4.828  15.396 -0.0182  0.7671  0.6541
10493TIP3    H152970   5.520   4.845  15.484 -0.6257  2.2074  0.1671
10493TIP3    H252971   5.607   4.748  15.406  2.0866  2.2682  2.9482
10494TIP3   OH252972   0.020   3.240  13.659  0.1024 -0.1637  0.0131
10494TIP3    H152973  -0.075   3.247  13.670  0.3440  0.9514  2.0765
10494TIP3    H252974   0.032   3.167  13.599 -2.1001  0.8502 -1.8612
10495TIP3   OH252975   0.851   1.310  16.258 -0.2761 -0.0972  0.1274
10495TIP3    H152976   0.880   1.345  16.174  2.2065 -0.1354  0.8676
10495TIP3    H252977   0.853   1.215  16.247 -0.3869 -0.0942  0.0857
10496TIP3   OH252978   5.044   3.790   1.543 -0.1994 -0.2765 -0.2219
10496TIP3    H152979   5.063   3.807   1.451  3.4358  1.2584  0.6136
10496TIP3    H252980   5.061   3.697   1.555  0.8651 -0.1726 -0.8255
10497TIP3   OH252981   3.127   5.556  16.350  0.3121 -0.3693  0.2102
10497TIP3    H152982   3.116   5.642  16.310  0.6321  0.1227  1.1269
10497TIP3    H252983   3.104   5.494  16.282 -1.8578  0.4613  0.1062
10498TIP3   OH252984   2.259   2.127  15.586 -0.2004  0.0712  0.4165
10498TIP3    H152985   2.251   2.087  15.500 -1.5319 -1.9064  1.3932
10498TIP3    H252986   2.353   2.147  15.595  0.0045 -0.0002 -1.3183
10499TIP3   OH252987   2.228   4.807  14.307  0.0937 -0.3611  0.8139
10499TIP3    H152988   2.235   4.884  14.364  0.6261 -0.7252  1.2577
10499TIP3    H252989   2.270   4.737  14.357 -1.3293 -1.2086  0.8866
10500TIP3   OH252990   4.786   3.593  11.247 -0.1604  0.0166 -0.0841
10500TIP3    H152991   4.784   3.499  11.232 -0.2809 -0.2011  1.1698
10500TIP3    H252992   4.880   3.615  11.248  0.0228 -0.5956  2.2967
10501TIP3   OH252993   2.514   1.138   0.983 -0.1290 -0.0830  0.2206
10501TIP3    H152994   2.541   1.116   0.894 -1.6577 -1.0815 -0.0330
10501TIP3    H252995   2.437   1.195   0.971 -0.0780  0.1378  0.9092
10502TIP3   OH252996   5.610   2.447   1.802 -0.0204  0.2690 -0.3187
10502TIP3    H152997   5.625   2.494   1.720 -0.4463 -0.0573 -0.5851
10502TIP3    H252998   5.584   2.359   1.775  0.6669 -0.0968  0.1724
10503TIP3   OH252999   3.069   1.655  16.414 -0.1207 -0.6915  0.0599
10503TIP3    H153000   3.010   1.677  16.341  1.2183  2.0683 -0.3081
10503TIP3    H253001   3.133   1.595  16.375  0.5983  0.7752 -1.1146
10504TIP3   OH253002   1.155   3.341  13.783 -0.1096 -0.0368 -0.4989
10504TIP3    H153003   1.111   3.387  13.855  0.1440  0.2174 -0.5077
10504TIP3    H253004   1.248   3.344  13.806 -0.0961 -0.6080 -0.4622
10505TIP3   OH253005   1.033   2.368   6.272  0.1721 -0.1757 -0.4284
10505TIP3    H153006   1.126   2.346   6.279  1.2273  3.5558 -0.5780
10505TIP3    H253007   1.005   2.383   6.363 -0.1415 -0.7016 -0.4334
10506TIP3   OH253008   2.293   0.614  16.373 -0.7998 -0.2975  0.2497
10506TIP3    H153009   2.225   0.608  16.440 -1.7384 -0.1763 -0.6595
10506TIP3    H253010   2.252   0.576  16.294 -1.0553  2.7408 -1.2285
10507TIP3   OH253011   1.828   6.818   1.665 -0.4432 -0.1011 -0.2141
10507TIP3    H153012   1.759   6.882   1.645 -1.0918 -0.8358 -0.3661
10507TIP3    H253013   1.880   6.814   1.584 -0.9179 -0.3996 -0.5108
10508TIP3   OH253014   2.546   3.529  15.518  0.1348  0.0163  0.4542
10508TIP3    H153015   2.597   3.563  15.445  3.3500 -1.6449  1.7288
10508TIP3    H253016   2.540   3.602  15.580 -1.3616  0.9858 -0.7592
10509TIP3   OH253017   3.175   3.428  12.685 -0.4325  0.1500  0.0002
10509TIP3    H153018   3.134   3.513  12.678 -0.0531  0.2204 -1.6321
10509TIP3    H253019   3.136   3.376  12.615  0.5371 -0.4921 -0.0888
10510TIP3   OH253020   1.873   5.359   1.959  0.3193  0.6129  0.8389
10510TIP3    H153021   1.947   5.420   1.961  0.6047  0.2755  0.5653
10510TIP3    H253022   1.810   5.400   1.899  0.0626  1.1499  1.4649
10511TIP3   OH253023   2.244   4.159  14.690  0.3666  0.6298  0.3704
10511TIP3    H153024   2.244   4.182  14.597  0.3062  0.6199  0.3680
10511TIP3    H253025   2.170   4.206  14.727  1.0714  1.5637  0.6463
10512TIP3   OH253026   0.471   0.530  13.100  0.5882 -0.0989 -0.0877
10512TIP3    H153027   0.422   0.586  13.040 -0.4673 -0.1147  0.7260
10512TIP3    H253028   0.545   0.583  13.128  0.0838  0.5837 -0.0115
10513TIP3   OH253029   3.723   5.977   2.860  0.3791 -0.0950  0.0207
10513TIP3    H153030   3.700   6.027   2.782  1.6126  0.7174  0.1612
10513TIP3    H253031   3.732   5.887   2.828 -1.5808 -0.2456 -0.2760
10514TIP3   OH253032   2.934   4.805   2.973  0.0902 -0.1992  0.5098
10514TIP3    H153033   2.849   4.761   2.979 -0.7784  1.2628 -0.3271
10514TIP3    H253034   2.993   4.752   3.025 -0.7723 -2.6200 -0.8229
10515TIP3   OH253035   3.362   6.776  14.107  0.5253  0.1428  0.0889
10515TIP3    H153036   3.350   6.850  14.047 -1.2799  1.2178  1.6619
10515TIP3    H253037   3.376   6.817  14.192 -3.1797 -1.2086  1.5264
10516TIP3   OH253038   0.194   1.176  16.973  0.1065 -0.3176 -0.1898
10516TIP3    H153039   0.152   1.142  16.894 -0.8694 -1.3381  0.7246
10516TIP3    H253040   0.262   1.236  16.941 -1.3595  0.5975 -1.7574
10517TIP3   OH253041   0.193   4.770  16.425 -0.4863 -0.0766  0.1789
10517TIP3    H153042   0.239   4.824  16.361 -1.0978  0.7819  0.4332
10517TIP3    H253043   0.174   4.831  16.497 -2.4619 -0.2660 -0.1390
10518TIP3   OH253044   5.993   2.859   4.256 -0.3003 -0.2358  0.0810
10518TIP3    H153045   6.061   2.809   4.302 -0.6482 -0.6140  0.1913
10518TIP3    H253046   6.035   2.942   4.235 -0.1516 -0.0380  1.1298
10519TIP3   OH253047   4.016   2.674  16.514  0.6496 -0.1835  0.2955
10519TIP3    H153048   4.041   2.747  16.571  2.2302  0.6032 -1.3161
10519TIP3    H253049   4.090   2.613  16.518 -0.1982 -1.2135  0.7940
10520TIP3   OH253050   0.980   6.666   0.244 -0.2519  0.0083 -0.1368
10520TIP3    H153051   0.955   6.660   0.152  0.6498  0.9186 -0.4643
10520TIP3    H253052   0.921   6.731   0.282 -1.9482 -1.7685  0.4540
10521TIP3   OH253053   4.486   4.885   2.215 -0.0261  0.3401  0.0236
10521TIP3    H153054   4.401   4.912   2.250 -0.8483 -1.1779 -0.7378
10521TIP3    H253055   4.529   4.967   2.192 -1.0496  1.1696  0.9306
10522TIP3   OH253056   3.147   6.001  13.107 -0.2859  0.9078 -0.5554
10522TIP3    H153057   3.170   6.079  13.056  0.7876  0.6902 -0.4327
10522TIP3    H253058   3.092   5.949  13.048 -1.2434  1.8813 -0.5371
10523TIP3   OH253059   4.889   1.634  12.495  0.0050 -0.7122 -0.8746
10523TIP3    H153060   4.947   1.653  12.569 -0.8000 -1.8086  0.0782
10523TIP3    H253061   4.946   1.636  12.418  0.8832  0.3567 -0.2281
10524TIP3   OH253062   0.553   6.703   1.181 -0.1125  0.5619 -0.2573
10524TIP3    H153063   0.619   6.744   1.124  0.6645 -1.1772 -0.6901
10524TIP3    H253064   0.557   6.610   1.158 -2.5989  0.3750 -0.1346
10525TIP3   OH253065   2.960   4.721   0.427 -0.0358  0.2252 -0.3747
10525TIP3    H153066   2.911   4.782   0.483 -0.6597  0.4619 -1.1623
10525TIP3    H253067   2.964   4.764   0.342  0.3938 -0.3928 -0.6765
10526TIP3   OH253068   2.971   0.302   0.941  0.1235 -0.2877 -0.0477
10526TIP3    H153069   2.940   0.374   0.996  0.6961  0.5917 -0.8540
10526TIP3    H253070   2.915   0.306   0.863  1.4863  0.5924 -1.0077
10527TIP3   OH253071   4.843   1.261   4.576  0.0830  0.1397  0.5198
10527TIP3    H153072   4.920   1.210   4.601  0.1893 -0.8243 -1.5550
10527TIP3    H253073   4.770   1.220   4.623  0.6502  0.3165  1.5774
10528TIP3   OH253074   2.911   4.172   5.288  0.1272  0.3427  0.7136
10528TIP3    H153075   2.881   4.249   5.335 -0.7096  0.6945 -0.3651
10528TIP3    H253076   2.835   4.143   5.237  1.2735  0.6425 -1.2896
10529TIP3   OH253077   2.691   3.228   1.492 -0.6059  0.9895  0.4212
10529TIP3    H153078   2.670   3.192   1.578  0.9295  1.7699  1.1555
10529TIP3    H253079   2.721   3.152   1.441 -0.1189  0.7571  1.0480
10530TIP3   OH253080   6.339   0.872   5.789  0.4529 -0.2999 -0.0932
10530TIP3    H153081   6.393   0.797   5.766  0.7249 -0.7099  1.7198
10530TIP3    H253082   6.399   0.947   5.788  0.6229 -0.4354  0.0155
10531TIP3   OH253083   3.409   4.683   5.061  0.1828 -0.2686  0.2475
10531TIP3    H153084   3.419   4.615   5.128  1.9177  1.4260  1.8095
10531TIP3    H253085   3.349   4.747   5.100 -1.2779 -0.7253 -1.1320
10532TIP3   OH253086   0.857   4.993  14.084  0.2009 -0.2086  0.6624
10532TIP3    H153087   0.876   4.937  14.009 -1.2814  0.5911 -0.3465
10532TIP3    H253088   0.773   4.963  14.117 -0.2628  0.9274  0.5626
10533TIP3   OH253089   6.179   3.202  16.540 -0.3277 -0.2514  0.4255
10533TIP3    H153090   6.265   3.222  16.503 -0.5471  0.4691  0.2954
10533TIP3    H253091   6.169   3.107  16.527  0.3172 -0.2885  0.1730
10534TIP3   OH253092   1.853   3.677   1.058  0.5256  0.1336 -0.1407
10534TIP3    H153093   1.810   3.673   0.973 -0.3616 -0.4593  0.3294
10534TIP3    H253094   1.888   3.588   1.072 -1.1942 -0.3974  1.0511
10535TIP3   OH253095   2.346   3.627   0.165  0.1914  0.5626 -0.1198
10535TIP3    H153096   2.396   3.588   0.093  0.9390  1.1552  0.0747
10535TIP3    H253097   2.412   3.651   0.230 -0.1130  3.0252 -0.6180
10536TIP3   OH253098   0.689   1.165   2.599  0.3497 -0.3509  0.2124
10536TIP3    H153099   0.714   1.249   2.638 -0.5308 -0.5468  1.2560
10536TIP3    H253100   0.623   1.188   2.533  0.4876 -0.1774  0.1356
10537TIP3   OH253101   6.669   1.771  16.347  0.8780  0.1350  0.8419
10537TIP3    H153102   6.686   1.703  16.282  1.7707 -0.1236  1.3136
10537TIP3    H253103   6.653   1.723  16.428 -4.2972  0.2177  0.1873
10538TIP3   OH253104   1.054   0.752  15.595  0.0366 -0.0302  0.1696
10538TIP3    H153105   0.975   0.712  15.559  0.1512  0.3835 -0.5650
10538TIP3    H253106   1.076   0.698  15.671 -1.6723  0.5923  1.1917
10539TIP3   OH253107   3.353   0.969   5.595 -0.0692 -0.5904  0.0771
10539TIP3    H153108   3.261   0.985   5.574 -0.2200 -1.0133  0.3854
10539TIP3    H253109   3.390   1.055   5.612 -0.7772 -0.5282  1.4186
10540TIP3   OH253110   3.202   6.334  10.835  0.1699  0.2203  0.0506
10540TIP3    H153111   3.258   6.357  10.761  0.8833  0.4127  0.6455
10540TIP3    H253112   3.133   6.401  10.834  0.9366  1.0259  0.3724
10541TIP3   OH253113   2.461   3.437  16.287  0.4049 -0.2011  0.0370
10541TIP3    H153114   2.405   3.491  16.231  0.4053 -0.6446 -0.3972
10541TIP3    H253115   2.410   3.425  16.367  0.6009  0.8380  0.3404
10542TIP3   OH253116   1.240   1.673  16.018  0.0656 -0.5350 -0.4855
10542TIP3    H153117   1.253   1.583  16.048  1.3876 -0.0557  0.4634
10542TIP3    H253118   1.283   1.727  16.084  0.5495  0.7250 -1.7664
10543TIP3   OH253119   4.673   6.593   2.099  0.2453 -0.1025 -0.1607
10543TIP3    H153120   4.710   6.557   2.018 -1.1511 -0.0897 -0.8258
10543TIP3    H253121   4.668   6.687   2.082  1.9119  0.1967  0.7750
10544TIP3   OH253122   3.304   6.502  12.880  0.1364 -0.0805  0.0382
10544TIP3    H153123   3.238   6.476  12.943  0.2805  1.3374  0.8247
10544TIP3    H253124   3.255   6.549  12.811  0.2721  0.7875  0.5162
10545TIP3   OH253125   1.293   0.981   4.292  0.2011 -0.3064  0.8999
10545TIP3    H153126   1.277   0.920   4.365 -0.6042 -0.4483  0.6110
10545TIP3    H253127   1.348   1.050   4.330  0.0908 -0.5692  1.5469
10546TIP3   OH253128   4.319   3.830  16.141 -0.9242 -0.2292  0.0056
10546TIP3    H153129   4.336   3.818  16.234  1.0280 -0.1655 -0.2896
10546TIP3    H253130   4.276   3.749  16.113  2.0198 -2.0210  0.2387
10547TIP3   OH253131   2.799   0.661  12.301 -0.2843  0.4546  0.4172
10547TIP3    H153132   2.788   0.693  12.391  0.8352  0.4581  0.5640
10547TIP3    H253133   2.852   0.582  12.310 -0.5372  0.2062 -0.2112
10548TIP3   OH253134   3.785   1.805  11.847  0.1474 -0.1772 -0.6508
10548TIP3    H153135   3.840   1.835  11.776  0.9838 -0.1668 -0.0075
10548TIP3    H253136   3.719   1.874  11.857 -0.2068 -0.3576 -1.6506
10549TIP3   OH253137   0.731   5.745  16.687 -0.2292 -0.0026 -0.1344
10549TIP3    H153138   0.779   5.745  16.770  0.3599 -1.4240 -0.4560
10549TIP3    H253139   0.795   5.774  16.622 -0.1507 -0.6907 -0.3701
10550TIP3   OH253140   4.611   0.269  13.422  0.0221 -0.5674 -0.3480
10550TIP3    H153141   4.527   0.257  13.465 -0.6322  0.6469 -1.2136
10550TIP3    H253142   4.627   0.363  13.427  0.2990 -0.4952 -2.0021
10551TIP3   OH253143   5.455   0.315   4.801 -0.1805 -0.4036 -0.0114
10551TIP3    H153144   5.437   0.249   4.735 -2.5835 -0.9551  1.1101
10551TIP3    H253145   5.409   0.393   4.771  1.2272  0.2923 -0.4639
10552TIP3   OH253146   2.815   5.681   3.148  0.7317 -0.2487  0.2754
10552TIP3    H153147   2.876   5.741   3.106 -0.8432  0.9801 -0.3554
10552TIP3    H253148   2.752   5.659   3.080 -0.4395 -0.2063  1.3045
10553TIP3   OH253149   4.107   5.684   5.426  0.2524  0.6707  0.1738
10553TIP3    H153150   4.053   5.762   5.443  1.1830  1.9406 -2.2021
10553TIP3    H253151   4.066   5.643   5.350 -0.4866 -1.5034  1.6599
10554TIP3   OH253152   1.807   4.461  14.170 -0.1784 -0.9691 -0.1108
10554TIP3    H153153   1.875   4.439  14.106 -0.4100  0.3888 -0.8744
10554TIP3    H253154   1.737   4.398  14.153 -0.4824 -0.2698 -1.6390
10555TIP3   OH253155   4.986   1.936   5.652  0.2636 -0.1764  0.0878
10555TIP3    H153156   4.941   1.889   5.722  2.1620 -0.5730  1.1172
10555TIP3    H253157   4.983   2.027   5.680 -0.9958 -0.0135 -0.5125
10556TIP3   OH253158   5.347   0.040  14.119  0.1038 -0.2810  0.1155
10556TIP3    H153159   5.274   0.022  14.059 -0.6219  0.8090  0.6308
10556TIP3    H253160   5.401   0.103  14.073 -1.1536  1.5714  1.0651
10557TIP3   OH253161   1.226   0.396  16.454 -0.0769  0.2859  0.0116
10557TIP3    H153162   1.172   0.395  16.375  1.6363  1.6573 -1.2430
10557TIP3    H253163   1.191   0.324  16.508 -2.6338  0.6444 -1.0269
10558TIP3   OH253164   3.177   4.140   4.053  0.4477 -0.0246  0.0242
10558TIP3    H153165   3.086   4.158   4.075  0.4370  0.5757 -0.4965
10558TIP3    H253166   3.221   4.132   4.137  0.2589  1.4219  0.2749
10559TIP3   OH253167   0.659   3.444  16.410 -0.3723  0.2507 -0.1988
10559TIP3    H153168   0.685   3.400  16.491 -0.4449  0.5769  0.0068
10559TIP3    H253169   0.584   3.393  16.378 -1.0860  0.7824  0.5581
10560TIP3   OH253170   1.790   1.997  15.292  0.2850 -0.0359 -0.0465
10560TIP3    H153171   1.770   1.957  15.376  0.6585 -0.0284  0.0458
10560TIP3    H253172   1.737   2.077  15.290 -1.4157 -1.1258 -0.7485
10561TIP3   OH253173   0.981   4.108   1.740 -0.4387 -0.3025  0.5742
10561TIP3    H153174   1.004   4.076   1.652 -0.2713 -0.2780  0.6093
10561TIP3    H253175   1.060   4.151   1.771 -0.6211  0.0245  0.5861
10562TIP3   OH253176   0.125   2.881   3.492  0.2469  0.0595  0.1789
10562TIP3    H153177   0.206   2.892   3.443  0.8672  3.2914  1.6606
10562TIP3    H253178   0.057   2.919   3.436 -0.4260 -2.7384 -1.1085
10563TIP3   OH253179   4.402   1.602  16.542 -0.3211 -0.1203 -0.2290
10563TIP3    H153180   4.423   1.510  16.560 -0.7346 -0.3221 -0.7565
10563TIP3    H253181   4.323   1.618  16.594  1.2490  0.7554  2.0797
10564TIP3   OH253182   1.956   5.526  16.446  0.5464 -0.0423 -0.9128
10564TIP3    H153183   1.897   5.459  16.411  1.7206 -0.5950 -1.9416
10564TIP3    H253184   1.913   5.609  16.426  0.6165 -0.3805 -2.7116
10565TIP3   OH253185   6.311   4.891   2.023 -0.1715  0.5207 -0.4851
10565TIP3    H153186   6.319   4.984   2.000  1.8688  0.4365 -0.2649
10565TIP3    H253187   6.392   4.871   2.070 -1.4713 -0.8743  1.3146
10566TIP3   OH253188   2.855   1.212  14.037 -0.2418 -0.1206 -0.3157
10566TIP3    H153189   2.935   1.237  13.989  0.4504 -1.9462 -0.2168
10566TIP3    H253190   2.848   1.277  14.107  1.0737  0.1968 -0.4364
10567TIP3   OH253191   4.810   1.250  12.682  0.0013 -0.1721 -0.3060
10567TIP3    H153192   4.880   1.307  12.712  0.3609 -1.0282  0.5209
10567TIP3    H253193   4.782   1.203  12.760 -1.8123  0.4744 -0.5310
10568TIP3   OH253194   6.228   4.153  14.132 -0.2704 -0.0563  0.0108
10568TIP3    H153195   6.320   4.170  14.151 -0.5317  0.1505  1.1120
10568TIP3    H253196   6.223   4.057  14.123 -0.1229 -0.1621  0.9439
10569TIP3   OH253197   2.855   3.588  13.520  0.0140 -0.6337  0.0245
10569TIP3    H153198   2.874   3.512  13.575  0.2994 -1.8649 -1.7146
10569TIP3    H253199   2.846   3.660  13.583 -1.5317 -2.2870  1.8269
10570TIP3   OH253200   3.396   6.337  16.357 -0.3109 -0.1031  0.8375
10570TIP3    H153201   3.491   6.338  16.341 -0.2897 -0.7041  0.8867
10570TIP3    H253202   3.361   6.278  16.290 -0.9173  1.6851 -0.4931
10571TIP3   OH253203   1.471   2.396   2.841 -0.0671  0.5327  0.1588
10571TIP3    H153204   1.397   2.359   2.793 -0.5022  0.4189  0.8998
10571TIP3    H253205   1.522   2.320   2.869  1.0074  0.6487 -1.3684
10572TIP3   OH253206   4.853   5.941   4.349  0.1512 -0.3361 -0.4071
10572TIP3    H153207   4.897   5.861   4.377 -2.3327 -1.4171  0.7060
10572TIP3    H253208   4.768   5.939   4.393 -0.2187  2.6877 -0.7446
10573TIP3   OH253209   3.602   4.493  15.305  0.3362 -0.2816 -0.2126
10573TIP3    H153210   3.602   4.423  15.239 -0.6377 -0.4141 -0.0941
10573TIP3    H253211   3.516   4.486  15.347  0.5548  0.4497  0.3823
10574TIP3   OH253212   2.485   2.321   5.037  1.0312  0.2235  0.2439
10574TIP3    H153213   2.456   2.311   4.946 -0.5736  0.8241  0.6440
10574TIP3    H253214   2.500   2.232   5.068  1.6790  0.0195 -0.6222
10575TIP3   OH253215   4.492   6.424   0.174  0.0946 -0.2270  0.5258
10575TIP3    H153216   4.544   6.430   0.094  0.4973 -1.1708  0.7059
10575TIP3    H253217   4.511   6.336   0.208  1.0917  0.6881  2.4553
10576TIP3   OH253218   1.823   2.646   2.479  0.3093 -0.2529  0.5156
10576TIP3    H153219   1.827   2.566   2.531 -1.1831 -0.9610 -0.3872
10576TIP3    H253220   1.729   2.660   2.465  0.4344  2.3646  1.6850
10577TIP3   OH253221   6.671   2.066  15.039 -0.2380  0.5715  0.2521
10577TIP3    H153222   6.691   2.052  15.132 -2.1847  0.2251  0.6690
10577TIP3    H253223   6.753   2.049  14.994  0.8006  0.9351  1.9251
10578TIP3   OH253224   5.089   2.508  10.921  0.1536  0.3844 -0.3962
10578TIP3    H153225   5.018   2.448  10.901 -0.4655  1.3428 -1.1393
10578TIP3    H253226   5.056   2.561  10.994  0.1792  0.7000 -0.6115
10579TIP3   OH253227   1.936   3.183  16.108  0.4673 -0.0939 -0.0113
10579TIP3    H153228   1.857   3.230  16.138  0.0679 -0.6919 -0.1082
10579TIP3    H253229   1.909   3.139  16.028  1.1432  0.3683 -0.4958
10580TIP3   OH253230   5.652   4.353   2.787  0.0457  0.1557  0.1890
10580TIP3    H153231   5.631   4.444   2.765  0.4625  1.2767  3.7063
10580TIP3    H253232   5.725   4.330   2.731 -0.2431  1.9022 -0.9708
10581TIP3   OH253233   3.218   4.590   1.648 -0.2619 -0.2799  0.4667
10581TIP3    H153234   3.290   4.560   1.704 -0.0415  2.5018  1.8690
10581TIP3    H253235   3.160   4.515   1.642  1.7334 -1.9782  1.0030
10582TIP3   OH253236   6.666   3.038   0.923  0.1638 -0.0200  0.3160
10582TIP3    H153237   6.719   3.025   1.002  0.3764 -1.8954 -0.0857
10582TIP3    H253238   6.704   2.977   0.860 -0.0767  1.3698 -1.2180
10583TIP3   OH253239   2.224   6.013   3.860 -0.1990  0.1553  0.8655
10583TIP3    H153240   2.201   6.037   3.950 -0.3168  1.1159  0.5897
10583TIP3    H253241   2.151   6.045   3.807  1.1773  2.2286  0.1091
10584TIP3   OH253242   3.765   0.388   1.384  0.1757 -0.2154 -0.5515
10584TIP3    H153243   3.698   0.432   1.333 -0.7761  0.1643  0.9594
10584TIP3    H253244   3.831   0.457   1.401 -0.1779  0.0300 -0.1410
10585TIP3   OH253245   0.990   0.375  13.133  0.0597 -0.2643  0.6356
10585TIP3    H153246   0.935   0.297  13.140  0.6479 -0.9692 -1.7619
10585TIP3    H253247   0.949   0.427  13.064  2.3974 -0.8828 -1.3425
10586TIP3   OH253248   5.504   0.687   4.330 -0.1341  0.6791  0.4326
10586TIP3    H153249   5.558   0.750   4.377 -3.7497  3.7124  1.0028
10586TIP3    H253250   5.509   0.715   4.238  0.6856 -0.2571  0.1724
10587TIP3   OH253251   0.064   2.936  16.454  0.0996 -0.3305 -0.1512
10587TIP3    H153252   0.099   3.025  16.451 -0.1983 -0.2340 -0.9313
10587TIP3    H253253   0.129   2.886  16.503 -0.1298  0.4873  1.0177
10588TIP3   OH253254   4.798   1.145   6.261 -0.2769  0.2979  0.0505
10588TIP3    H153255   4.764   1.056   6.254  1.9661 -0.6624  0.7051
10588TIP3    H253256   4.797   1.178   6.171 -0.7196 -0.5284 -0.2578
10589TIP3   OH253257   1.569   6.175  12.394 -0.2309 -0.2487 -0.4776
10589TIP3    H153258   1.586   6.264  12.425  0.1403 -0.5639  0.2533
10589TIP3    H253259   1.656   6.135  12.389 -0.2352 -0.0771 -2.3767
10590TIP3   OH253260   4.100   5.478   0.719 -0.5835 -0.2132 -0.1479
10590TIP3    H153261   4.143   5.556   0.684 -1.8303  0.1852 -0.8385
10590TIP3    H253262   4.009   5.503   0.729 -1.0573 -1.6477 -0.5882
10591TIP3   OH253263   1.445   1.040  14.721  0.3006 -0.2340  0.2832
10591TIP3    H153264   1.477   1.089  14.797 -1.4623 -1.3247  1.8489
10591TIP3    H253265   1.429   0.952  14.755 -2.2730 -0.2881 -0.8402
10592TIP3   OH253266   1.056   2.795  15.680  0.2029  0.5443  0.3284
10592TIP3    H153267   0.963   2.806  15.663 -0.0051  0.1425  1.1769
10592TIP3    H253268   1.090   2.884  15.689  0.1113  0.7397 -0.9867
10593TIP3   OH253269   6.405   3.091   5.783  0.5960 -0.1390 -0.3461
10593TIP3    H153270   6.473   3.042   5.828  1.0461  0.5032 -0.3041
10593TIP3    H253271   6.448   3.129   5.707  0.5285  1.0059  0.1572
10594TIP3   OH253272   3.281   6.590   2.006 -0.0621  0.0085  0.1030
10594TIP3    H153273   3.303   6.646   1.932 -0.5327 -1.0588 -0.8625
10594TIP3    H253274   3.330   6.510   1.992 -0.6730 -0.4612  0.5812
10595TIP3   OH253275   6.472   3.298  11.918  0.1959 -0.2106 -0.3682
10595TIP3    H153276   6.419   3.375  11.939 -0.2016 -1.1752  2.4834
10595TIP3    H253277   6.544   3.332  11.864  0.0011  2.1527  0.7670
10596TIP3   OH253278   3.013   1.533   5.467  0.3216 -0.3387  0.1396
10596TIP3    H153279   3.011   1.504   5.375 -0.0796 -1.7291  0.5657
10596TIP3    H253280   2.990   1.626   5.463 -0.7459 -0.6278 -1.0897
10597TIP3   OH253281   5.613   6.273   6.489 -0.0971  0.3244  0.3773
10597TIP3    H153282   5.603   6.362   6.524  1.7000  0.3094  1.0408
10597TIP3    H253283   5.580   6.216   6.558 -1.2597  0.4605 -0.0526
10598TIP3   OH253284   1.674   2.299  12.929  0.0144  0.1563 -0.0267
10598TIP3    H153285   1.627   2.216  12.917  1.1431 -0.4729 -0.2203
10598TIP3    H253286   1.722   2.312  12.847 -1.0118  1.5891 -0.4383
10599TIP3   OH253287   2.574   3.002  13.571 -0.7737 -0.5015  0.7257
10599TIP3    H153288   2.591   2.953  13.491  0.8656 -1.7786  1.7706
10599TIP3    H253289   2.486   2.977  13.598 -1.7004  0.6258 -1.0773
10600TIP3   OH253290   1.381   5.850  11.938  0.0024  0.2673 -0.1141
10600TIP3    H153291   1.325   5.810  12.005 -0.9633  0.5020 -0.7635
10600TIP3    H253292   1.323   5.861  11.862  1.2222 -0.5290 -1.1895
10601TIP3   OH253293   3.679   6.420  11.894 -0.0682  0.0921 -0.1292
10601TIP3    H153294   3.696   6.408  11.800  1.6907  2.9001 -0.3080
10601TIP3    H253295   3.646   6.510  11.901 -1.3318 -0.4680  1.8577
10602TIP3   OH253296   2.244   5.313   4.615  0.6512 -0.2352  0.3010
10602TIP3    H153297   2.335   5.337   4.598  0.8242 -0.4718  0.8647
10602TIP3    H253298   2.245   5.217   4.614 -0.3446 -0.3481 -3.6687
10603TIP3   OH253299   5.871   4.746   4.262 -0.0538  0.3055  0.7289
10603TIP3    H153300   5.844   4.671   4.316  0.1901 -0.5652 -0.3312
10603TIP3    H253301   5.791   4.799   4.255 -0.3742 -0.1193  1.0474
10604TIP3   OH253302   1.439   0.998   3.302 -0.7301  0.4404 -0.2763
10604TIP3    H153303   1.452   0.942   3.378  1.6471 -2.0048 -2.2806
10604TIP3    H253304   1.358   0.965   3.262 -0.8495  0.3256  0.0574
10605TIP3   OH253305   2.271   0.496   3.484  0.3317  0.2584 -0.4621
10605TIP3    H153306   2.233   0.555   3.550 -2.3362 -1.7293 -0.0832
10605TIP3    H253307   2.305   0.422   3.534 -1.5170 -1.1710 -1.2067
10606TIP3   OH253308   6.493   2.090   1.733 -0.1709  0.3658  0.1917
10606TIP3    H153309   6.526   2.173   1.698  0.2238  0.2000  0.1656
10606TIP3    H253310   6.506   2.027   1.662  1.7973 -0.2510  1.0416
10607TIP3   OH253311   2.782   6.522  12.061  0.3553 -0.0191  0.5269
10607TIP3    H153312   2.840   6.446  12.051  0.9560  0.2584  1.7899
10607TIP3    H253313   2.720   6.513  11.988  1.9492 -0.3213 -0.8693
10608TIP3   OH253314   4.769   0.733  11.167  0.2295  0.0648  0.1784
10608TIP3    H153315   4.690   0.769  11.126  0.2649  0.9081  0.8211
10608TIP3    H253316   4.784   0.789  11.244  0.8990 -0.6848  0.6127
10609TIP3   OH253317   1.545   5.834   0.473 -0.1147 -1.0840 -0.9028
10609TIP3    H153318   1.476   5.775   0.443 -2.8507  1.2956  0.1626
10609TIP3    H253319   1.549   5.820   0.568 -3.8185  2.8886  0.1847
10610TIP3   OH253320   0.632   5.221  17.077 -0.4418  0.3094 -0.3785
10610TIP3    H153321   0.590   5.152  17.025  0.1035 -0.1820 -0.1778
10610TIP3    H253322   0.624   5.192  17.168  0.0317  0.3669 -0.3125
10611TIP3   OH253323   2.374   6.362  13.940 -0.6280  0.0941 -0.2741
10611TIP3    H153324   2.415   6.278  13.917 -0.3494  0.1368  0.0638
10611TIP3    H253325   2.411   6.424  13.877  1.4444  0.5592  1.2826
10612TIP3   OH253326   2.772   2.989   1.404 -0.0432 -0.1874 -0.0015
10612TIP3    H153327   2.858   3.000   1.364  0.5388  1.4688  1.5822
10612TIP3    H253328   2.790   2.954   1.492 -0.8454  1.3347  0.8122
10613TIP3   OH253329   0.406   3.469  15.801  0.4732 -0.3940  0.1541
10613TIP3    H153330   0.365   3.529  15.863 -0.0090 -1.4062  0.8398
10613TIP3    H253331   0.350   3.471  15.724  0.0667 -0.4772  0.4426
10614TIP3   OH253332   5.006   0.837   6.312  0.3842 -0.1856 -0.3341
10614TIP3    H153333   4.997   0.819   6.405 -0.9044  1.5837 -0.0554
10614TIP3    H253334   4.950   0.773   6.269 -1.4327  0.8759  0.3554
10615TIP3   OH253335   3.430   6.112  15.402 -0.0163  0.2310  0.2855
10615TIP3    H153336   3.431   6.177  15.472 -0.7537 -0.7941  1.2816
10615TIP3    H253337   3.523   6.100  15.379  0.0831  2.1959 -0.4970
10616TIP3   OH253338   5.288   1.639   3.781  0.1125  0.2438 -0.2295
10616TIP3    H153339   5.335   1.608   3.858 -0.4981  1.9720  0.8960
10616TIP3    H253340   5.350   1.695   3.736  1.1151 -2.1985 -2.1049
10617TIP3   OH253341   6.281   2.413   4.163  0.7417 -0.3418  0.5502
10617TIP3    H153342   6.291   2.399   4.257  0.1114 -0.7338  0.5666
10617TIP3    H253343   6.332   2.492   4.144 -0.9803  1.1009  1.6310
10618TIP3   OH253344   1.103   0.336   0.204  0.0633 -0.6381 -0.0521
10618TIP3    H153345   1.185   0.381   0.183 -0.6649 -0.0616 -1.8537
10618TIP3    H253346   1.112   0.312   0.296  1.0783  2.0182  0.6485
10619TIP3   OH253347   5.776   0.958   2.337  0.3927  0.1577 -0.0298
10619TIP3    H153348   5.810   0.869   2.328 -0.1307 -0.0472 -0.0298
10619TIP3    H253349   5.849   1.014   2.311  1.3877 -0.1997  1.7932
10620TIP3   OH253350   1.472   6.067  11.530 -0.5228  0.0118 -0.2113
10620TIP3    H153351   1.461   6.071  11.435  2.5378  2.7197 -0.6574
10620TIP3    H253352   1.538   5.999  11.545 -0.7711 -0.1953 -0.0411
10621TIP3   OH253353   1.602   1.105  12.000 -0.0755  0.3706 -0.1902
10621TIP3    H153354   1.627   1.090  11.909 -0.4224  0.0182 -0.2301
10621TIP3    H253355   1.596   1.017  12.037 -2.6362  0.3302 -0.5497
10622TIP3   OH253356   6.395   5.045  11.611 -0.3577 -0.5534 -0.1712
10622TIP3    H153357   6.381   5.131  11.651  0.2268 -0.4713 -0.1244
10622TIP3    H253358   6.318   5.030  11.557 -1.1004 -0.5979  0.8657
10623TIP3   OH253359   3.287   0.850   4.064 -0.3130 -0.0090 -0.0257
10623TIP3    H153360   3.296   0.944   4.047  0.8830 -0.5456 -2.8955
10623TIP3    H253361   3.376   0.821   4.086  0.0047 -0.9152 -2.2307
10624TIP3   OH253362   5.152   3.112   2.886  0.5886  0.2375 -0.2301
10624TIP3    H153363   5.240   3.151   2.883 -0.5607  3.3461  1.5294
10624TIP3    H253364   5.144   3.079   2.976 -0.1622  0.3076 -0.2698
10625TIP3   OH253365   2.744   3.329   1.013  0.3129 -0.2593 -0.0912
10625TIP3    H153366   2.728   3.407   0.959 -2.9023 -0.7310  0.0033
10625TIP3    H253367   2.784   3.363   1.093 -0.7562  1.2963 -0.1662
10626TIP3   OH253368   2.772   6.414   0.954  0.2239 -0.1669  0.5511
10626TIP3    H153369   2.737   6.335   0.996 -1.2962  0.5664  0.7171
10626TIP3    H253370   2.782   6.477   1.025 -0.5374  0.4507  0.1255
10627TIP3   OH253371   3.072   5.062   1.344  0.4081  0.2116 -0.3512
10627TIP3    H153372   3.022   5.009   1.283  0.4050  2.2711 -2.2450
10627TIP3    H253373   3.163   5.040   1.326  0.4477  1.4042 -1.7329
10628TIP3   OH253374   5.663   1.731   1.490  0.6945 -0.3254 -0.2435
10628TIP3    H153375   5.726   1.793   1.527  1.8127 -1.7406  0.2920
10628TIP3    H253376   5.685   1.726   1.397 -1.3690  2.3302 -1.0477
10629TIP3   OH253377   3.005   1.755  17.144  0.1776 -0.0618 -0.4316
10629TIP3    H153378   2.962   1.689  17.197  0.9794 -0.5219 -0.3388
10629TIP3    H253379   3.034   1.708  17.066 -0.6292  0.5200 -1.1017
10630TIP3   OH253380   5.849   2.259   1.319  0.2752 -0.1788  0.0411
10630TIP3    H153381   5.773   2.309   1.289  0.5267  1.2108  1.5689
10630TIP3    H253382   5.918   2.281   1.257 -0.3943 -0.9808 -1.0099
10631TIP3   OH253383   1.415   6.087   2.051  0.1818 -0.5851  0.1385
10631TIP3    H153384   1.444   6.155   2.112  0.7068 -1.2393  0.6278
10631TIP3    H253385   1.372   6.022   2.106  1.9958 -1.9425  0.0634
10632TIP3   OH253386   4.604   2.832   5.864  0.0939 -0.6291 -0.3720
10632TIP3    H153387   4.624   2.814   5.955 -1.5198 -1.5091 -0.1631
10632TIP3    H253388   4.668   2.899   5.838 -0.5113  0.9386  1.9021
10633TIP3   OH253389   5.560   1.917  13.295  0.7386 -0.3633 -0.4412
10633TIP3    H153390   5.633   1.856  13.279 -0.1467 -1.7957  0.7234
10633TIP3    H253391   5.483   1.861  13.299 -0.3395  1.0449 -0.8562
10634TIP3   OH253392   4.890   0.690   5.747 -0.2758 -0.0010 -0.3203
10634TIP3    H153393   4.908   0.689   5.841 -2.8550 -2.8142  0.2990
10634TIP3    H253394   4.976   0.685   5.706  0.8716  0.2827  1.9025
10635TIP3   OH253395   5.250   3.617   0.906 -0.2275 -0.2572  0.6921
10635TIP3    H153396   5.213   3.681   0.967 -0.7792  1.0412 -0.8991
10635TIP3    H253397   5.180   3.553   0.894 -0.7337  0.3670  0.2242
10636TIP3   OH253398   4.376   1.656  11.459 -0.4584 -0.4621 -0.3487
10636TIP3    H153399   4.360   1.750  11.460 -0.2646 -0.4219 -0.7161
10636TIP3    H253400   4.336   1.624  11.539  0.1150  0.0434  0.1476
10637TIP3   OH253401   4.113   5.737  15.664 -0.0162 -0.0563  0.2441
10637TIP3    H153402   4.057   5.759  15.590  1.6380 -0.7680 -1.3326
10637TIP3    H253403   4.116   5.816  15.717 -0.3277  0.9126 -1.1096
10638TIP3   OH253404   0.531   1.203   3.349 -0.3132 -0.5602  0.1391
10638TIP3    H153405   0.519   1.226   3.257  2.4518  1.2427  0.1051
10638TIP3    H253406   0.471   1.261   3.396  0.1705  0.4466 -0.4420
10639TIP3   OH253407   4.366   4.874  13.256  0.5992  0.1402  0.2210
10639TIP3    H153408   4.368   4.867  13.352  1.8613 -0.0029  0.2039
10639TIP3    H253409   4.457   4.893  13.232  0.2808  0.2348 -0.9457
10640TIP3   OH253410   2.108   5.189   2.964  0.4076 -0.2172  0.0702
10640TIP3    H153411   2.032   5.247   2.953 -0.4815 -1.5262 -0.8826
10640TIP3    H253412   2.179   5.235   2.920 -0.0662  0.5601  0.0958
10641TIP3   OH253413   1.885   0.650  13.475 -0.2689 -0.1755 -0.0093
10641TIP3    H153414   1.918   0.631  13.563 -1.1241 -0.8745  0.1766
10641TIP3    H253415   1.828   0.576  13.454  1.2744 -0.9248 -1.8864
10642TIP3   OH253416   6.108   4.096  15.863 -0.2220  0.5010 -0.4453
10642TIP3    H153417   6.182   4.126  15.915 -0.1971  0.7095 -0.6027
10642TIP3    H253418   6.085   4.170  15.808 -0.2512  0.2832 -0.7318
10643TIP3   OH253419   6.470   5.291  15.327  0.3583  0.1048  0.0387
10643TIP3    H153420   6.559   5.292  15.293  0.3869 -0.6235  0.0809
10643TIP3    H253421   6.481   5.303  15.422  0.4495 -0.5406  0.1117
10644TIP3   OH253422   6.434   2.270  11.452  0.1446  0.0976 -0.1524
10644TIP3    H153423   6.514   2.223  11.430 -0.2658 -0.2602 -0.9415
10644TIP3    H253424   6.382   2.266  11.372 -0.1602  1.3615 -0.0417
10645TIP3   OH253425   0.068   2.442   2.436  0.2908 -0.4007  0.0844
10645TIP3    H153426  -0.011   2.389   2.436  0.6902 -0.9998  0.1069
10645TIP3    H253427   0.038   2.530   2.412 -0.4686 -0.4888  0.6673
10646TIP3   OH253428   3.660   5.830   6.290  0.6427  0.8452 -0.4766
10646TIP3    H153429   3.583   5.790   6.331  0.7910 -0.2314 -1.2200
10646TIP3    H253430   3.734   5.783   6.328  0.7349 -1.4620 -3.1932
10647TIP3   OH253431   4.097   5.945  11.019  0.2229 -0.0962 -0.1930
10647TIP3    H153432   4.088   6.040  11.022 -2.4582 -0.3029  1.0168
10647TIP3    H253433   4.118   5.925  10.928 -1.1693  1.5247 -0.9025
10648TIP3   OH253434   6.531   4.600   6.825  0.2570  0.2196 -0.3632
10648TIP3    H153435   6.590   4.553   6.765  1.0910 -1.0825  1.4020
10648TIP3    H253436   6.583   4.674   6.856  0.9052 -0.7767  0.9865
10649TIP3   OH253437   1.024   1.859   0.950  0.1087  0.3704 -0.0487
10649TIP3    H153438   1.115   1.884   0.934 -0.0465  0.4115 -0.9242
10649TIP3    H253439   0.973   1.924   0.901 -0.4167  0.7240  0.9475
10650TIP3   OH253440   1.783   3.759   3.750 -0.1940 -0.0261 -0.2277
10650TIP3    H153441   1.869   3.775   3.709  0.5942  0.5494  1.5582
10650TIP3    H253442   1.751   3.680   3.707  1.1060 -0.0968 -1.1335
10651TIP3   OH253443   1.390   2.039  14.342  0.0726  0.2060  0.2730
10651TIP3    H153444   1.311   2.043  14.288 -0.7902 -0.4442  1.4211
10651TIP3    H253445   1.409   1.945  14.349  0.5607  0.3247  0.5405
10652TIP3   OH253446   0.152   2.165   3.028 -0.4951  0.1634  0.3509
10652TIP3    H153447   0.083   2.163   3.094 -0.2527  1.0393  0.6461
10652TIP3    H253448   0.155   2.257   2.999  0.4072  0.1052  0.2084
10653TIP3   OH253449   2.389   0.651   4.442 -0.0941  0.1118 -0.2030
10653TIP3    H153450   2.298   0.629   4.424  0.2540 -1.0918 -0.5952
10653TIP3    H253451   2.417   0.701   4.365 -0.2720  0.0112 -0.3339
10654TIP3   OH253452   2.652   5.164  13.812  0.5330 -0.1298  0.1642
10654TIP3    H153453   2.644   5.131  13.722  0.6993  1.1933 -0.3491
10654TIP3    H253454   2.630   5.088  13.866 -0.5026 -0.7113 -1.0012
10655TIP3   OH253455   2.931   5.080  11.973  0.0456  0.2134  0.5474
10655TIP3    H153456   2.952   4.991  12.003 -0.1102 -0.9567 -2.4373
10655TIP3    H253457   2.861   5.109  12.031  1.9559 -0.4041  3.3851
10656TIP3   OH253458   3.277   6.317  12.654 -0.1368  0.0470 -0.2374
10656TIP3    H153459   3.307   6.400  12.691  0.5976 -1.0890  1.8753
10656TIP3    H253460   3.336   6.302  12.580  0.8044  0.6008  0.3799
10657TIP3   OH253461   5.205   4.175  13.565 -0.1928  0.3431 -0.5849
10657TIP3    H153462   5.128   4.219  13.529 -1.1278 -1.0065 -0.3194
10657TIP3    H253463   5.204   4.198  13.658 -1.6271 -1.4620 -0.0989
10658TIP3   OH253464   0.361   4.422   6.380  0.6168 -0.3252 -0.1257
10658TIP3    H153465   0.401   4.472   6.310 -1.6661 -0.8561 -1.9126
10658TIP3    H253466   0.275   4.398   6.347  0.3887 -2.7255  1.8919
10659TIP3   OH253467   5.010   6.158   1.260 -0.9795  0.3981 -0.0414
10659TIP3    H153468   4.964   6.141   1.342 -0.6466  1.5409  0.4043
10659TIP3    H253469   5.037   6.250   1.266  1.0025 -0.1051 -0.4510
10660TIP3   OH253470   4.478   4.197  12.876  0.2558 -0.4530 -0.4921
10660TIP3    H153471   4.453   4.285  12.904  0.2653 -0.1981 -1.2774
10660TIP3    H253472   4.556   4.210  12.822  1.3051 -1.1084  0.7908
10661TIP3   OH253473   2.261   5.966   2.102 -0.9511  0.7675 -0.4981
10661TIP3    H153474   2.185   6.018   2.073 -0.5849  1.1128 -0.8556
10661TIP3    H253475   2.245   5.951   2.195 -1.8180  0.2120 -0.7243
10662TIP3   OH253476   1.873   0.143  12.001  0.1019  0.0250 -0.2971
10662TIP3    H153477   1.807   0.089  12.044  0.1693  0.7248  0.7083
10662TIP3    H253478   1.827   0.223  11.976  0.7868  1.0322  1.4734
10663TIP3   OH253479   6.533   5.779   6.523 -0.2929 -0.6978  0.0275
10663TIP3    H153480   6.462   5.832   6.559  0.4186  1.7335 -1.8587
10663TIP3    H253481   6.489   5.713   6.470 -1.2313  0.9141 -1.3003
10664TIP3   OH253482   0.558   5.822  11.054 -0.0912 -0.7389  0.0666
10664TIP3    H153483   0.493   5.812  11.124 -1.9257 -1.5319 -1.6370
10664TIP3    H253484   0.511   5.870  10.985  1.0552 -1.5249 -1.3276
10665TIP3   OH253485   2.141   4.582   4.146 -0.1604 -0.1547  0.4901
10665TIP3    H153486   2.096   4.545   4.222 -2.6944  0.4542 -0.5980
10665TIP3    H253487   2.170   4.507   4.096  1.3462 -0.5635  1.9127
10666TIP3   OH253488   2.312   5.039   6.426 -0.0861 -0.0921  0.2173
10666TIP3    H153489   2.308   5.131   6.397 -1.3343 -1.1225 -3.5156
10666TIP3    H253490   2.233   5.028   6.479 -1.8252  0.3002 -2.1222
10667TIP3   OH253491   3.062   6.038   4.684  0.3648  0.1369 -0.0763
10667TIP3    H153492   3.003   6.017   4.755 -0.3739  0.7155 -0.5073
10667TIP3    H253493   3.066   6.134   4.682 -0.2131  0.1609 -1.2673
10668TIP3   OH253494   1.386   6.562  10.114  0.0189  0.2981  0.2476
10668TIP3    H153495   1.295   6.547  10.090 -0.7284 -0.6526  3.2409
10668TIP3    H253496   1.385   6.648  10.158  0.2648 -0.2450  1.3624
10669TIP3   OH253497   5.605   6.541  11.120  0.1554 -0.1719  0.5133
10669TIP3    H153498   5.628   6.593  11.044 -0.4719  0.5931  0.8236
10669TIP3    H253499   5.655   6.460  11.111 -0.7138 -0.5547 -1.2553
10670TIP3   OH253500   0.057   4.745   2.333 -0.2752 -0.0611 -0.1360
10670TIP3    H153501   0.002   4.823   2.340  1.7085  1.3251  0.8486
10670TIP3    H253502   0.051   4.703   2.419 -0.4678 -0.3991 -0.3114
10671TIP3   OH253503   1.589   1.778   3.638  0.0504  0.0912  0.2811
10671TIP3    H153504   1.662   1.718   3.624 -1.1413 -1.3400 -0.0795
10671TIP3    H253505   1.618   1.837   3.707  0.9729 -1.4034  1.2023
10672TIP3   OH253506   0.110   6.413   5.193 -0.3183  0.4149  0.0619
10672TIP3    H153507   0.049   6.467   5.143 -1.2909 -1.2159 -0.5911
10672TIP3    H253508   0.118   6.333   5.142 -0.1730 -0.7127  1.7866
10673TIP3   OH253509   3.141   4.357   5.080  0.3456 -0.1244 -0.0011
10673TIP3    H153510   3.102   4.381   5.164  2.3949 -1.6387  1.4934
10673TIP3    H253511   3.199   4.430   5.058 -0.9737  0.7489 -0.6786
10674TIP3   OH253512   1.921   0.636   4.812 -0.0349  0.1458  0.1219
10674TIP3    H153513   1.831   0.643   4.846 -0.0943  0.5760 -0.1147
10674TIP3    H253514   1.976   0.652   4.888 -0.1667  0.8127  0.0869
10675TIP3   OH253515   0.803   6.616   1.062  0.4360  0.4758  0.5516
10675TIP3    H153516   0.776   6.534   1.022  0.6032  1.1951 -1.1018
10675TIP3    H253517   0.843   6.666   0.991  2.8452  0.9172  2.1046
10676TIP3   OH253518   6.342   2.352  11.697 -0.2625  0.2221  0.2199
10676TIP3    H153519   6.369   2.274  11.648 -1.9989 -0.4243  0.2252
10676TIP3    H253520   6.260   2.379  11.656 -1.3751  0.1167  2.2509
10677TIP3   OH253521   1.099   5.734   3.889 -0.7320 -0.0208  0.3548
10677TIP3    H153522   1.171   5.674   3.874 -1.6629 -0.3433 -4.3906
10677TIP3    H253523   1.028   5.679   3.922 -0.1129 -0.5028  0.9116
10678TIP3   OH253524   4.283   5.834   6.359  0.1060 -0.3258 -0.6323
10678TIP3    H153525   4.370   5.873   6.356  0.7762 -1.6106  0.8169
10678TIP3    H253526   4.225   5.906   6.383  0.7895  0.4765 -1.3107
10679TIP3   OH253527   2.357   0.787  12.211 -0.3404  0.5207  0.1331
10679TIP3    H153528   2.442   0.779  12.169 -0.4937  1.2048 -0.3248
10679TIP3    H253529   2.312   0.705  12.190  0.8909 -0.7044  2.0218
10680TIP3   OH253530   3.599   2.986   4.558  0.3746 -0.3655 -0.0153
10680TIP3    H153531   3.554   2.928   4.620  0.8130  0.2152  0.8749
10680TIP3    H253532   3.529   3.022   4.503 -0.0143 -0.9644  0.0856
10681TIP3   OH253533   3.582   3.300  16.245  0.4087 -0.4349 -0.1144
10681TIP3    H153534   3.667   3.341  16.229  0.6550 -0.2747  1.4517
10681TIP3    H253535   3.581   3.224  16.188  1.7113 -0.5723  0.0150
10682TIP3   OH253536   6.720   0.494  11.369 -0.0001  0.1679 -0.0300
10682TIP3    H153537   6.671   0.412  11.379  1.3860 -0.8657 -1.2978
10682TIP3    H253538   6.779   0.478  11.295  1.4902  1.7184  0.7550
10683TIP3   OH253539   6.452   4.839   5.050 -0.1644  0.3661 -0.2324
10683TIP3    H153540   6.390   4.871   4.984  0.3344  1.1931 -0.3078
10683TIP3    H253541   6.533   4.887   5.032 -0.0967  0.7935  1.1452
10684TIP3   OH253542   3.775   6.176   4.173  0.1126 -0.2811  0.2001
10684TIP3    H153543   3.814   6.132   4.249  0.4220 -1.7791 -0.7765
10684TIP3    H253544   3.840   6.242   4.148  0.1680 -0.0160  1.0280
10685TIP3   OH253545   1.425   6.281  12.167 -0.2164 -0.6970  0.4784
10685TIP3    H153546   1.336   6.277  12.202 -0.5055 -2.4634 -0.3381
10685TIP3    H253547   1.481   6.266  12.243 -0.6436 -0.4983  0.8401
10686TIP3   OH253548   6.220   4.879  10.950  0.0612 -0.1795 -0.1222
10686TIP3    H153549   6.209   4.957  10.896 -0.2003 -0.7793 -0.9636
10686TIP3    H253550   6.132   4.855  10.976  0.2704  0.7785  1.5929
10687TIP3   OH253551   0.190   1.957   2.003 -0.4606 -0.8804  0.1981
10687TIP3    H153552   0.203   1.915   2.088 -2.8209  1.5377  1.9294
10687TIP3    H253553   0.097   1.944   1.984 -0.4374  0.4136 -0.9444
10688TIP3   OH253554   5.129   6.507  14.254  0.0607  0.5119 -0.3443
10688TIP3    H153555   5.082   6.534  14.175  0.0541  1.4652 -0.0356
10688TIP3    H253556   5.138   6.588  14.305 -0.7391 -0.2493  1.0505
10689TIP3   OH253557   2.282   0.128   3.317  0.0212  0.5701 -0.6792
10689TIP3    H153558   2.288   0.040   3.280 -0.0093 -0.4417  1.5139
10689TIP3    H253559   2.369   0.145   3.352 -0.5625  0.3321  1.0261
10690TIP3   OH253560   6.135   4.080  16.379  0.1499 -0.1914 -0.9276
10690TIP3    H153561   6.210   4.023  16.396 -0.1672 -0.0160  1.4484
10690TIP3    H253562   6.058   4.025  16.395 -0.1604  0.6332  0.7705
10691TIP3   OH253563   2.447   0.728   4.030  0.3632  0.2354  0.3971
10691TIP3    H153564   2.459   0.635   4.013 -1.0807  0.0547  0.1697
10691TIP3    H253565   2.534   0.766   4.021  0.9137 -1.0301  0.1345
10692TIP3   OH253566   2.149   3.655   4.253  0.6309  0.1657 -0.5069
10692TIP3    H153567   2.222   3.712   4.229 -0.6044  1.7846 -0.6515
10692TIP3    H253568   2.109   3.632   4.169 -1.3789  2.6500 -0.3709
10693TIP3   OH253569   0.763   1.952   0.563 -0.2789 -0.0863 -0.4908
10693TIP3    H153570   0.820   1.884   0.599  0.7063  0.1210 -1.5805
10693TIP3    H253571   0.736   1.918   0.478 -0.2379  0.6296 -0.7963
10694TIP3   OH253572   4.627   5.377  14.925 -0.2374 -0.0967  0.0464
10694TIP3    H153573   4.683   5.324  14.981  0.7885  0.8096 -0.0905
10694TIP3    H253574   4.602   5.452  14.979 -2.9661 -1.4080  0.7745
10695TIP3   OH253575   4.392   1.866  12.928 -0.7046  0.0422 -0.0888
10695TIP3    H153576   4.469   1.818  12.959 -0.0412  0.3601 -1.1942
10695TIP3    H253577   4.325   1.798  12.917 -0.0295 -0.5309 -0.8182
10696TIP3   OH253578   4.999   6.409  14.534  0.1477  0.3259 -0.2204
10696TIP3    H153579   5.013   6.501  14.555  0.2628  0.1279  0.6044
10696TIP3    H253580   4.983   6.408  14.440 -2.8087  1.5595  0.1491
10697TIP3   OH253581   2.691   1.756   0.522  0.4178  0.0599  0.9160
10697TIP3    H153582   2.622   1.820   0.507 -1.0080 -1.5907  0.0860
10697TIP3    H253583   2.770   1.809   0.539 -0.8808  1.9890  1.2530
10698TIP3   OH253584   0.404   2.274  11.866  0.5490  0.3368  0.5984
10698TIP3    H153585   0.373   2.363  11.850  1.0105  0.7274  1.7993
10698TIP3    H253586   0.392   2.229  11.782 -1.4337  0.9834  0.4869
10699TIP3   OH253587   4.397   3.615   1.677  0.3728  0.0467 -0.3405
10699TIP3    H153588   4.486   3.633   1.647 -0.0416  0.1452 -1.5427
10699TIP3    H253589   4.386   3.521   1.665  0.4361 -0.0331  0.1797
10700TIP3   OH253590   4.171   5.527  11.727 -0.0157  0.1522 -0.6294
10700TIP3    H153591   4.234   5.458  11.705  1.0714  1.4472 -1.8242
10700TIP3    H253592   4.096   5.481  11.765  0.3060 -1.7755 -2.1676
10701TIP3   OH253593   4.146   4.255  12.910  0.0388 -0.6960  0.4874
10701TIP3    H153594   4.187   4.310  12.843  1.6507  0.9721  2.6639
10701TIP3    H253595   4.206   4.181  12.919  1.6508  0.7028  2.2100
10702TIP3   OH253596   0.880   5.699   3.316  0.1399 -0.5070  0.2485
10702TIP3    H153597   0.867   5.734   3.228 -1.4481  1.4245  1.1726
10702TIP3    H253598   0.871   5.604   3.305 -0.6016 -0.2690 -1.5951
10703TIP3   OH253599   1.465   5.933   4.761 -0.3914 -0.3218 -0.4713
10703TIP3    H153600   1.441   5.929   4.669 -2.0497 -2.2756 -0.0347
10703TIP3    H253601   1.386   5.965   4.805  0.1156 -0.1848  0.3550
10704TIP3   OH253602   3.829   3.109  16.875  0.5716  0.0503 -0.1390
10704TIP3    H153603   3.885   3.034  16.896  1.0070 -0.1058 -1.7254
10704TIP3    H253604   3.775   3.122  16.953  1.8147 -0.7060  0.8797
10705TIP3   OH253605   0.086   1.725  14.701  0.1079  0.7767 -0.2320
10705TIP3    H153606   0.172   1.703  14.667  0.1529 -0.9334  0.8837
10705TIP3    H253607   0.091   1.704  14.795 -1.6704  0.1717 -0.2375
10706TIP3   OH253608   1.825   2.402   2.610 -0.2740 -0.4595 -0.0078
10706TIP3    H153609   1.800   2.381   2.700 -0.1118 -2.7519 -0.4331
10706TIP3    H253610   1.902   2.347   2.593  0.6628  1.0961 -1.0659
10707TIP3   OH253611   0.719   5.145  12.073  0.1916 -0.0471  0.0528
10707TIP3    H153612   0.736   5.138  11.979  0.5976  1.2141  0.0148
10707TIP3    H253613   0.802   5.122  12.114  0.1775 -0.0500  0.0796
10708TIP3   OH253614   6.072   2.301  11.418  0.1483 -0.6007 -0.0429
10708TIP3    H153615   6.071   2.368  11.486  0.9284  0.0290 -0.6392
10708TIP3    H253616   5.980   2.278  11.406 -0.0208 -0.5873  1.0815
10709TIP3   OH253617   1.631   1.992  16.902  0.0337  0.1150 -0.1304
10709TIP3    H153618   1.553   1.993  16.957  0.3439  0.8500  0.3095
10709TIP3    H253619   1.674   2.075  16.921  0.7191 -0.1145 -0.6654
10710TIP3   OH253620   1.654   5.971   2.302 -0.6055 -0.2366 -0.0948
10710TIP3    H153621   1.651   6.059   2.263  0.0171  0.0593  0.4918
10710TIP3    H253622   1.595   5.976   2.377  0.0681 -0.0411  0.4441
10711TIP3   OH253623   4.242   5.565  12.132  0.1970 -0.0311  0.2805
10711TIP3    H153624   4.312   5.506  12.105 -0.1029 -0.4740  0.4664
10711TIP3    H253625   4.206   5.598  12.050  1.2604  0.9599  0.1982
10712TIP3   OH253626   4.842   1.411  12.997 -0.0788  0.1423 -0.1965
10712TIP3    H153627   4.860   1.321  12.969  0.0223  0.8656 -2.6835
10712TIP3    H253628   4.748   1.423  12.984  0.0998  0.7343 -1.0379
10713TIP3   OH253629   0.173   4.811  12.474  0.4980 -0.0872  0.6664
10713TIP3    H153630   0.099   4.761  12.439  0.6511  0.5869 -0.7307
10713TIP3    H253631   0.143   4.844  12.558 -1.5791  1.8048 -0.7207
10714TIP3   OH253632   4.848   5.951   4.004 -0.1563  0.2158 -0.1796
10714TIP3    H153633   4.807   5.929   4.088 -0.3476  0.5495 -0.1834
10714TIP3    H253634   4.904   6.026   4.023  1.2637 -0.8608  0.0377
10715TIP3   OH253635   0.686   0.219  16.757  0.0830  0.1730  0.0843
10715TIP3    H153636   0.662   0.293  16.701  1.4232  0.8921  0.4141
10715TIP3    H253637   0.698   0.146  16.696  1.7130  0.9898 -0.6348
10716TIP3   OH253638   6.547   1.071   0.313 -0.1498  0.0481 -0.4837
10716TIP3    H153639   6.479   1.038   0.254 -0.3300  0.2554 -0.3920
10716TIP3    H253640   6.519   1.160   0.335 -0.4823 -0.2941  0.5300
10717TIP3   OH253641   1.310   2.139   1.711  0.0864  0.3197 -0.0652
10717TIP3    H153642   1.295   2.171   1.622 -0.3810 -2.3494 -1.0077
10717TIP3    H253643   1.256   2.060   1.718  2.1909 -1.0570  1.6544
10718TIP3   OH253644   6.038   0.652  14.283  0.2001 -0.0056  0.1464
10718TIP3    H153645   6.034   0.605  14.200 -3.1882 -0.6612  0.5183
10718TIP3    H253646   6.052   0.583  14.348  3.1131  0.5315  0.2226
10719TIP3   OH253647   1.089   0.812  15.987  0.0646  0.1912  0.4993
10719TIP3    H153648   1.082   0.727  15.944 -0.0701  0.3336  0.2383
10719TIP3    H253649   1.171   0.808  16.037  0.7418  0.3846 -0.5605
10720TIP3   OH253650   5.847   0.715   2.229  0.1982  0.0429 -0.4156
10720TIP3    H153651   5.831   0.651   2.298  1.2077  0.1881 -0.0208
10720TIP3    H253652   5.943   0.722   2.226  0.2009 -0.2541 -2.1007
10721TIP3   OH253653   2.470   3.783  16.943  0.3360  0.0102 -0.2317
10721TIP3    H153654   2.554   3.826  16.930  0.1544  0.6364  0.5211
10721TIP3    H253655   2.454   3.791  17.037  0.1283 -1.4354 -0.1244
10722TIP3   OH253656   5.317   0.767   1.108  0.5021  0.1648  0.5279
10722TIP3    H153657   5.224   0.777   1.086  0.3060 -0.0455  1.2242
10722TIP3    H253658   5.317   0.720   1.192  1.2790 -1.3665 -0.2920
10723TIP3   OH253659   1.518   2.380  13.748  0.5431  0.6465  0.0814
10723TIP3    H153660   1.471   2.309  13.793  0.3771 -0.7143 -2.0866
10723TIP3    H253661   1.457   2.453  13.750 -0.0973  0.1137  0.6755
10724TIP3   OH253662   1.835   0.091  15.405  0.4186 -0.4657 -0.3631
10724TIP3    H153663   1.842   0.176  15.449  0.4378  0.4650 -2.0437
10724TIP3    H253664   1.782   0.037  15.464 -0.7397  1.1534  0.1528
10725TIP3   OH253665   6.395   1.181   1.341 -0.7967  0.0462  0.2013
10725TIP3    H153666   6.299   1.184   1.342 -0.7754  2.2773 -0.3220
10725TIP3    H253667   6.420   1.234   1.265  0.8656 -1.1825 -0.1731
10726TIP3   OH253668   3.001   3.738   5.247  0.0609 -0.0782 -0.0128
10726TIP3    H153669   2.924   3.773   5.203 -0.7226 -0.7942  0.7363
10726TIP3    H253670   2.975   3.733   5.339  1.7884  1.7670  0.6465
10727TIP3   OH253671   2.576   1.227  15.875  0.1086  0.5628 -0.3920
10727TIP3    H153672   2.506   1.246  15.812  0.2834 -0.1910 -0.8253
10727TIP3    H253673   2.641   1.177  15.824 -0.0445 -0.6147  0.5319
10728TIP3   OH253674   5.222   2.796   1.927  0.2832  0.0193 -0.0338
10728TIP3    H153675   5.283   2.739   1.973  1.4540 -1.1775 -2.8623
10728TIP3    H253676   5.274   2.837   1.858 -1.1658  2.4540  0.1835
10729TIP3   OH253677   4.997   1.093  13.117  0.1433  0.1093  0.1405
10729TIP3    H153678   4.966   1.050  13.037 -0.0410 -3.8143  2.1009
10729TIP3    H253679   5.087   1.117  13.098 -0.4294  0.9512 -1.7852
10730TIP3   OH253680   3.370   1.623  11.876 -0.3550 -0.0361 -0.3865
10730TIP3    H153681   3.448   1.582  11.915 -1.3632  0.7688  2.6892
10730TIP3    H253682   3.375   1.714  11.902 -3.3761 -0.3656  1.8818
10731TIP3   OH253683   5.790   5.185  11.821 -0.1761 -0.2438  0.4629
10731TIP3    H153684   5.791   5.273  11.785 -3.0528 -0.1317  0.3838
10731TIP3    H253685   5.828   5.129  11.753 -1.6792  0.5018 -1.0461
10732TIP3   OH253686   6.237   0.825   5.505 -0.9013 -0.7619  0.0942
10732TIP3    H153687   6.291   0.812   5.583 -2.5686 -3.8871  0.9090
10732TIP3    H253688   6.283   0.892   5.454  1.6345 -0.5155  2.4884
10733TIP3   OH253689   4.954   4.651  16.710 -0.2603  0.6132 -0.0534
10733TIP3    H153690   4.933   4.558  16.699 -0.0226  0.7009 -1.4699
10733TIP3    H253691   4.914   4.693  16.634 -0.8971  1.7660  0.9038
10734TIP3   OH253692   2.552   5.557  17.007  0.1446 -0.2129  1.0977
10734TIP3    H153693   2.605   5.588  16.934  0.2555 -0.5208  1.0449
10734TIP3    H253694   2.514   5.636  17.045 -1.4165 -0.1803 -0.4324
10735TIP3   OH253695   4.185   4.707   5.453 -0.2862  0.2817  0.4870
10735TIP3    H153696   4.153   4.698   5.543 -0.6282  0.5769  0.3954
10735TIP3    H253697   4.115   4.753   5.407 -0.4274 -0.5062 -0.1120
10736TIP3   OH253698   6.724   0.297   0.751  0.1092  0.8044 -0.4410
10736TIP3    H153699   6.767   0.315   0.667  0.6896  1.6100  0.0227
10736TIP3    H253700   6.767   0.355   0.813  1.3652 -1.4470  0.9297
10737TIP3   OH253701   3.231   3.050  12.481 -0.0600  0.5137  0.6043
10737TIP3    H153702   3.322   3.065  12.509  0.9402 -3.5380  0.1864
10737TIP3    H253703   3.182   3.038  12.563  0.2064  0.8605  0.8145
10738TIP3   OH253704   2.283   2.578   4.240 -0.5326 -0.4968  0.4243
10738TIP3    H153705   2.225   2.653   4.256 -2.1291 -1.9986  2.0168
10738TIP3    H253706   2.289   2.533   4.325  1.8585 -1.2113 -0.0388
10739TIP3   OH253707   4.352   6.099  12.524 -0.0665 -0.3105 -0.0252
10739TIP3    H153708   4.351   6.003  12.520  0.0029 -0.2688 -1.8643
10739TIP3    H253709   4.437   6.124  12.487 -1.0312  0.4861 -1.8192
10740TIP3   OH253710   6.522   6.063   0.703  0.3434 -0.2014 -0.4307
10740TIP3    H153711   6.530   5.971   0.680 -0.3325 -0.3099 -0.2668
10740TIP3    H253712   6.502   6.107   0.621 -1.3020 -0.4839 -0.2296
10741TIP3   OH253713   1.288   5.767  12.178 -0.5105  0.2223  0.0772
10741TIP3    H153714   1.349   5.810  12.237  0.5582  0.3753 -1.0988
10741TIP3    H253715   1.305   5.674  12.188 -0.6364  0.2249  0.3196
10742TIP3   OH253716   4.854   1.459  11.712  0.3208  0.1285 -0.2437
10742TIP3    H153717   4.793   1.532  11.702 -0.9626 -0.9112 -0.3613
10742TIP3    H253718   4.812   1.387  11.666  0.9501 -1.0324  0.9371
10743TIP3   OH253719   6.005   1.930   3.746 -0.2135 -0.1479 -0.5242
10743TIP3    H153720   6.079   1.965   3.696 -1.6952  1.7890 -1.5166
10743TIP3    H253721   5.968   2.006   3.791 -2.1181 -0.8592 -0.7838
10744TIP3   OH253722   5.419   3.444  16.161 -0.4151  0.1391  0.2367
10744TIP3    H153723   5.421   3.499  16.240 -0.4829 -0.9778  1.0442
10744TIP3    H253724   5.388   3.359  16.192 -1.0576 -0.1412 -1.1293
10745TIP3   OH253725   5.350   1.671  13.087  0.2850 -0.4714  0.4029
10745TIP3    H153726   5.434   1.675  13.041  0.5057 -1.6543  0.6760
10745TIP3    H253727   5.298   1.608  13.037 -0.1302 -0.4041  0.7388
10746TIP3   OH253728   1.814   1.102   0.245  0.0098  0.0006 -0.1708
10746TIP3    H153729   1.811   1.047   0.324  0.6174  1.6805  1.0893
10746TIP3    H253730   1.794   1.190   0.277 -2.4884  0.3527 -2.3413
10747TIP3   OH253731   0.206   3.725  13.903  0.1079 -0.0533  0.5130
10747TIP3    H153732   0.210   3.651  13.842 -0.5843 -0.0304  0.4356
10747TIP3    H253733   0.237   3.689  13.986  0.3529 -0.2728  0.3266
10748TIP3   OH253734   2.205   0.803  13.156  0.1925 -0.5514 -1.1852
10748TIP3    H153735   2.190   0.793  13.062  0.6552  0.4267 -1.3661
10748TIP3    H253736   2.235   0.716  13.184 -2.0455 -1.5077 -1.5072
10749TIP3   OH253737   0.637   5.533  14.580  0.3870 -0.1295 -0.1552
10749TIP3    H153738   0.659   5.465  14.516  0.5605 -0.0524 -0.1765
10749TIP3    H253739   0.697   5.605  14.561  0.6190 -0.2071  0.2563
10750TIP3   OH253740   6.378   6.661   5.585  0.3983 -0.3246 -0.4748
10750TIP3    H153741   6.332   6.624   5.509 -1.2048  1.5236 -0.4810
10750TIP3    H253742   6.394   6.752   5.562 -1.8826  0.8697  2.0524
10751TIP3   OH253743   5.939   2.133  16.797 -0.6408  0.9468  0.0394
10751TIP3    H153744   5.935   2.143  16.702 -0.4726  2.3481  0.1608
10751TIP3    H253745   5.933   2.222  16.831 -1.4355  0.4111  1.3815
10752TIP3   OH253746   0.871   0.352  10.472  0.4634 -0.1379  0.6289
10752TIP3    H153747   0.874   0.364  10.377  0.5702  0.2026  0.6733
10752TIP3    H253748   0.843   0.261  10.484 -2.0539  0.5234  0.3013
10753TIP3   OH253749   2.562   5.864   5.147 -0.9698  0.5201 -0.7834
10753TIP3    H153750   2.619   5.933   5.112 -0.3736 -0.1497 -1.1668
10753TIP3    H253751   2.476   5.905   5.154 -0.7608  1.1215 -1.5863
10754TIP3   OH253752   2.573   6.393  14.227  0.1237  0.9321 -0.5108
10754TIP3    H153753   2.505   6.409  14.293  1.1766  0.8831  0.6131
10754TIP3    H253754   2.653   6.426  14.267  1.2973 -1.6085 -0.6042
10755TIP3   OH253755   2.636   4.072   3.697  0.0799 -0.3572  0.1693
10755TIP3    H153756   2.634   4.107   3.786  2.6769  1.4176 -0.3452
10755TIP3    H253757   2.581   4.132   3.646  2.4182  1.6218 -0.2115
10756TIP3   OH253758   1.333   3.829  16.507 -0.9355 -0.2193  0.5379
10756TIP3    H153759   1.326   3.791  16.419  0.6841  0.1259  0.2218
10756TIP3    H253760   1.386   3.765  16.555  2.7639  1.9283 -0.2984
10757TIP3   OH253761   2.580   5.787   0.693  0.5517  0.5568 -0.7136
10757TIP3    H153762   2.593   5.810   0.785  0.6793  1.7290 -1.0041
10757TIP3    H253763   2.583   5.692   0.691  0.1236  0.5042  0.5553
10758TIP3   OH253764   3.745   3.091   1.909 -0.4712 -0.0123 -0.2806
10758TIP3    H153765   3.675   3.129   1.963  1.6040  0.5980  2.1616
10758TIP3    H253766   3.751   3.150   1.834  0.2767  2.5853  1.6700
10759TIP3   OH253767   4.695   0.598  15.324  0.3072  0.3303 -0.7273
10759TIP3    H153768   4.744   0.600  15.406 -1.3908  1.0192  0.3232
10759TIP3    H253769   4.736   0.664  15.269  0.9391  0.4519 -0.1111
10760TIP3   OH253770   6.154   4.703  15.220  0.3663 -0.3354  0.2353
10760TIP3    H153771   6.108   4.747  15.290  0.1664 -0.1065 -0.0397
10760TIP3    H253772   6.196   4.627  15.262  2.0400  0.9651  1.0347
10761TIP3   OH253773   5.816   0.353   0.526  0.2659  0.2878 -0.5837
10761TIP3    H153774   5.784   0.302   0.600 -3.2923 -0.5108 -2.4344
10761TIP3    H253775   5.776   0.440   0.536  1.9714  1.0861 -0.2398
10762TIP3   OH253776   5.964   4.843  11.307 -0.4735  0.3168 -0.0269
10762TIP3    H153777   6.057   4.841  11.285 -0.6411  1.2878 -0.8979
10762TIP3    H253778   5.925   4.899  11.240 -1.7128 -0.2026  0.2363
10763TIP3   OH253779   2.320   1.770  14.903 -1.3664 -0.4035 -0.3475
10763TIP3    H153780   2.391   1.723  14.860  0.1259  0.5002  1.0389
10763TIP3    H253781   2.249   1.706  14.909 -0.7530 -1.2773 -1.8767
10764TIP3   OH253782   6.000   6.475  13.260  0.7241 -0.3236 -0.3098
10764TIP3    H153783   6.002   6.451  13.353 -4.6028 -1.0222 -0.0150
10764TIP3    H253784   5.980   6.393  13.215  2.4953  0.1482 -2.0633
10765TIP3   OH253785   3.726   3.656  16.254  0.2193 -1.0748  0.1725
10765TIP3    H153786   3.677   3.699  16.185  1.5012 -0.6030 -0.4734
10765TIP3    H253787   3.723   3.717  16.328  0.1644 -0.8734  0.0035
10766TIP3   OH253788   2.712   6.017   4.414  0.5253 -0.0066 -0.2652
10766TIP3    H153789   2.750   5.931   4.400  2.4688  0.6943  0.4052
10766TIP3    H253790   2.645   6.025   4.346 -0.5228 -2.4548  0.3625
10767TIP3   OH253791   4.142   6.792  14.435 -0.6581  0.0423  0.0830
10767TIP3    H153792   4.169   6.847  14.361  1.7193 -0.4089  0.5424
10767TIP3    H253793   4.162   6.703  14.407 -1.0697 -0.2532  0.7267
10768TIP3   OH253794   2.425   5.200   2.994  0.0855 -0.3840 -0.3970
10768TIP3    H153795   2.495   5.209   3.058  1.2421  1.3391 -1.8128
10768TIP3    H253796   2.354   5.254   3.028 -0.1486 -1.2308  0.4856
10769TIP3   OH253797   4.288   4.605   6.118 -0.0654 -0.2633  0.4086
10769TIP3    H153798   4.197   4.591   6.142  0.1232 -0.5311  0.9741
10769TIP3    H253799   4.313   4.524   6.073  0.6024 -1.2325  2.4160
10770TIP3   OH253800   4.334   1.604   5.560  0.5456 -0.1378  0.2463
10770TIP3    H153801   4.382   1.550   5.496 -1.9389  0.7318 -2.5935
10770TIP3    H253802   4.258   1.550   5.583 -1.2647  1.4711 -1.6026
10771TIP3   OH253803   5.562   2.205  11.870  0.0811  0.2138 -0.7039
10771TIP3    H153804   5.588   2.248  11.952 -0.4256  0.5775 -0.7310
10771TIP3    H253805   5.507   2.132  11.898  2.0444 -1.3043 -0.5694
10772TIP3   OH253806   0.244   0.989  12.688  0.1583 -0.2049 -0.1900
10772TIP3    H153807   0.318   1.043  12.661  0.5888 -0.4277  0.5310
10772TIP3    H253808   0.173   1.014  12.629  0.6738  0.3432 -0.5827
10773TIP3   OH253809   3.376   6.788  14.848 -0.3495  0.3072 -0.1881
10773TIP3    H153810   3.388   6.733  14.925  1.5078  2.9651  1.5942
10773TIP3    H253811   3.461   6.783  14.803 -0.9837 -0.1756 -1.3648
10774TIP3   OH253812   6.657   0.662   5.268  0.1374 -0.5293  0.0838
10774TIP3    H153813   6.645   0.754   5.294 -0.9565  0.1260 -2.4349
10774TIP3    H253814   6.746   0.659   5.232  1.2179 -1.1780  2.5614
10775TIP3   OH253815   1.679   3.847  11.568  0.2573  0.5950  0.4789
10775TIP3    H153816   1.699   3.762  11.529  0.4244  0.9298 -0.1776
10775TIP3    H253817   1.718   3.843  11.656 -0.3841 -0.2783  0.7409
10776TIP3   OH253818   2.734   0.726  16.497 -0.3615 -1.2099  0.0823
10776TIP3    H153819   2.665   0.762  16.442 -1.2161 -0.6752  1.4650
10776TIP3    H253820   2.811   0.724  16.440 -0.8060  0.8121 -0.6846
10777TIP3   OH253821   5.610   2.112  11.158 -0.6911  0.6758  0.2154
10777TIP3    H153822   5.555   2.153  11.091  1.7294  2.8995 -0.6069
10777TIP3    H253823   5.567   2.135  11.241 -1.7403  1.1196 -0.4258
10778TIP3   OH253824   0.763   6.464  16.569  0.1721 -1.1709  0.8206
10778TIP3    H153825   0.753   6.426  16.657 -1.5522  1.3708  1.8461
10778TIP3    H253826   0.681   6.441  16.525  0.8717 -2.0956 -0.0485
10779TIP3   OH253827   1.701   4.857   2.816  0.1796 -0.4565  0.0904
10779TIP3    H153828   1.779   4.910   2.830  0.8816 -1.5435  0.4428
10779TIP3    H253829   1.722   4.773   2.857 -0.4168 -1.4276 -1.5257
10780TIP3   OH253830   1.843   6.510   5.311 -0.6474  0.3995  0.5311
10780TIP3    H153831   1.809   6.538   5.226 -0.7403 -0.1219  0.3935
10780TIP3    H253832   1.800   6.426   5.327  0.8122 -0.4480  0.2037
10781TIP3   OH253833   5.143   2.889   0.807  0.0358  0.1080  0.1131
10781TIP3    H153834   5.174   2.978   0.826  0.0879 -0.1582  1.3445
10781TIP3    H253835   5.202   2.832   0.856  0.3606 -0.6625 -1.1244
10782TIP3   OH253836   4.725   1.686   3.922 -0.0340 -0.9591  0.7655
10782TIP3    H153837   4.759   1.598   3.906  1.7403  0.0597 -1.6430
10782TIP3    H253838   4.798   1.732   3.964 -0.5020 -0.3003  0.8584
10783TIP3   OH253839   3.965   1.296   3.760  0.2353 -0.0578 -0.5722
10783TIP3    H153840   3.934   1.258   3.677 -0.3185 -0.6324 -0.1141
10783TIP3    H253841   3.900   1.268   3.824  0.2359  1.0361 -0.0759
10784TIP3   OH253842   1.107   1.715   3.285  0.3859  0.3263  0.4217
10784TIP3    H153843   1.033   1.702   3.226  1.6306 -2.0329 -0.7469
10784TIP3    H253844   1.102   1.642   3.347  2.5088 -0.8148 -0.6330
10785TIP3   OH253845   2.288   2.280   2.725  0.0906  0.0792  0.3868
10785TIP3    H153846   2.326   2.227   2.654 -1.0081 -0.0515 -0.1239
10785TIP3    H253847   2.358   2.285   2.790  1.0704  0.0482 -0.6152
10786TIP3   OH253848   0.148   3.879   1.478 -0.4911 -0.1136 -0.4754
10786TIP3    H153849   0.177   3.788   1.489 -1.9267 -0.5005  0.5390
10786TIP3    H253850   0.160   3.897   1.385  0.8080 -0.9786 -0.4947
10787TIP3   OH253851   5.578   2.518   3.492 -0.3142  0.3260 -0.2061
10787TIP3    H153852   5.646   2.565   3.442  0.6903 -0.1963  0.6210
10787TIP3    H253853   5.589   2.549   3.582 -0.9172 -0.0631  0.0047
10788TIP3   OH253854   5.281   3.555   6.049 -0.1861  0.2419  0.8767
10788TIP3    H153855   5.186   3.556   6.037 -0.0017  0.0057 -0.8992
10788TIP3    H253856   5.309   3.644   6.025 -0.0933  0.8788  3.1175
10789TIP3   OH253857   5.534   6.362  16.510 -0.2174 -0.0445 -0.0624
10789TIP3    H153858   5.458   6.308  16.529 -0.6312  0.5414 -0.0341
10789TIP3    H253859   5.500   6.436  16.460  0.3498  0.1599 -0.1599
10790TIP3   OH253860   2.602   6.259   4.578 -0.4577  0.1686 -0.4374
10790TIP3    H153861   2.680   6.311   4.598 -0.5012 -0.3712  1.3438
10790TIP3    H253862   2.636   6.182   4.532 -0.0205  0.2985 -0.3329
10791TIP3   OH253863   4.137   1.238  11.649 -0.0406  0.4929  0.0673
10791TIP3    H153864   4.177   1.151  11.660  1.3053  1.0203 -0.3925
10791TIP3    H253865   4.045   1.225  11.671  0.5999 -0.5071  2.5057
10792TIP3   OH253866   4.673   3.742   3.373  0.0883 -0.0262  0.8490
10792TIP3    H153867   4.695   3.700   3.290  0.4227  0.7750  0.5212
10792TIP3    H253868   4.598   3.693   3.406  0.7920 -1.2111  0.7451
10793TIP3   OH253869   3.153   3.181   1.113 -0.5777  0.1626  0.1894
10793TIP3    H153870   3.066   3.191   1.075 -0.5530  0.2928  0.1680
10793TIP3    H253871   3.142   3.113   1.180 -0.1863 -1.6108 -1.4295
10794TIP3   OH253872   5.277   3.814   4.132 -0.2313  0.8087 -0.2943
10794TIP3    H153873   5.303   3.724   4.114 -0.8714 -0.0911  2.7092
10794TIP3    H253874   5.203   3.830   4.073  1.3017  0.2457 -2.4930
10795TIP3   OH253875   4.649   2.169   2.690 -0.1689 -0.1059  0.3197
10795TIP3    H153876   4.678   2.144   2.778 -1.3787 -0.7156  0.5631
10795TIP3    H253877   4.725   2.153   2.634 -0.5267 -3.3880  0.6106
10796TIP3   OH253878   2.541   5.230  12.737  0.9365  0.8906  0.3310
10796TIP3    H153879   2.491   5.308  12.757  0.4647  1.2599 -2.0790
10796TIP3    H253880   2.476   5.160  12.729  1.0200  0.9186 -0.6490
10797TIP3   OH253881   3.325   5.792   1.846 -0.2083  0.5219 -0.4679
10797TIP3    H153882   3.284   5.727   1.902  1.7780 -1.1722 -0.8339
10797TIP3    H253883   3.395   5.830   1.900  2.1015 -1.5321 -1.7975
10798TIP3   OH253884   5.498   0.478   3.635 -0.5184 -0.1785  0.0242
10798TIP3    H153885   5.500   0.565   3.596 -1.5719  1.0829  2.5780
10798TIP3    H253886   5.586   0.464   3.668  0.0111 -0.7031 -1.4895
10799TIP3   OH253887   6.592   0.483  11.943 -0.5622 -0.0676 -0.0841
10799TIP3    H153888   6.569   0.390  11.943 -0.7741 -0.0258 -1.0462
10799TIP3    H253889   6.657   0.492  11.873 -1.4426  0.6990 -0.8416
10800TIP3   OH253890   0.607   1.234   0.982 -0.1172  0.5374 -0.0343
10800TIP3    H153891   0.609   1.305   0.917  0.5475  1.3544  0.8544
10800TIP3    H253892   0.623   1.277   1.066  0.7869 -0.7246  0.4786
10801TIP3   OH253893   2.408   1.665   2.800  0.0468 -0.5449 -0.2456
10801TIP3    H153894   2.475   1.681   2.867  0.7049  0.8457 -1.1817
10801TIP3    H253895   2.458   1.639   2.722 -0.5632 -0.4894 -0.6624
10802TIP3   OH253896   0.440   2.704  14.708 -0.2961 -0.0088 -0.0005
10802TIP3    H153897   0.505   2.747  14.653 -0.4018  2.4061  1.5793
10802TIP3    H253898   0.481   2.622  14.734  0.2687 -0.6024 -2.5315
10803TIP3   OH253899   6.816   0.079  12.794 -0.1204  0.5584  0.1372
10803TIP3    H153900   6.724   0.079  12.768  0.0894 -0.8454 -0.7100
10803TIP3    H253901   6.814   0.083  12.890 -1.1155 -0.7064  0.1968
10804TIP3   OH253902   5.597   5.075   4.930 -0.1285  0.4665  0.6629
10804TIP3    H153903   5.686   5.103   4.910 -0.4470  0.7779 -0.4078
10804TIP3    H253904   5.601   5.043   5.020  1.2022 -0.1419  0.4119
10805TIP3   OH253905   5.081   5.628   0.918 -0.1958 -0.3859  0.0070
10805TIP3    H153906   5.036   5.683   0.854  1.2855  0.4421 -0.3959
10805TIP3    H253907   5.014   5.603   0.981 -1.1465  0.9947 -0.4153
10806TIP3   OH253908   3.901   4.952   1.885 -0.1321  0.4229  0.2250
10806TIP3    H153909   3.871   4.992   1.804 -1.2344  2.3743  1.5155
10806TIP3    H253910   3.997   4.955   1.880 -0.1901  1.1802 -0.6798
10807TIP3   OH253911   5.556   6.020   3.250 -0.4816 -0.1663  0.3731
10807TIP3    H153912   5.602   6.089   3.297 -0.0962 -1.0906  1.3873
10807TIP3    H253913   5.620   5.986   3.188 -0.6596  0.3537 -0.0997
10808TIP3   OH253914   0.998   3.955  17.092  0.4318 -0.0376  0.2510
10808TIP3    H153915   0.916   3.917  17.061 -0.6903  0.3806  2.5147
10808TIP3    H253916   1.024   4.016  17.022 -1.2819 -0.0351 -0.4208
10809TIP3   OH253917   3.199   2.778  15.586 -0.4437  0.4104  0.2588
10809TIP3    H153918   3.122   2.827  15.613 -0.1709  0.5377  0.8257
10809TIP3    H253919   3.188   2.765  15.492 -1.0746  0.5645  0.3104
10810TIP3   OH253920   6.242   5.467   1.887 -0.1923 -0.0351 -0.5832
10810TIP3    H153921   6.188   5.399   1.927  0.3958 -1.4999 -2.1749
10810TIP3    H253922   6.179   5.531   1.854 -0.8087 -0.3816 -0.1094
10811TIP3   OH253923   4.178   3.154   0.159 -0.3617  0.3114 -0.2285
10811TIP3    H153924   4.245   3.222   0.147  1.7842 -1.3724  1.4057
10811TIP3    H253925   4.225   3.081   0.198 -2.3893 -2.4689 -2.6002
10812TIP3   OH253926   5.593   2.845   5.350  0.0440 -0.4997 -0.5583
10812TIP3    H153927   5.671   2.806   5.388  0.2377 -0.5732 -1.0230
10812TIP3    H253928   5.617   2.864   5.259  0.1166  1.1600 -0.2289
10813TIP3   OH253929   3.557   2.351  14.192 -0.1930 -0.7908  0.1022
10813TIP3    H153930   3.572   2.319  14.103 -0.4769 -0.7206  0.0266
10813TIP3    H253931   3.630   2.411  14.208 -1.8920  1.9079 -1.3811
10814TIP3   OH253932   6.710   3.815  16.012  0.3303  0.0307  0.0929
10814TIP3    H153933   6.660   3.811  15.930  2.1510  0.7228 -1.1203
10814TIP3    H253934   6.725   3.724  16.036 -0.4454 -0.1783 -0.1925
10815TIP3   OH253935   4.211   1.641  14.549  0.2348  0.4310 -0.2013
10815TIP3    H153936   4.302   1.637  14.579 -0.2833 -1.7057  1.2769
10815TIP3    H253937   4.212   1.596  14.465  0.0979 -2.6402  1.3005
10816TIP3   OH253938   5.589   1.903  15.001 -0.3479 -0.1300 -0.1976
10816TIP3    H153939   5.554   1.822  14.963  0.2776 -0.9600  0.9368
10816TIP3    H253940   5.602   1.882  15.093  0.7313  0.9648 -0.0880
10817TIP3   OH253941   0.476   3.535  16.748  0.1289  0.2838 -0.5168
10817TIP3    H153942   0.450   3.570  16.834  1.2494 -1.7031  0.7083
10817TIP3    H253943   0.485   3.612  16.693 -0.7922  1.6219  1.0902
10818TIP3   OH253944   3.130   2.636   4.374 -0.1432  0.0126  0.1273
10818TIP3    H153945   3.190   2.564   4.392  1.9984  1.7161  0.2363
10818TIP3    H253946   3.132   2.690   4.454  1.9287  2.5530 -1.4698
10819TIP3   OH253947   4.847   5.728   2.061 -0.7490 -0.0163 -0.3254
10819TIP3    H153948   4.909   5.714   2.132 -0.8275  0.0822 -0.2392
10819TIP3    H253949   4.761   5.731   2.103 -0.7138  0.9809 -0.3124
10820TIP3   OH253950   5.705   3.144   5.131  0.7686 -0.1308 -0.2433
10820TIP3    H153951   5.759   3.077   5.172  1.3712  0.2973 -0.3179
10820TIP3    H253952   5.699   3.117   5.039 -0.8771 -1.2805  0.1480
10821TIP3   OH253953   3.471   0.819  15.983  0.2666  0.4091 -0.0044
10821TIP3    H153954   3.560   0.838  16.013  0.5180 -0.8521  0.1315
10821TIP3    H253955   3.457   0.727  16.008 -0.9238  0.4713 -0.3857
10822TIP3   OH253956   2.372   1.931  15.854  0.7240  0.1103  0.2688
10822TIP3    H153957   2.337   2.018  15.836  1.4548  0.2260 -0.6499
10822TIP3    H253958   2.467   1.941  15.846  0.7492 -1.5684 -3.8881
10823TIP3   OH253959   0.749   1.625   4.482  0.6942  0.0675 -0.1824
10823TIP3    H153960   0.714   1.629   4.393  0.5679 -1.5017 -0.2412
10823TIP3    H253961   0.813   1.554   4.479  2.3243  1.4674  0.4606
10824TIP3   OH253962   5.654   3.448  13.792  0.5534 -0.9770  0.0406
10824TIP3    H153963   5.596   3.384  13.833 -0.5855  1.0242  1.7439
10824TIP3    H253964   5.607   3.477  13.714  0.1633 -0.7557  0.3615
10825TIP3   OH253965   6.673   4.447   5.730 -0.6894 -0.2111  0.0951
10825TIP3    H153966   6.580   4.460   5.746 -0.4481  1.1688  0.5146
10825TIP3    H253967   6.706   4.533   5.705  1.0229  0.0685  2.8807
10826TIP3   OH253968   2.544   1.388   1.145 -0.1594 -0.0649  0.0073
10826TIP3    H153969   2.549   1.375   1.239 -1.0677  0.4742  0.1430
10826TIP3    H253970   2.577   1.306   1.108  1.5436  0.2503  0.7621
10827TIP3   OH253971   2.666   0.088  14.344 -0.0825 -0.4905  0.7008
10827TIP3    H153972   2.672   0.152  14.273 -1.7872  0.3485  1.2552
10827TIP3    H253973   2.754   0.086  14.381  0.3798  0.4089 -0.2969
10828TIP3   OH253974   0.389   4.954  10.488  0.2993  0.3096 -0.4455
10828TIP3    H153975   0.327   5.011  10.443  0.0079 -0.7540 -1.4310
10828TIP3    H253976   0.343   4.926  10.567 -0.8004 -1.0594 -1.5325
10829TIP3   OH253977   0.219   6.386   5.443  0.0650 -0.6411 -0.1073
10829TIP3    H153978   0.178   6.422   5.365 -0.9275  0.1364  0.7345
10829TIP3    H253979   0.310   6.416   5.438 -0.5217  1.3833  0.1476
10830TIP3   OH253980   4.024   1.028   4.632 -0.2310  0.5122  0.2044
10830TIP3    H153981   4.103   1.040   4.684 -0.1398  2.3859 -0.3038
10830TIP3    H253982   4.026   0.936   4.606  0.4820 -0.0925  2.2302
10831TIP3   OH253983   2.859   3.122  12.625  0.4560  0.0199  0.1336
10831TIP3    H153984   2.802   3.198  12.640 -0.2656 -0.5777  0.5070
10831TIP3    H253985   2.810   3.048  12.661  0.9293 -0.7057 -0.6659
10832TIP3   OH253986   4.418   6.444   4.432 -0.0701  0.7745 -0.1467
10832TIP3    H153987   4.432   6.352   4.412 -0.6081  0.7576 -0.4625
10832TIP3    H253988   4.455   6.456   4.519  0.0194  0.2695 -0.1139
10833TIP3   OH253989   4.159   3.788   0.454 -0.2662  0.4229  0.0628
10833TIP3    H153990   4.093   3.739   0.404  1.0171 -0.2656 -1.0161
10833TIP3    H253991   4.232   3.727   0.463 -0.0275  0.9238  1.8675
10834TIP3   OH253992   1.611   3.106   0.597 -0.2558 -0.3583 -0.5207
10834TIP3    H153993   1.696   3.150   0.593 -0.5428  0.0868 -2.6385
10834TIP3    H253994   1.631   3.015   0.574 -0.2905 -0.3438 -0.6080
10835TIP3   OH253995   2.122   3.052  10.952 -0.1168 -0.4421  0.5036
10835TIP3    H153996   2.063   2.996  11.003 -0.6159  0.7891  1.3119
10835TIP3    H253997   2.076   3.135  10.944  1.0792  0.2230  0.2706
10836TIP3   OH253998   4.658   6.445  13.122  0.4560 -0.2971 -0.0539
10836TIP3    H153999   4.608   6.448  13.041 -2.4741 -0.3991  1.6393
10836TIP3    H254000   4.694   6.533  13.131 -1.8878  0.7111  0.0836
10837TIP3   OH254001   6.730   0.501   4.471  0.2488  0.1934  0.3461
10837TIP3    H154002   6.741   0.563   4.544  0.8857  1.3901 -0.7208
10837TIP3    H254003   6.770   0.420   4.502  0.6948  0.7415  1.2599
10838TIP3   OH254004   5.533   1.072  16.690 -0.4351 -0.1332 -0.3299
10838TIP3    H154005   5.597   1.048  16.623  0.1969 -0.1640  0.2758
10838TIP3    H254006   5.502   0.988  16.724 -0.3347 -0.1197 -0.2004
10839TIP3   OH254007   3.611   6.704   1.248  1.0301  0.7349 -0.2804
10839TIP3    H154008   3.530   6.752   1.266  1.4845  0.7476  1.9978
10839TIP3    H254009   3.582   6.626   1.199 -0.2602  1.0661 -0.0875
10840TIP3   OH254010   2.416   5.981   0.611 -0.7499  0.0333 -0.2343
10840TIP3    H154011   2.420   6.040   0.686 -0.0282  0.8825 -0.9248
10840TIP3    H254012   2.472   5.907   0.635 -1.6661 -0.3979  0.6351
10841TIP3   OH254013   3.411   6.560  13.380  0.1099  0.4020  0.0789
10841TIP3    H154014   3.425   6.560  13.286  1.1799  1.9557  0.2221
10841TIP3    H254015   3.438   6.646  13.410  2.6747 -1.0013  2.2349
10842TIP3   OH254016   1.618   0.255  10.095 -0.0356  0.4489  0.0210
10842TIP3    H154017   1.617   0.342  10.134  1.1015  1.3356 -1.7870
10842TIP3    H254018   1.681   0.206  10.147 -3.6616 -0.7897  3.7706
10843TIP3   OH254019   1.976   4.384  13.971 -0.4303  0.1586 -0.2868
10843TIP3    H154020   1.951   4.433  13.893 -1.3455 -0.9543 -0.7309
10843TIP3    H254021   2.058   4.341  13.947 -0.7605 -0.2594 -0.6838
10844TIP3   OH254022   2.254   1.073   2.171  0.4751  0.4469  0.1506
10844TIP3    H154023   2.295   0.996   2.210 -0.3869 -0.6624 -1.0722
10844TIP3    H254024   2.260   1.059   2.077 -1.1471  1.0847 -0.0765
10845TIP3   OH254025   0.463   0.520  14.191 -0.0887  0.5368  0.1536
10845TIP3    H154026   0.391   0.563  14.144 -0.0948  0.4995  0.1294
10845TIP3    H254027   0.532   0.510  14.125 -0.2370  0.1420  0.0541
10846TIP3   OH254028   1.330   1.507  14.510 -0.2316  0.4764  0.5820
10846TIP3    H154029   1.312   1.576  14.446 -0.7358 -0.5552 -0.4364
10846TIP3    H254030   1.349   1.554  14.591 -1.6627  1.7927  0.2140
10847TIP3   OH254031   4.984   4.510  11.398 -0.4790  0.2619  0.4421
10847TIP3    H154032   4.969   4.513  11.304 -0.8392  1.4504  0.5188
10847TIP3    H254033   5.050   4.442  11.410 -0.6845 -0.1396 -0.6285
10848TIP3   OH254034   2.072   5.561  12.798 -0.2317  0.1009 -0.4358
10848TIP3    H154035   2.160   5.557  12.759 -0.5887 -0.6508 -1.1975
10848TIP3    H254036   2.067   5.649  12.837  0.6453  0.3597 -0.8780
10849TIP3   OH254037   6.088   4.614   5.800 -0.2569 -0.0891 -0.9708
10849TIP3    H154038   6.072   4.690   5.744 -4.0110  0.3810  0.3701
10849TIP3    H254039   6.084   4.650   5.889 -3.8064 -1.8246 -0.2212
10850TIP3   OH254040   1.784   5.280  12.615  0.6470  0.4569  0.3838
10850TIP3    H154041   1.785   5.240  12.528  2.5331 -1.3077  1.1339
10850TIP3    H254042   1.740   5.216  12.671  0.7428  0.9151  1.0004
10851TIP3   OH254043   4.885   0.144  13.696 -0.7735 -0.5131 -0.1265
10851TIP3    H154044   4.972   0.157  13.732 -0.4333  0.7972 -1.3239
10851TIP3    H254045   4.855   0.232  13.672 -1.5247 -1.1625 -1.7403
10852TIP3   OH254046   1.193   6.674   5.870  0.4041 -0.3497  0.2058
10852TIP3    H154047   1.150   6.750   5.910 -0.7797 -0.4329 -0.8594
10852TIP3    H254048   1.231   6.627   5.944 -0.3919  0.3269  1.0723
10853TIP3   OH254049   2.522   3.759  16.454 -0.2988  0.0098 -0.3361
10853TIP3    H154050   2.468   3.785  16.380 -0.1672  2.0337  0.2019
10853TIP3    H254051   2.481   3.680  16.488 -0.7672 -0.5411 -2.1136
10854TIP3   OH254052   6.669   0.978   3.464  0.6307  0.4507  0.1925
10854TIP3    H154053   6.649   0.905   3.405  0.6247 -0.4571  1.2857
10854TIP3    H254054   6.634   1.055   3.420  0.1321 -0.2856 -0.7265
10855TIP3   OH254055   1.592   6.615   1.834  0.3083  0.3119 -0.2107
10855TIP3    H154056   1.561   6.641   1.921  0.6188 -0.7742  0.2351
10855TIP3    H254057   1.548   6.675   1.774 -1.5529 -0.2556  0.5207
10856TIP3   OH254058   4.852   5.496  10.943  0.5393  0.6945 -0.4653
10856TIP3    H154059   4.889   5.520  10.858  2.3493 -0.2570 -0.0020
10856TIP3    H254060   4.787   5.429  10.923  0.6534  0.7737 -1.1184
10857TIP3   OH254061   4.299   5.289  13.825  0.0823  0.2334 -0.4321
10857TIP3    H154062   4.271   5.377  13.851 -0.3041  0.4228 -1.4682
10857TIP3    H254063   4.220   5.236  13.831  0.6308 -0.4731  1.8126
10858TIP3   OH254064   3.451   1.129  11.406 -0.2555  0.2731  0.4964
10858TIP3    H154065   3.413   1.210  11.370 -1.1661 -0.6220 -0.6565
10858TIP3    H254066   3.495   1.089  11.331 -3.5029 -2.4212 -0.1801
10859TIP3   OH254067   5.982   1.481  16.874 -0.6329  0.1669 -0.0977
10859TIP3    H154068   5.935   1.420  16.818 -0.6446 -0.1781  0.2827
10859TIP3    H254069   6.059   1.506  16.824  0.3035 -1.5243  0.4447
10860TIP3   OH254070   4.773   2.945   6.378 -0.1209 -0.8401  0.4067
10860TIP3    H154071   4.813   3.020   6.421 -0.2117 -1.8120  2.3180
10860TIP3    H254072   4.842   2.878   6.377 -0.2210 -0.9398 -0.7286
10861TIP3   OH254073   0.435   5.320   2.940 -0.3193  0.6873  0.2582
10861TIP3    H154074   0.343   5.336   2.962 -0.5342 -0.6384  0.4030
10861TIP3    H254075   0.468   5.266   3.012  0.0129 -0.5249 -0.7850
10862TIP3   OH254076   3.713   4.244   1.542 -0.6939  0.0886  0.0258
10862TIP3    H154077   3.784   4.304   1.566 -0.7846  0.8585 -1.5263
10862TIP3    H254078   3.727   4.226   1.449 -2.1459 -0.2932 -0.1437
10863TIP3   OH254079   2.487   4.482  13.087 -0.4706  0.2372  0.0109
10863TIP3    H154080   2.504   4.388  13.099 -0.9420  0.2568  0.9167
10863TIP3    H254081   2.553   4.525  13.141 -1.0371  0.3879  0.5989
10864TIP3   OH254082   3.988   0.125   4.936  0.5256 -0.2559 -0.0390
10864TIP3    H154083   4.052   0.191   4.910  0.1821  0.2447  0.3917
10864TIP3    H254084   3.932   0.115   4.859  0.0777  0.5537  0.1722
10865TIP3   OH254085   4.538   0.490  14.408  0.6631  0.3526 -0.2774
10865TIP3    H154086   4.622   0.452  14.434  0.2408  1.7890  3.7931
10865TIP3    H254087   4.560   0.549  14.336  2.5783 -1.4508 -1.2982
10866TIP3   OH254088   6.330   3.174  14.839  0.3191 -0.2450 -0.5006
10866TIP3    H154089   6.349   3.106  14.774  1.4559 -0.4627  0.0376
10866TIP3    H254090   6.264   3.134  14.896  0.2379 -0.5154 -0.7796
10867TIP3   OH254091   1.067   4.008  14.808  0.1034 -0.2577 -0.8185
10867TIP3    H154092   1.073   4.006  14.904 -0.0455  0.3838 -0.7957
10867TIP3    H254093   0.979   4.039  14.790  0.3505  0.2488 -1.1658
10868TIP3   OH254094   0.824   6.146  12.829  0.2998 -0.3332  0.5279
10868TIP3    H154095   0.892   6.140  12.762 -0.4547 -0.6523 -0.2187
10868TIP3    H254096   0.761   6.208  12.794  0.3687  0.2376  1.3815
10869TIP3   OH254097   2.703   6.744   2.536  0.1386 -0.8674 -0.0254
10869TIP3    H154098   2.617   6.708   2.557  0.1043 -1.2926 -0.8604
10869TIP3    H254099   2.708   6.825   2.586 -1.7796  0.4839 -1.8868
10870TIP3   OH254100   6.565   0.088   2.978  0.3581  0.2734 -0.0235
10870TIP3    H154101   6.483   0.079   3.027  0.8440 -0.1480  0.7479
10870TIP3    H254102   6.632   0.053   3.038  1.2819  1.8059 -0.0953
10871TIP3   OH254103   3.407   1.083  15.196  0.0673  0.2309 -0.4194
10871TIP3    H154104   3.408   1.176  15.219  1.7290  0.2020 -0.2372
10871TIP3    H254105   3.326   1.071  15.147 -0.7113  1.5365  0.4960
10872TIP3   OH254106   3.790   0.283  13.396  0.8825  0.4212  0.3866
10872TIP3    H154107   3.709   0.311  13.353  1.6416  0.6507 -0.9779
10872TIP3    H254108   3.820   0.360  13.443  1.3769  1.0228 -0.8546
10873TIP3   OH254109   3.543   2.827  13.718  0.5353 -0.2325 -0.8342
10873TIP3    H154110   3.538   2.735  13.744 -0.9306  0.4393  1.6594
10873TIP3    H254111   3.474   2.837  13.653 -0.1383 -0.6734 -0.2113
10874TIP3   OH254112   2.811   3.910  12.287 -0.3944  0.5855 -0.4235
10874TIP3    H154113   2.809   4.006  12.298  1.5026  0.6076  0.1482
10874TIP3    H254114   2.757   3.894  12.210  0.0151  2.2271 -1.1155
10875TIP3   OH254115   3.564   2.919  14.320 -0.4189  0.2429  0.5782
10875TIP3    H154116   3.502   2.888  14.255  1.8237  0.6726 -1.9261
10875TIP3    H254117   3.536   2.877  14.402 -2.1169 -2.0432 -1.0475
10876TIP3   OH254118   0.767   3.687   2.770  0.0038 -0.2524  0.3324
10876TIP3    H154119   0.711   3.649   2.702  1.5125 -3.0629  0.4943
10876TIP3    H254120   0.851   3.702   2.727  0.7059 -1.2157  1.2752
10877TIP3   OH254121   4.519   4.862  11.524 -0.6052  0.6595 -0.4791
10877TIP3    H154122   4.588   4.837  11.463 -1.1128  0.6325 -1.0459
10877TIP3    H254123   4.561   4.925  11.583  0.1210  0.0259 -0.3083
10878TIP3   OH254124   4.391   1.155   3.119  0.4990 -0.0805  0.2288
10878TIP3    H154125   4.345   1.121   3.042 -0.2544  0.1339  0.5731
10878TIP3    H254126   4.452   1.085   3.142  0.3053 -0.4047 -0.2009
10879TIP3   OH254127   3.724   3.200  15.074  0.2762 -0.2549 -0.1872
10879TIP3    H154128   3.739   3.105  15.082 -0.8191 -0.2770  3.9500
10879TIP3    H254129   3.795   3.240  15.123  0.6587  1.1440 -1.7901
10880TIP3   OH254130   2.538   5.845  15.246  0.4233  0.1681 -0.3453
10880TIP3    H154131   2.560   5.918  15.188  1.6016  0.5395  0.5287
10880TIP3    H254132   2.621   5.797  15.257 -0.1059 -0.7191 -0.1051
10881TIP3   OH254133   3.534   4.008  15.253  0.1996 -0.1160 -0.0241
10881TIP3    H154134   3.443   3.993  15.279  0.6484 -1.0324  1.1103
10881TIP3    H254135   3.581   3.931  15.285  1.2900  0.0939 -1.0703
10882TIP3   OH254136   6.157   5.927   4.142 -0.4442 -0.5741 -0.2942
10882TIP3    H154137   6.149   5.987   4.068 -0.7311  0.8070  0.8284
10882TIP3    H254138   6.248   5.935   4.170 -0.7968  0.3113  0.6400
10883TIP3   OH254139   5.909   6.608  11.616 -0.0789 -0.0386 -0.2974
10883TIP3    H154140   5.967   6.532  11.610 -0.1661 -0.1714  0.5063
10883TIP3    H254141   5.894   6.620  11.709 -0.6777  0.5068 -0.4554
10884TIP3   OH254142   2.717   0.262   1.522 -0.0255 -0.5144  0.5761
10884TIP3    H154143   2.655   0.248   1.593  0.4954  0.5803  1.2693
10884TIP3    H254144   2.673   0.227   1.445 -0.3912 -2.2027  1.4985
10885TIP3   OH254145   0.634   3.737   6.051 -0.2693  0.5303 -0.0365
10885TIP3    H154146   0.630   3.804   6.119  1.4981  0.1441  0.5204
10885TIP3    H254147   0.585   3.663   6.087  2.2792 -0.4216  1.8275
10886TIP3   OH254148   3.815   2.622   2.753 -0.7562 -0.3587 -0.0428
10886TIP3    H154149   3.832   2.545   2.699 -0.4004  0.9316 -1.8737
10886TIP3    H254150   3.853   2.695   2.704 -4.2040  1.5417 -0.2304
10887TIP3   OH254151   2.473   6.407   0.586 -0.2286 -0.2139  0.0063
10887TIP3    H154152   2.427   6.450   0.514 -0.0288  1.4245  0.7983
10887TIP3    H254153   2.522   6.335   0.545 -2.5371 -1.2954 -1.0149
10888TIP3   OH254154   2.786   0.634   3.538  0.6140 -0.0388 -0.1707
10888TIP3    H154155   2.755   0.721   3.565 -0.0669  0.0315 -1.1329
10888TIP3    H254156   2.794   0.585   3.620 -0.2484  0.5301  0.2738
10889TIP3   OH254157   6.515   1.599   5.467 -0.0952 -0.4097  0.3223
10889TIP3    H154158   6.581   1.658   5.504  0.6725 -0.4433 -0.9422
10889TIP3    H254159   6.557   1.513   5.469  0.7412 -0.1553 -2.2607
10890TIP3   OH254160   6.689   1.241   3.639 -0.1296 -0.1997 -0.1099
10890TIP3    H154161   6.669   1.225   3.547  3.0091  1.0197 -1.1303
10890TIP3    H254162   6.758   1.308   3.638  0.7751 -0.8985  3.0731
10891TIP3   OH254163   2.080   0.645  10.258  0.7047  0.3742 -0.3128
10891TIP3    H154164   2.001   0.697  10.275  0.9945  0.7263 -0.0229
10891TIP3    H254165   2.047   0.564  10.219  0.2866  1.0737 -1.4993
10892TIP3   OH254166   3.062   2.546  13.198 -0.2716  0.0537  0.3268
10892TIP3    H154167   3.149   2.540  13.239 -0.1218 -0.9208 -0.1146
10892TIP3    H254168   3.077   2.519  13.107 -1.2208 -1.1648  0.5133
10893TIP3   OH254169   2.058   6.443   5.958 -0.2666 -0.0704  0.2315
10893TIP3    H154170   2.045   6.536   5.935 -1.1588 -0.4167 -0.7719
10893TIP3    H254171   2.123   6.412   5.896 -0.3638 -0.2421  0.2143
10894TIP3   OH254172   0.049   0.182  14.366  0.1565 -0.1574  0.1366
10894TIP3    H154173  -0.013   0.236  14.317 -1.1003 -0.2515  1.5620
10894TIP3    H254174   0.135   0.219  14.345 -0.5282  1.1583 -0.4339
10895TIP3   OH254175   4.573   6.112  11.761  0.1945 -0.1310  0.1431
10895TIP3    H154176   4.582   6.202  11.794 -2.8839  0.2015  0.3462
10895TIP3    H254177   4.544   6.123  11.670 -0.7350 -0.9008  0.3396
10896TIP3   OH254178   5.213   6.666   6.105  0.2092 -0.3666 -0.5418
10896TIP3    H154179   5.245   6.707   6.185  0.9857  0.7282 -1.3814
10896TIP3    H254180   5.120   6.649   6.121  0.1618  0.6088  0.2846
10897TIP3   OH254181   2.267   2.905  11.444 -0.0512  0.1044  0.6337
10897TIP3    H154182   2.194   2.864  11.397 -0.0715 -1.1273  1.6832
10897TIP3    H254183   2.342   2.895  11.385 -0.5413  0.6671 -0.1109
10898TIP3   OH254184   3.451   1.280   5.069  0.0701 -0.4444 -0.1200
10898TIP3    H154185   3.423   1.333   5.144  1.2035  0.8499 -0.5685
10898TIP3    H254186   3.535   1.243   5.096  0.5806  0.1875 -0.7909
10899TIP3   OH254187   1.271   1.263  14.413 -0.1170 -0.0552  0.2070
10899TIP3    H154188   1.364   1.245  14.405  0.0499  1.2779 -1.3867
10899TIP3    H254189   1.267   1.352  14.447 -0.8620 -0.8043  2.2405
10900TIP3   OH254190   2.701   1.906  12.981  0.1670  0.2795 -0.1701
10900TIP3    H154191   2.696   1.831  12.922 -0.4177  0.0767  0.1332
10900TIP3    H254192   2.616   1.910  13.023  0.4097  0.7270  0.2979
10901TIP3   OH254193   0.162   2.259   3.851  0.1694  0.0543 -0.1112
10901TIP3    H154194   0.081   2.237   3.898  0.0943 -0.6914 -0.5734
10901TIP3    H254195   0.231   2.246   3.916  0.2472 -2.6902 -0.6112
10902TIP3   OH254196   2.701   5.244   5.984 -0.4211 -0.2355  0.3442
10902TIP3    H154197   2.711   5.286   6.070  0.7921 -2.1432  1.2159
10902TIP3    H254198   2.639   5.299   5.937 -1.6024  0.5444  2.6736
10903TIP3   OH254199   1.372   2.609   3.045 -0.3022  0.0521 -0.1167
10903TIP3    H154200   1.368   2.565   3.130  0.9647  0.9419  0.4317
10903TIP3    H254201   1.416   2.546   2.988 -1.1958 -0.5656 -0.1442
10904TIP3   OH254202   2.136   5.935   1.149  0.6187  0.0244 -0.2336
10904TIP3    H154203   2.043   5.913   1.144  0.2746  1.0709  1.0767
10904TIP3    H254204   2.138   6.029   1.165  1.8917 -0.0945  0.4392
10905TIP3   OH254205   2.369   5.137   5.712 -0.2611  0.3969 -0.6004
10905TIP3    H154206   2.319   5.055   5.718 -1.7971  1.3531  0.4162
10905TIP3    H254207   2.414   5.132   5.628  0.3160 -1.8151 -0.2223
10906TIP3   OH254208   6.655   2.541   2.157 -0.1109  0.3401 -0.0661
10906TIP3    H154209   6.576   2.493   2.178 -0.7005  1.2539 -0.1480
10906TIP3    H254210   6.624   2.622   2.116  0.8674  0.6294 -0.2629
10907TIP3   OH254211   1.147   1.470  11.524 -0.0901  0.3600 -0.0898
10907TIP3    H154212   1.141   1.523  11.444  0.5152  2.0290  0.9195
10907TIP3    H254213   1.094   1.517  11.588 -0.2176 -0.7246  0.6143
10908TIP3   OH254214   2.489   1.403  11.787 -0.1248 -0.3086  0.4328
10908TIP3    H154215   2.557   1.395  11.855  0.4722 -0.5007 -0.1754
10908TIP3    H254216   2.440   1.481  11.812  0.9444  0.4115  0.3492
10909TIP3   OH254217   0.713   0.788  11.172  0.2850  0.3687 -0.1863
10909TIP3    H154218   0.808   0.802  11.173  0.3422  0.5884 -2.6070
10909TIP3    H254219   0.676   0.876  11.165 -0.0791  0.2384  0.0760
10910TIP3   OH254220   2.733   4.323   6.108  0.7875  0.4144  0.1863
10910TIP3    H154221   2.776   4.405   6.085  0.3446  0.1630 -1.6917
10910TIP3    H254222   2.802   4.257   6.098  0.8862  0.4320  0.7266
10911TIP3   OH254223   6.133   5.422   4.196  0.1731 -0.8024  0.2335
10911TIP3    H154224   6.077   5.413   4.273  0.2209  0.5494  0.4388
10911TIP3    H254225   6.219   5.393   4.225  0.5229  0.9901  1.1265
10912TIP3   OH254226   0.148   3.010  12.704  0.0855 -0.1192 -0.4448
10912TIP3    H154227   0.102   2.971  12.779  0.8665 -2.8582 -1.2596
10912TIP3    H254228   0.152   2.939  12.640  1.3750  1.4691 -2.2202
10913TIP3   OH254229   1.504   0.417  17.169  0.3581 -0.2446  0.5142
10913TIP3    H154230   1.518   0.430  17.262 -1.3218  1.4677  0.5986
10913TIP3    H254231   1.440   0.346  17.163  1.2951 -1.1177  0.5781
10914TIP3   OH254232   6.079   0.096  11.906 -0.2838  0.6456 -0.4204
10914TIP3    H154233   6.146   0.085  11.839 -0.7450 -0.1209 -0.7631
10914TIP3    H254234   6.093   0.025  11.967 -0.8615  0.4006 -0.5639
10915TIP3   OH254235   4.296   6.682  12.953 -0.6258  0.7929  0.2707
10915TIP3    H154236   4.377   6.701  12.905  1.5156  0.5688  3.5214
10915TIP3    H254237   4.282   6.588  12.941  0.3925  0.5654  0.7795
10916TIP3   OH254238   2.309   4.534  11.228 -0.0493 -0.3222 -0.1183
10916TIP3    H154239   2.221   4.532  11.267  0.2571  0.5711  0.6527
10916TIP3    H254240   2.293   4.530  11.134 -1.0774  2.1869 -0.1249
10917TIP3   OH254241   6.449   1.705   2.980 -0.4340  0.3825 -0.9943
10917TIP3    H154242   6.369   1.707   3.034 -0.5814 -1.1483 -1.1270
10917TIP3    H254243   6.435   1.633   2.918  0.9732  0.2087 -1.1433
10918TIP3   OH254244   1.834   5.690  14.749 -0.1184  0.4735 -0.7717
10918TIP3    H154245   1.765   5.755  14.734  1.5049  2.0252 -1.7972
10918TIP3    H254246   1.912   5.727  14.709  1.1206 -1.6916 -0.5275
10919TIP3   OH254247   4.250   0.130   5.552 -0.0846  0.3837 -0.0071
10919TIP3    H154248   4.237   0.083   5.634 -0.6737 -0.7331 -0.7072
10919TIP3    H254249   4.335   0.100   5.521 -0.1814  0.2554 -0.1501
10920TIP3   OH254250   0.184   2.475   3.080 -0.1802  0.2707 -0.5317
10920TIP3    H154251   0.185   2.551   3.139  0.0841 -0.1881  0.0637
10920TIP3    H254252   0.091   2.455   3.068 -0.2243  0.1436  0.0201
10921TIP3   OH254253   4.465   3.800   4.392  0.7203 -0.6207 -0.3369
10921TIP3    H154254   4.462   3.704   4.395 -0.1605 -0.6340 -1.2666
10921TIP3    H254255   4.379   3.828   4.425  1.3351 -0.1034  0.9028
10922TIP3   OH254256   6.111   4.920  12.716 -0.4733  0.2285 -0.0409
10922TIP3    H154257   6.127   4.962  12.632  1.8830  1.5741  0.9619
10922TIP3    H254258   6.057   4.983  12.764  0.3982  0.7254  0.3297
10923TIP3   OH254259   5.618   2.114  11.544 -0.3240  0.4395  0.2069
10923TIP3    H154260   5.578   2.131  11.458 -0.5217  0.0261  0.2143
10923TIP3    H254261   5.545   2.083  11.598 -0.5446  2.2130  0.9955
10924TIP3   OH254262   2.494   1.156   4.874 -0.6504  0.1790  0.2379
10924TIP3    H154263   2.412   1.199   4.897 -1.9292 -1.2332 -1.4032
10924TIP3    H254264   2.561   1.222   4.891 -1.9879  1.0825  2.4682
10925TIP3   OH254265   6.515   6.812  11.118 -0.1571  0.0405  0.3179
10925TIP3    H154266   6.559   6.882  11.070 -1.4951  0.5930 -0.1351
10925TIP3    H254267   6.477   6.756  11.050 -1.4425  0.4153  0.7064
10926TIP3   OH254268   3.047   2.477   4.666  0.5404 -0.2247 -0.3669
10926TIP3    H154269   3.079   2.440   4.584  1.4419 -0.4562  0.0680
10926TIP3    H254270   2.973   2.422   4.690 -0.8848  0.9258 -1.9042
10927TIP3   OH254271   1.776   0.222   0.701  0.1271  0.0647 -0.0861
10927TIP3    H154272   1.871   0.211   0.701 -0.0744 -2.2367  0.5733
10927TIP3    H254273   1.754   0.243   0.792 -0.1022 -1.0354  0.1304
10928TIP3   OH254274   5.539   1.780   0.411 -0.3887  0.2628 -0.2629
10928TIP3    H154275   5.511   1.847   0.472  0.7398 -0.6028  1.2525
10928TIP3    H254276   5.624   1.809   0.379 -0.1239 -0.2030  0.0130
10929TIP3   OH254277   4.631   5.540   2.795 -0.5701  0.2854  0.3895
10929TIP3    H154278   4.581   5.601   2.741 -0.2971 -0.3195 -0.5721
10929TIP3    H254279   4.643   5.462   2.740 -0.5259 -0.4676  1.4227
10930TIP3   OH254280   0.832   5.229  12.484 -0.0175 -0.0887 -0.5695
10930TIP3    H154281   0.757   5.276  12.447 -0.3471 -1.2294 -1.4417
10930TIP3    H254282   0.815   5.137  12.462  0.2814 -0.7311  1.5962
10931TIP3   OH254283   3.378   5.991   3.497 -0.0535 -0.0445 -0.5482
10931TIP3    H154284   3.341   6.064   3.546  2.6756  0.3923  1.0721
10931TIP3    H254285   3.439   6.031   3.435  0.7992 -0.8501 -0.2696
10932TIP3   OH254286   0.714   5.497  10.711  0.0195 -0.0968  0.1369
10932TIP3    H154287   0.652   5.551  10.663  1.4096  1.0265 -0.4758
10932TIP3    H254288   0.731   5.423  10.653 -2.1897 -1.5066  1.1417
10933TIP3   OH254289   3.483   1.450   3.552  0.2098 -0.1023  0.4698
10933TIP3    H154290   3.515   1.474   3.465 -0.8626  1.3316  0.4338
10933TIP3    H254291   3.401   1.403   3.535 -0.4560  0.9443  0.7146
10934TIP3   OH254292   2.851   0.577  13.284  0.0341  0.2776 -0.4528
10934TIP3    H154293   2.830   0.484  13.279  0.5041  0.2386 -2.2104
10934TIP3    H254294   2.774   0.617  13.326  0.0840 -0.9453  0.8725
10935TIP3   OH254295   3.295   0.344  15.107  0.8043  0.0143  0.7748
10935TIP3    H154296   3.295   0.336  15.012 -0.2583  0.0918  0.7584
10935TIP3    H254297   3.384   0.372  15.129  0.0098  4.3162 -0.5958
10936TIP3   OH254298   2.783   0.097   3.893  0.6239 -0.2013 -0.4894
10936TIP3    H154299   2.848   0.058   3.835  0.2941 -1.4499 -0.0461
10936TIP3    H254300   2.699   0.073   3.854  0.4057  1.0145 -0.8073
10937TIP3   OH254301   6.685   4.048  13.377  0.5044  0.0807 -0.0290
10937TIP3    H154302   6.635   3.979  13.334  1.1277  0.1453 -0.8785
10937TIP3    H254303   6.646   4.054  13.464 -0.9658  0.1313 -0.6484
10938TIP3   OH254304   1.040   5.210  14.037 -0.1003  0.3212 -0.1333
10938TIP3    H154305   1.097   5.150  13.989 -0.4922  2.1512 -3.1008
10938TIP3    H254306   0.961   5.160  14.055 -0.0005 -0.3873 -1.5881
10939TIP3   OH254307   4.077   0.424  10.895 -0.2147  0.1773 -0.1135
10939TIP3    H154308   4.135   0.495  10.866 -0.3063  0.1572 -0.3485
10939TIP3    H254309   4.080   0.361  10.823  2.1823 -1.4606  1.2648
10940TIP3   OH254310   2.969   5.698  11.759  0.2262  0.0759 -0.4469
10940TIP3    H154311   2.879   5.723  11.783  0.0918 -0.1371 -0.7254
10940TIP3    H254312   2.958   5.626  11.698  0.6262 -1.0500  0.7636
10941TIP3   OH254313   5.549   3.611  13.042 -0.0225  0.0923 -0.1010
10941TIP3    H154314   5.461   3.622  13.078 -0.2098 -2.8849  0.6148
10941TIP3    H254315   5.541   3.537  12.981  1.7598  0.5150 -0.9197
10942TIP3   OH254316   4.011   4.854   4.808  0.1102  0.1698  0.2908
10942TIP3    H154317   3.940   4.847   4.744 -0.0611 -0.4528  0.5447
10942TIP3    H254318   4.088   4.819   4.762  0.0850  0.1359  0.2738
10943TIP3   OH254319   6.370   0.211   2.800  0.6141  0.1110  0.3835
10943TIP3    H154320   6.459   0.229   2.769  0.2777  1.3088  0.0744
10943TIP3    H254321   6.382   0.180   2.890  1.6098 -3.3887 -0.7848
10944TIP3   OH254322   6.632   2.163   3.166 -0.1629 -0.0653 -0.2169
10944TIP3    H154323   6.653   2.226   3.235 -1.7082  0.0554  0.1821
10944TIP3    H254324   6.653   2.208   3.084 -0.7663  0.7887  0.0867
10945TIP3   OH254325   2.624   4.594  11.500  0.4318 -0.5068 -0.3543
10945TIP3    H154326   2.701   4.568  11.550 -0.4478 -1.5816  0.4890
10945TIP3    H254327   2.578   4.512  11.481 -1.4568  0.2197  0.7725
10946TIP3   OH254328   6.707   0.168  13.400 -0.2155 -0.9900  0.6914
10946TIP3    H154329   6.649   0.226  13.450  0.6185  1.7593 -1.2631
10946TIP3    H254330   6.795   0.195  13.426  0.1980 -1.0820 -0.5576
10947TIP3   OH254331   3.900   6.664  16.562  0.3560  0.0284  0.1830
10947TIP3    H154332   3.914   6.745  16.611  0.3505  0.1919 -0.0864
10947TIP3    H254333   3.943   6.597  16.615 -0.7929 -0.0225  1.0909
10948TIP3   OH254334   0.452   3.340   4.999  0.0587  0.6112 -0.0927
10948TIP3    H154335   0.480   3.404   4.933  0.5466 -0.6530 -1.1522
10948TIP3    H254336   0.382   3.291   4.956  0.5242 -0.3629  0.2392
10949TIP3   OH254337   2.137   3.435   0.216  0.0671 -0.4190  0.3858
10949TIP3    H154338   2.207   3.500   0.215  1.4158 -1.8160  0.9689
10949TIP3    H254339   2.096   3.444   0.130  0.1408  1.2604  0.4912
10950TIP3   OH254340   0.123   4.450  14.447 -0.3003 -0.2114  0.2147
10950TIP3    H154341   0.173   4.418  14.522  1.0898 -0.7395 -0.8908
10950TIP3    H254342   0.075   4.525  14.480  0.7281 -0.0805  1.4968
10951TIP3   OH254343   5.856   6.787   6.422 -0.2215  0.5350  0.7167
10951TIP3    H154344   5.810   6.864   6.457 -0.1477  0.0497  1.9099
10951TIP3    H254345   5.938   6.823   6.386 -0.9747  1.2380 -0.3430
10952TIP3   OH254346   0.953   6.269   0.392  0.4768 -0.0878 -0.4409
10952TIP3    H154347   0.890   6.340   0.405  0.0729 -0.6293  0.6270
10952TIP3    H254348   1.039   6.312   0.398  0.2723  0.1528  1.4270
10953TIP3   OH254349   2.951   2.606   5.878  0.3702 -0.7481  0.8604
10953TIP3    H154350   2.913   2.527   5.839 -0.1303  0.2551 -0.7729
10953TIP3    H254351   3.042   2.583   5.897  0.0182 -1.9515  1.1377
10954TIP3   OH254352   3.997   4.103   1.752  0.1355  0.6357 -0.1136
10954TIP3    H154353   4.058   4.069   1.687 -0.6770  1.3183 -1.2649
10954TIP3    H254354   3.914   4.059   1.733 -0.1788  1.0306  0.2958
10955TIP3   OH254355   1.457   2.326   2.225 -0.1624  0.2937  0.6404
10955TIP3    H154356   1.547   2.359   2.224 -0.1617  0.3482 -1.4160
10955TIP3    H254357   1.403   2.403   2.239  0.0276  0.5781 -0.1597
10956TIP3   OH254358   1.319   3.322  16.186 -0.0121  0.2435  0.3611
10956TIP3    H154359   1.231   3.357  16.170  0.2408  0.6173 -0.2114
10956TIP3    H254360   1.376   3.373  16.129  0.7089  0.6197  1.3976
10957TIP3   OH254361   1.575   6.238   5.001 -0.3137  0.1039 -0.0518
10957TIP3    H154362   1.668   6.226   5.019  0.2645  2.9115 -0.7560
10957TIP3    H254363   1.546   6.301   5.067 -1.5252 -0.0810 -0.3761
10958TIP3   OH254364   0.301   0.921   0.768 -0.5018  0.1769 -0.7480
10958TIP3    H154365   0.375   0.982   0.760  1.8570 -1.8715  2.5574
10958TIP3    H254366   0.314   0.859   0.697  2.1265 -1.0787  0.6845
10959TIP3   OH254367   6.671   0.939  14.967  0.2587 -0.3358  0.4815
10959TIP3    H154368   6.671   0.851  15.004  0.6709  0.1649  1.6906
10959TIP3    H254369   6.605   0.934  14.897  0.7819 -1.7882  0.0409
10960TIP3   OH254370   2.722   1.663  16.930  0.3659 -0.1528  0.2660
10960TIP3    H154371   2.696   1.678  16.839  1.3636 -1.7128 -0.3167
10960TIP3    H254372   2.640   1.643  16.975 -0.1039  0.3748 -0.3279
10961TIP3   OH254373   4.073   1.340  13.637 -0.1693  0.1114 -0.5430
10961TIP3    H154374   4.012   1.282  13.591 -3.3151  1.2057  1.8343
10961TIP3    H254375   4.074   1.420  13.585 -0.7626  0.0798 -0.6061
10962TIP3   OH254376   2.917   2.008  10.852 -0.4306 -0.1004 -0.1868
10962TIP3    H154377   2.863   1.929  10.847  0.1038 -0.4338 -0.7597
10962TIP3    H254378   3.006   1.978  10.834 -0.3230  0.7504 -1.1321
10963TIP3   OH254379   3.515   2.255   2.098 -0.0979 -0.5453 -0.1501
10963TIP3    H154380   3.513   2.174   2.046 -0.8081 -1.5734  1.4133
10963TIP3    H254381   3.431   2.257   2.143  0.0460  0.9144  0.0927
10964TIP3   OH254382   1.807   4.371   4.898 -0.7553 -0.2394  0.7184
10964TIP3    H154383   1.791   4.455   4.856 -0.7948  0.0880  1.3794
10964TIP3    H254384   1.782   4.384   4.990  1.1864 -0.3479  1.3169
10965TIP3   OH254385   6.385   3.820   5.750  0.0830  0.1931 -0.1160
10965TIP3    H154386   6.365   3.793   5.661 -0.2012 -2.2598  0.6119
10965TIP3    H254387   6.351   3.749   5.805 -1.0282  2.2732  2.0724
10966TIP3   OH254388   1.719   2.298   4.727  0.1592  0.0767  0.5015
10966TIP3    H154389   1.767   2.251   4.659  0.0756  0.5683  0.1009
10966TIP3    H254390   1.629   2.304   4.693  0.2363  0.7799  0.4261
10967TIP3   OH254391   1.702   2.288   0.734  0.2890  0.0445  0.3512
10967TIP3    H154392   1.621   2.262   0.778  0.3962 -0.1955  0.4087
10967TIP3    H254393   1.684   2.375   0.699  0.1903  0.2200  0.8391
10968TIP3   OH254394   4.209   6.151  15.278 -0.2392 -0.2564 -0.0783
10968TIP3    H154395   4.239   6.114  15.361  1.6316 -0.9606 -0.9960
10968TIP3    H254396   4.284   6.202  15.246 -0.8744 -0.0984 -1.3961
10969TIP3   OH254397   0.374   2.570   0.783  0.0229  0.2573  0.2390
10969TIP3    H154398   0.298   2.536   0.829 -1.0987 -0.0526 -1.7301
10969TIP3    H254399   0.351   2.564   0.690  2.4298  0.2130 -0.4279
10970TIP3   OH254400   5.483   1.396   6.122  0.1669 -0.5939 -0.2275
10970TIP3    H154401   5.577   1.389   6.134  0.1725 -1.1610 -0.5453
10970TIP3    H254402   5.446   1.337   6.187 -0.0694  1.0700  1.2341
10971TIP3   OH254403   3.604   1.999  13.677 -0.2945 -0.0903  0.3840
10971TIP3    H154404   3.577   1.914  13.713  0.6353 -0.5571  0.0245
10971TIP3    H254405   3.690   2.015  13.716  0.8727 -0.7417 -1.7558
10972TIP3   OH254406   3.431   5.264  11.695  0.1909  0.1222 -0.2609
10972TIP3    H154407   3.383   5.202  11.750  0.6692 -1.1717 -1.2707
10972TIP3    H254408   3.362   5.314  11.650 -0.1970 -0.3323 -0.1788
10973TIP3   OH254409   1.487   2.777  10.449 -0.4977  0.1430  0.5029
10973TIP3    H154410   1.430   2.808  10.520  0.0889 -1.6354  1.8214
10973TIP3    H254411   1.427   2.744  10.382 -1.0476  1.3254  0.3965
10974TIP3   OH254412   2.020   2.210   2.595 -0.7221  0.1841 -0.0623
10974TIP3    H154413   2.090   2.201   2.531 -1.4105 -1.4534 -0.6586
10974TIP3    H254414   2.064   2.240   2.675  0.1238  2.4044 -1.2980
10975TIP3   OH254415   5.688   0.174  16.864  0.3054  0.0316  0.2218
10975TIP3    H154416   5.708   0.219  16.782 -0.4764  0.9500  0.5146
10975TIP3    H254417   5.645   0.093  16.837  1.7763 -0.6156 -0.3152
10976TIP3   OH254418   3.755   0.774  15.815  0.3941 -0.0799  0.0824
10976TIP3    H154419   3.833   0.728  15.845  0.7837  0.5613  0.0707
10976TIP3    H254420   3.730   0.829  15.889  0.3628  0.2372 -0.1619
10977TIP3   OH254421   1.888   3.378  14.681  0.3610 -0.2757 -0.0158
10977TIP3    H154422   1.831   3.449  14.711  1.8081  1.0480 -0.2201
10977TIP3    H254423   1.864   3.303  14.734 -1.2116  0.3736  0.2378
10978TIP3   OH254424   5.151   3.874  12.961 -0.1148 -0.6098  0.0319
10978TIP3    H154425   5.232   3.895  13.008  0.5000 -1.6107 -0.5455
10978TIP3    H254426   5.083   3.918  13.011  0.4346 -2.1452  2.2841
10979TIP3   OH254427   6.654   0.512   0.171 -0.2903  0.0678  0.4475
10979TIP3    H154428   6.637   0.497   0.264 -0.8444 -1.0266  0.1736
10979TIP3    H254429   6.693   0.431   0.140 -0.9051  0.1123 -0.4735
10980TIP3   OH254430   0.461   2.844   2.751 -0.0411 -0.1830  0.4869
10980TIP3    H154431   0.518   2.778   2.713 -0.2241  0.0227 -0.1726
10980TIP3    H254432   0.520   2.906   2.793  0.1860 -0.2800  0.3123
10981TIP3   OH254433   4.284   4.355  12.681 -0.0441  0.4311 -0.1778
10981TIP3    H154434   4.296   4.268  12.642 -1.7031 -0.4055  1.0500
10981TIP3    H254435   4.329   4.415  12.622 -1.6810 -0.8410 -2.8917
10982TIP3   OH254436   3.218   4.738   3.001  0.4581  0.7913  0.2209
10982TIP3    H154437   3.226   4.771   3.091  1.5044 -0.9620  0.8068
10982TIP3    H254438   3.306   4.746   2.965  0.5722 -0.6369  0.1339
10983TIP3   OH254439   0.826   0.378   2.744  0.0220  0.1748 -0.0741
10983TIP3    H154440   0.853   0.465   2.714 -2.8675  1.4489  0.6619
10983TIP3    H254441   0.841   0.380   2.839 -1.1237  0.3529  0.1187
10984TIP3   OH254442   3.046   1.421  13.202 -0.4026 -0.3020  0.1868
10984TIP3    H154443   3.091   1.346  13.241  1.0535  0.5907  0.2969
10984TIP3    H254444   3.116   1.473  13.161 -1.6692 -0.3428 -2.2029
10985TIP3   OH254445   0.123   5.207   3.549  0.2240 -0.5037  0.2148
10985TIP3    H154446   0.199   5.260   3.573  0.0109  1.2580 -2.5590
10985TIP3    H254447   0.051   5.242   3.602  0.0568  2.3048 -1.6217
10986TIP3   OH254448   3.018   0.468  10.285 -0.1394  0.1239  0.3361
10986TIP3    H154449   3.043   0.520  10.360 -0.8044 -0.5485  1.0413
10986TIP3    H254450   2.959   0.524  10.235  0.0743  0.4628  0.4573
10987TIP3   OH254451   1.220   5.473   5.463  0.1803 -0.2353  0.3318
10987TIP3    H154452   1.159   5.401   5.446  0.9657 -0.6271 -1.0384
10987TIP3    H254453   1.307   5.433   5.459  0.6406  0.7901 -0.5865
10988TIP3   OH254454   0.801   5.984  11.750  0.2782 -0.3705  0.0937
10988TIP3    H154455   0.758   5.900  11.735 -1.5671  0.4920  0.2735
10988TIP3    H254456   0.858   5.969  11.825 -0.8458 -1.1992  0.8074
10989TIP3   OH254457   0.811   4.832  16.520  0.0613  0.1154 -0.5839
10989TIP3    H154458   0.811   4.824  16.425  0.2635  0.1339 -0.5865
10989TIP3    H254459   0.787   4.745  16.551 -0.5529  0.2517 -0.6590
10990TIP3   OH254460   6.821   5.153   1.806 -0.4745 -0.3318  0.6150
10990TIP3    H154461   6.863   5.117   1.728 -0.1563  0.9136  0.1976
10990TIP3    H254462   6.728   5.157   1.783 -0.1600  1.9147 -0.5086
10991TIP3   OH254463   4.461   3.178   1.762 -0.2363 -0.9897  0.4307
10991TIP3    H154464   4.502   3.264   1.771 -2.3521  0.5972 -2.8358
10991TIP3    H254465   4.527   3.124   1.719  0.0739  0.0649 -0.4670
10992TIP3   OH254466   4.383   0.168  13.571 -0.4484 -0.4679 -0.2411
10992TIP3    H154467   4.442   0.129  13.634  0.1451 -0.4423 -0.7710
10992TIP3    H254468   4.350   0.093  13.520  1.3898 -0.2643 -1.8604
10993TIP3   OH254469   2.166   6.779   5.703  0.0192  0.3917 -0.0521
10993TIP3    H154470   2.106   6.706   5.716  1.4574 -1.1364 -1.4903
10993TIP3    H254471   2.189   6.809   5.791 -2.8782  1.1404  0.5541
10994TIP3   OH254472   5.228   1.202  13.668  0.0007 -0.3055 -0.0868
10994TIP3    H154473   5.162   1.135  13.685  0.7318 -0.8667  0.6744
10994TIP3    H254474   5.185   1.284  13.691 -0.3831 -0.6800  0.5886
10995TIP3   OH254475   4.304   5.194   5.365  0.8666  0.0510  0.4580
10995TIP3    H154476   4.234   5.245   5.406 -0.2852  0.2871 -1.6542
10995TIP3    H254477   4.382   5.249   5.375  0.6779  0.0376  2.3706
10996TIP3   OH254478   2.350   3.176   2.920  0.2607 -0.2786 -0.3669
10996TIP3    H154479   2.298   3.120   2.861  1.3564 -1.7290 -0.0080
10996TIP3    H254480   2.420   3.119   2.952  1.6861  1.4277 -0.2940
10997TIP3   OH254481   3.283   1.463  12.894 -0.0310 -0.3145  0.6152
10997TIP3    H154482   3.266   1.522  12.967 -0.6374  1.1861 -0.6646
10997TIP3    H254483   3.197   1.431  12.868 -0.1005  0.9310 -0.8077
10998TIP3   OH254484   6.058   6.768   0.984 -0.3816 -0.2860  0.7576
10998TIP3    H154485   6.070   6.830   1.056  1.5896  0.7724 -0.3840
10998TIP3    H254486   6.035   6.823   0.908  1.9365 -0.7865 -0.4066
10999TIP3   OH254487   5.309   6.611   4.163  0.4856 -0.0573  0.8818
10999TIP3    H154488   5.256   6.562   4.226 -1.9188 -0.4375 -1.2553
10999TIP3    H254489   5.270   6.590   4.078  1.8893  2.4794 -0.5034
11000TIP3   OH254490   5.313   0.361  17.061  0.1100  0.9257  0.6816
11000TIP3    H154491   5.281   0.430  17.119 -0.0970  1.0565  0.4093
11000TIP3    H254492   5.237   0.335  17.009  0.0708  0.1817  1.0900
11001TIP3   OH254493   1.547   6.129   0.898 -0.4241  0.3008 -0.4982
11001TIP3    H154494   1.598   6.164   0.825  0.2126  0.1128 -0.1517
11001TIP3    H254495   1.594   6.158   0.977  2.0192 -3.8599 -0.1469
11002TIP3   OH254496   3.541   0.033  12.852 -0.0102  0.3498 -0.3271
11002TIP3    H154497   3.609   0.039  12.920  0.3506 -1.2835 -0.4948
11002TIP3    H254498   3.589   0.046  12.770 -0.2628  1.2170 -0.3482
11003TIP3   OH254499   0.963   3.218   2.963 -0.2038 -0.3786  0.4197
11003TIP3    H154500   0.973   3.126   2.935 -0.3260  0.0368 -1.0679
11003TIP3    H254501   1.008   3.268   2.895 -2.7681  0.8639 -0.4667
11004TIP3   OH254502   5.327   4.457  12.512 -0.1168 -0.0346  0.6047
11004TIP3    H154503   5.400   4.518  12.516 -0.6699  0.5764  2.3898
11004TIP3    H254504   5.267   4.487  12.580 -1.0912 -1.7151  0.5422
11005TIP3   OH254505   0.417   1.345  11.618  0.0537 -0.4709 -0.1295
11005TIP3    H154506   0.503   1.305  11.606 -0.2633 -1.1499 -0.1890
11005TIP3    H254507   0.355   1.273  11.607 -0.4801 -0.1709  0.8396
11006TIP3   OH254508   3.846   5.481   5.879 -0.3362  0.2254 -0.0591
11006TIP3    H154509   3.873   5.535   5.805  4.4369  0.0665  1.1899
11006TIP3    H254510   3.824   5.544   5.948 -1.2430  0.4253 -0.5230
11007TIP3   OH254511   3.972   4.841   4.512 -0.0766  0.1504  0.4657
11007TIP3    H154512   3.929   4.764   4.476  0.0954  0.4021 -0.2820
11007TIP3    H254513   4.057   4.808   4.542  0.0548  0.0789  0.0172
11008TIP3   OH254514   6.065   0.359   2.362  0.3576 -0.1862  0.3069
11008TIP3    H154515   6.108   0.332   2.281  1.4020  0.9262  0.4563
11008TIP3    H254516   6.035   0.448   2.344  0.3640 -0.0317  1.0434
11009TIP3   OH254517   4.659   1.982  15.387  0.6108  0.1042  0.0647
11009TIP3    H154518   4.621   1.926  15.320  1.2075  0.7895 -0.8771
11009TIP3    H254519   4.738   2.018  15.346  1.3632  0.0207  1.3714
11010TIP3   OH254520   4.873   6.282   2.371  0.3017  0.2832  0.3668
11010TIP3    H154521   4.904   6.208   2.319  0.4827  0.9662 -0.5249
11010TIP3    H254522   4.953   6.322   2.404  0.3179  1.1411 -0.6639
11011TIP3   OH254523   3.837   1.839   5.961  0.4084 -0.0945  0.1628
11011TIP3    H154524   3.787   1.883   5.891  2.2971 -0.0821 -1.2574
11011TIP3    H254525   3.829   1.746   5.941  0.2800 -0.1407  0.4238
11012TIP3   OH254526   1.849   6.374  14.527  0.4620 -0.5585  0.0683
11012TIP3    H154527   1.848   6.413  14.440  1.9945 -0.6965 -0.0334
11012TIP3    H254528   1.786   6.303  14.522 -0.5409  0.3337 -0.4759
11013TIP3   OH254529   4.433   4.476   0.214 -0.6227 -0.1002  0.2549
11013TIP3    H154530   4.424   4.490   0.308  1.1522 -2.0542  0.7708
11013TIP3    H254531   4.510   4.526   0.189  2.0413 -3.5409  0.9384
11014TIP3   OH254532   3.969   2.359  15.073  0.6610 -0.3958  0.5350
11014TIP3    H154533   4.039   2.324  15.129 -1.1259 -3.9059  0.8396
11014TIP3    H254534   3.922   2.421  15.129  3.5203  2.2548  0.2441
11015TIP3   OH254535   0.939   3.871   4.834 -0.2099  0.1824 -0.3250
11015TIP3    H154536   1.030   3.848   4.850 -0.0671  0.2265 -1.0546
11015TIP3    H254537   0.902   3.793   4.792 -0.2406  0.5357 -0.9627
11016TIP3   OH254538   3.219   1.720   3.650  0.1786  0.6404 -0.5119
11016TIP3    H154539   3.271   1.800   3.651 -0.1563  0.8652 -0.5758
11016TIP3    H254540   3.237   1.678   3.734  0.4217  0.7437 -0.5137
11017TIP3   OH254541   0.597   1.470   5.253 -0.2223  0.5036 -0.1296
11017TIP3    H154542   0.650   1.503   5.326 -0.4495  1.6873 -0.4911
11017TIP3    H254543   0.554   1.392   5.288 -1.5544  1.9158  1.5170
11018TIP3   OH254544   4.930   0.850  12.254 -0.0174  0.0448  0.0766
11018TIP3    H154545   4.925   0.928  12.198 -0.0537 -0.2310 -0.3074
11018TIP3    H254546   4.842   0.812  12.249  0.4147 -0.8832 -1.0001
11019TIP3   OH254547   4.674   3.603  11.501 -0.2608  0.0140  0.0274
11019TIP3    H154548   4.743   3.637  11.557 -1.5145  2.2363  0.3534
11019TIP3    H254549   4.711   3.606  11.412  0.2046  0.7688  0.2425
11020TIP3   OH254550   2.319   5.096  12.485  0.3255 -0.1163 -0.9319
11020TIP3    H154551   2.304   5.010  12.525 -0.5033 -0.0791 -1.1325
11020TIP3    H254552   2.364   5.077  12.403 -0.1563 -0.3958 -1.1383
11021TIP3   OH254553   0.716   4.843  11.555  0.1478 -0.0954  0.4245
11021TIP3    H154554   0.809   4.846  11.530  0.5608 -0.1700  1.8496
11021TIP3    H254555   0.676   4.914  11.505  1.2346  0.7555  0.7012
11022TIP3   OH254556   3.785   2.382   0.216  0.1977  0.1789 -0.4160
11022TIP3    H154557   3.845   2.451   0.244 -0.3551  0.8184 -0.7843
11022TIP3    H254558   3.699   2.425   0.212 -0.6505 -1.1067  1.7954
11023TIP3   OH254559   1.819   4.015  13.515  0.1798  0.0729  0.7913
11023TIP3    H154560   1.742   4.046  13.563 -1.1216 -1.2673 -0.3522
11023TIP3    H254561   1.841   3.932  13.556 -0.2322 -0.5174 -0.1455
11024TIP3   OH254562   3.360   6.220  16.847  0.2721 -0.1748  0.2972
11024TIP3    H154563   3.415   6.249  16.774 -1.4164 -0.4918 -1.1659
11024TIP3    H254564   3.336   6.130  16.825 -0.9523  0.0081  0.7933
11025TIP3   OH254565   3.335   2.456  15.897 -0.6650  0.1265 -0.9179
11025TIP3    H154566   3.386   2.391  15.946  1.6572  1.6507 -1.1819
11025TIP3    H254567   3.298   2.513  15.965  3.5410  2.9795 -0.6306
11026TIP3   OH254568   1.450   4.812  13.764  0.2444  0.0693  0.2817
11026TIP3    H154569   1.515   4.742  13.765  1.5584  1.2400  1.2455
11026TIP3    H254570   1.412   4.811  13.852 -1.2423 -0.7391 -0.3353
11027TIP3   OH254571   6.387   3.528   1.673 -0.1835 -0.0033  0.2948
11027TIP3    H154572   6.356   3.609   1.714  2.9180  0.0827  2.8868
11027TIP3    H254573   6.363   3.459   1.735  3.2119 -0.0798  1.7112
11028TIP3   OH254574   6.138   6.310  10.554  0.1651  0.2409  0.7996
11028TIP3    H154575   6.162   6.223  10.524  2.7334  1.3636 -0.7023
11028TIP3    H254576   6.172   6.315  10.643  0.8452  0.0328  0.5508
11029TIP3   OH254577   5.391   1.792   0.858  0.5162 -0.0846  0.4517
11029TIP3    H154578   5.303   1.754   0.850 -0.0720  0.9291  1.6690
11029TIP3    H254579   5.439   1.757   0.783 -1.5854  1.0731 -1.6180
11030TIP3   OH254580   5.115   1.427  15.643  0.5896 -0.5081 -0.0016
11030TIP3    H154581   5.028   1.463  15.663 -0.0434 -0.9562 -1.7811
11030TIP3    H254582   5.162   1.431  15.727 -1.0846 -0.1338  0.9720
11031TIP3   OH254583   5.054   4.809  16.405 -0.4235  0.1744 -0.4812
11031TIP3    H154584   5.098   4.725  16.412 -0.7031  0.1093  0.8636
11031TIP3    H254585   5.106   4.868  16.459 -2.4020 -0.1266  1.9321
11032TIP3   OH254586   4.452   4.496   3.614  0.7562 -0.1270 -0.1715
11032TIP3    H154587   4.376   4.548   3.589 -0.3557 -1.2979  0.7146
11032TIP3    H254588   4.492   4.472   3.531  0.8221  1.4076 -0.6234
11033TIP3   OH254589   4.727   3.116   2.858  0.3136  0.5015  0.1873
11033TIP3    H154590   4.784   3.050   2.897 -1.2120 -0.2289  1.2928
11033TIP3    H254591   4.680   3.069   2.788 -1.5948  0.0116  1.6970
11034TIP3   OH254592   4.875   3.455  12.563 -0.2361 -0.4409  0.5352
11034TIP3    H154593   4.889   3.408  12.645  0.0565 -1.1115  0.1112
11034TIP3    H254594   4.797   3.508  12.578  1.0145  1.0896  1.9585
11035TIP3   OH254595   0.311   0.752   0.559 -0.3273 -0.3674  0.7297
11035TIP3    H154596   0.310   0.822   0.493 -2.0399  0.5684  1.6736
11035TIP3    H254597   0.250   0.686   0.526 -1.0069 -0.0069  1.2437
11036TIP3   OH254598   5.143   6.760   4.364 -0.1599 -0.0774  0.1704
11036TIP3    H154599   5.132   6.666   4.378 -0.5761  0.1220  1.2783
11036TIP3    H254600   5.081   6.782   4.296 -0.7418 -0.4443  0.5755
11037TIP3   OH254601   6.674   6.762  15.440 -0.4477 -0.0150  0.7106
11037TIP3    H154602   6.692   6.844  15.486 -2.3516 -0.1202  1.7257
11037TIP3    H254603   6.756   6.713  15.446  0.7555  1.8152  0.0088
11038TIP3   OH254604   3.567   4.032   5.404  0.0578  0.0830 -0.4983
11038TIP3    H154605   3.654   4.070   5.416 -0.2670  0.7598 -0.2403
11038TIP3    H254606   3.520   4.053   5.485 -0.3636 -0.2288 -0.6583
11039TIP3   OH254607   5.664   2.094  15.916  0.1088  0.1430 -1.0636
11039TIP3    H154608   5.619   2.106  15.999 -1.2465 -0.4534 -1.6835
11039TIP3    H254609   5.757   2.088  15.940  0.0614  2.7372  0.1026
11040TIP3   OH254610   0.228   1.710  15.837 -0.5266  0.6164  0.2472
11040TIP3    H154611   0.279   1.638  15.801 -1.4700  0.7292 -1.4237
11040TIP3    H254612   0.292   1.765  15.882  1.1250  1.4557 -2.8630
11041TIP3   OH254613   6.054   4.683   0.598  0.5009 -0.5830 -0.3563
11041TIP3    H154614   6.101   4.759   0.563  1.2709 -0.4569  0.8838
11041TIP3    H254615   6.103   4.659   0.677 -0.5136 -1.5507  0.0023
11042TIP3   OH254616   6.770   5.504   5.945  1.2354 -0.0912 -0.3412
11042TIP3    H154617   6.722   5.565   6.000  0.6126  0.2730 -1.2585
11042TIP3    H254618   6.810   5.442   6.006  1.4218  0.9003  0.5719
11043TIP3   OH254619   0.254   6.588   4.938  0.2983 -0.2408  0.1307
11043TIP3    H154620   0.247   6.668   4.989  0.9385  0.5483 -0.9708
11043TIP3    H254621   0.315   6.533   4.987  1.2432  0.6757  0.0105
11044TIP3   OH254622   4.843   0.404   2.674 -0.1680 -0.1529 -0.0141
11044TIP3    H154623   4.874   0.345   2.742  0.1883 -1.0073 -0.8928
11044TIP3    H254624   4.768   0.359   2.634 -0.6184  0.5110  0.0623
11045TIP3   OH254625   4.946   2.428  12.805 -0.9041 -0.3780 -0.1464
11045TIP3    H154626   4.933   2.509  12.855 -0.4755 -0.5902  0.3099
11045TIP3    H254627   4.956   2.360  12.872  1.8077 -0.3601 -0.4595
11046TIP3   OH254628   5.510   4.898   0.897 -0.4661  0.6333 -0.4260
11046TIP3    H154629   5.452   4.822   0.888 -0.3171  0.3092  1.0617
11046TIP3    H254630   5.583   4.879   0.839 -0.7662 -0.0388 -0.5990
11047TIP3   OH254631   6.347   1.725   2.145  0.1822 -0.0614  0.6373
11047TIP3    H154632   6.385   1.812   2.129 -1.1416  0.2069 -1.4436
11047TIP3    H254633   6.253   1.737   2.130  0.1144 -2.1016 -1.0007
11048TIP3   OH254634   1.260   0.363   5.320  0.3712  0.5264  0.1101
11048TIP3    H154635   1.327   0.363   5.388  1.4828  0.0175 -0.9497
11048TIP3    H254636   1.269   0.448   5.276  1.3412 -0.1026 -0.9665
11049TIP3   OH254637   2.910   0.940  13.636 -0.2023  0.1257 -0.0259
11049TIP3    H154638   2.974   0.873  13.616  1.3671  1.6272 -0.2683
11049TIP3    H254639   2.958   1.005  13.688 -2.1268  0.1847  1.8243
11050TIP3   OH254640   3.835   1.128   3.553 -0.3373  0.1274 -0.2541
11050TIP3    H154641   3.849   1.087   3.467 -0.2240 -0.6051  0.1031
11050TIP3    H254642   3.752   1.176   3.543 -1.0863 -1.1252 -0.3650
11051TIP3   OH254643   3.733   1.822  12.193 -0.1249 -0.1730 -0.6440
11051TIP3    H154644   3.800   1.832  12.261 -1.3009 -1.2201  0.7425
11051TIP3    H254645   3.782   1.814  12.112  1.3124  1.9685 -0.0694
11052TIP3   OH254646   5.098   3.818  15.246  0.4084 -0.2805  0.5677
11052TIP3    H154647   5.025   3.849  15.192  1.1796 -0.3467 -0.5346
11052TIP3    H254648   5.076   3.848  15.334  0.1952  1.7993 -0.1335
11053TIP3   OH254649   2.092   2.789  14.025  0.0635  0.0904 -0.0579
11053TIP3    H154650   2.174   2.837  14.011  0.5876 -1.0164 -0.8785
11053TIP3    H254651   2.118   2.712  14.075 -0.5895  0.0674  0.2538
11054TIP3   OH254652   2.296   3.481   2.565  0.1149 -0.1133 -0.0747
11054TIP3    H154653   2.305   3.431   2.483  0.4043  0.8113 -0.6236
11054TIP3    H254654   2.202   3.478   2.584 -0.0495  0.2269 -0.8089
11055TIP3   OH254655   0.440   0.627   4.309 -0.0580 -0.0989  0.3290
11055TIP3    H154656   0.434   0.717   4.276  0.5463 -0.3877 -0.5780
11055TIP3    H254657   0.532   0.616   4.331 -0.1125 -0.5328  0.3464
11056TIP3   OH254658   0.881   4.949   3.095  0.3432 -0.5823  0.1793
11056TIP3    H154659   0.834   4.899   3.029 -0.2889  0.7497 -0.4192
11056TIP3    H254660   0.973   4.938   3.072  0.1830 -0.9419 -0.3224
11057TIP3   OH254661   5.169   6.219   5.602 -0.1742  0.7052 -0.0166
11057TIP3    H154662   5.241   6.180   5.652 -0.1559  0.4391 -0.2445
11057TIP3    H254663   5.198   6.213   5.511 -0.0101  1.6054 -0.0257
11058TIP3   OH254664   6.254   5.835  11.582 -0.2507 -0.3745 -0.0288
11058TIP3    H154665   6.255   5.876  11.495 -0.3543  0.8187  0.5115
11058TIP3    H254666   6.345   5.811  11.597 -0.1725 -0.2887 -0.3385
11059TIP3   OH254667   2.083   3.878  15.356 -0.1935 -0.4367  0.2195
11059TIP3    H154668   2.093   3.856  15.263  0.8095  1.7781 -0.2552
11059TIP3    H254669   2.092   3.794  15.401 -0.0794 -1.4791 -1.6270
11060TIP3   OH254670   3.906   1.253   4.760  0.5888 -0.1459  0.6381
11060TIP3    H154671   3.939   1.175   4.716  0.2546  0.6076 -1.0258
11060TIP3    H254672   3.811   1.240   4.763  0.5326  0.1990  0.3541
11061TIP3   OH254673   4.503   2.503  14.242 -0.0216 -0.0637  0.4692
11061TIP3    H154674   4.553   2.431  14.205  1.3184  1.2601 -0.3782
11061TIP3    H254675   4.412   2.483  14.218  0.5206 -0.5446 -1.3866
11062TIP3   OH254676   0.443   4.820   4.074 -0.4141 -0.0151  0.4380
11062TIP3    H154677   0.478   4.873   4.003 -0.0621 -0.8341 -0.0010
11062TIP3    H254678   0.426   4.735   4.035  0.8661 -0.8376  1.5939
11063TIP3   OH254679   1.700   5.045  12.737 -0.3989 -0.2761  0.3497
11063TIP3    H154680   1.616   4.999  12.727 -0.9930  1.2392 -2.8964
11063TIP3    H254681   1.761   4.996  12.682  0.3179 -0.1471  1.0095
11064TIP3   OH254682   1.810   4.617   6.412  0.2893 -0.2368  0.3963
11064TIP3    H154683   1.794   4.711   6.421  1.5424  0.1607 -1.0533
11064TIP3    H254684   1.905   4.608   6.425  0.4372 -1.0496 -1.0759
11065TIP3   OH254685   5.205   3.647   0.631 -0.3197 -0.2549  0.2996
11065TIP3    H154686   5.243   3.631   0.717 -1.9851 -1.6022  0.8462
11065TIP3    H254687   5.142   3.718   0.645  0.5359  0.6232 -0.1785
11066TIP3   OH254688   5.545   1.602  16.342 -0.4810  0.7121 -0.1099
11066TIP3    H154689   5.554   1.686  16.296 -0.0423  1.4861  1.3211
11066TIP3    H254690   5.601   1.611  16.419  0.2502 -1.2383 -0.3720
11067TIP3   OH254691   4.878   5.633   4.181 -0.5691  0.4783 -0.2113
11067TIP3    H154692   4.951   5.671   4.132 -1.6249  0.6231 -1.7644
11067TIP3    H254693   4.801   5.679   4.147 -1.4292  0.0246  1.0646
11068TIP3   OH254694   5.297   5.794   3.894  0.3656 -0.2029 -0.3669
11068TIP3    H154695   5.329   5.769   3.807  3.0105 -2.4802  1.0876
11068TIP3    H254696   5.365   5.851   3.930  0.5809 -1.2913  1.0643
11069TIP3   OH254697   1.010   6.816  16.789 -0.1085  1.0573 -0.0991
11069TIP3    H154698   1.036   6.729  16.819 -0.8133  1.5237  2.0384
11069TIP3    H254699   1.070   6.876  16.833  1.1396  1.6523 -2.4646
11070TIP3   OH254700   5.122   4.099  16.321 -0.8713  0.3653  0.1139
11070TIP3    H154701   5.200   4.094  16.376 -0.0709  1.3469 -0.8749
11070TIP3    H254702   5.138   4.174  16.263 -1.7826 -0.4504 -1.2578
11071TIP3   OH254703   0.493   3.705  12.713 -0.9180  1.0085  0.1685
11071TIP3    H154704   0.455   3.774  12.769  0.9724  2.0131  0.3054
11071TIP3    H254705   0.565   3.749  12.667  0.0936 -0.7874 -0.0395
11072TIP3   OH254706   2.709   6.767  12.879 -0.0793  0.0773 -0.5103
11072TIP3    H154707   2.745   6.854  12.864 -0.2420  0.1159 -0.6841
11072TIP3    H254708   2.784   6.714  12.905 -0.4107  1.0280  2.9803
11073TIP3   OH254709   3.947   0.637   1.460 -0.4943  0.2244  0.2013
11073TIP3    H154710   3.982   0.709   1.512 -0.1430 -0.4969  0.9845
11073TIP3    H254711   4.025   0.590   1.428 -0.7192 -0.2374  0.3181
11074TIP3   OH254712   6.137   2.707  13.250 -0.1911 -0.2025 -0.5507
11074TIP3    H154713   6.181   2.638  13.300 -0.3273  0.6814  0.8115
11074TIP3    H254714   6.052   2.717  13.292 -0.9882 -0.5574 -1.9896
11075TIP3   OH254715   5.037   3.175   5.030  0.2830  0.1687 -0.0892
11075TIP3    H154716   5.066   3.087   5.003  2.0935  0.9606 -0.8866
11075TIP3    H254717   4.965   3.195   4.971 -1.2384 -1.3722  1.1348
11076TIP3   OH254718   3.293   1.672   6.101 -0.5598 -0.2794  0.1893
11076TIP3    H154719   3.248   1.590   6.120 -0.0328 -1.2464 -2.3883
11076TIP3    H254720   3.242   1.711   6.030  0.4112  0.5769 -0.0624
11077TIP3   OH254721   0.406   0.113   4.725  0.3807 -0.3123 -0.8053
11077TIP3    H154722   0.339   0.044   4.722  1.2253 -1.2650  0.9440
11077TIP3    H254723   0.356   0.194   4.735 -0.5552 -1.0966  1.5444
11078TIP3   OH254724   3.961   2.414  15.978 -0.2465 -0.4959  0.8071
11078TIP3    H154725   3.899   2.462  16.031  0.1444 -2.6270  3.4197
11078TIP3    H254726   3.911   2.341  15.941 -0.2121  0.2300 -0.7749
11079TIP3   OH254727   5.843   5.720   5.636  0.0040 -0.5336 -0.0663
11079TIP3    H154728   5.871   5.794   5.690  0.5383 -0.4570 -0.4446
11079TIP3    H254729   5.924   5.687   5.597 -0.1717 -1.5647  0.4051
11080TIP3   OH254730   2.992   0.659  13.650 -0.2872  0.1718 -0.7319
11080TIP3    H154731   3.037   0.617  13.724 -0.5440  1.8998  0.4689
11080TIP3    H254732   2.899   0.643  13.666 -0.2911 -0.6224 -1.4608
11081TIP3   OH254733   1.843   4.450  13.214 -0.2639  0.2092 -0.1732
11081TIP3    H154734   1.887   4.424  13.133 -0.5931  0.3677 -0.4046
11081TIP3    H254735   1.808   4.368  13.250 -1.2432  0.3158 -0.8668
11082TIP3   OH254736   6.770   5.284   5.188  0.2545 -0.5590  0.0508
11082TIP3    H154737   6.795   5.252   5.275  0.3966 -1.6942 -0.3934
11082TIP3    H254738   6.772   5.380   5.196  1.7093 -0.6241  0.9006
11083TIP3   OH254739   6.646   2.420  16.721 -0.2342  0.4288 -0.7081
11083TIP3    H154740   6.708   2.370  16.775 -0.9505 -0.1323 -0.3942
11083TIP3    H254741   6.652   2.509  16.755 -0.1106  0.2364 -0.2080
11084TIP3   OH254742   6.071   3.520   3.088 -0.9213  0.1451  0.0232
11084TIP3    H154743   6.129   3.530   3.012  1.1789 -3.4855  0.9386
11084TIP3    H254744   6.119   3.561   3.160 -3.2602  4.3220 -0.4311
11085TIP3   OH254745   2.041   6.237  13.663  0.6877  0.1685 -0.1900
11085TIP3    H154746   2.100   6.279  13.600 -0.7026  2.2925 -0.1687
11085TIP3    H254747   2.054   6.287  13.744 -1.4320  0.9973 -0.3129
11086TIP3   OH254748   2.262   2.576  14.158 -0.6508 -0.5370 -0.2155
11086TIP3    H154749   2.311   2.498  14.134 -0.8663 -1.2644  1.6058
11086TIP3    H254750   2.323   2.648  14.143  0.1642 -1.2179 -0.2074
11087TIP3   OH254751   6.130   6.225  17.166  0.3458 -0.0023 -0.2662
11087TIP3    H154752   6.182   6.145  17.180  1.2019  0.7388  0.9610
11087TIP3    H254753   6.103   6.252  17.254 -0.6034  0.6403 -0.7395
11088TIP3   OH254754   3.959   5.417  11.224 -0.4255  0.2797  0.1336
11088TIP3    H154755   4.027   5.415  11.157  0.2200  2.7704  0.6036
11088TIP3    H254756   3.974   5.338  11.275 -1.2525 -1.9891 -2.8437
11089TIP3   OH254757   6.568   6.602   2.744  0.0755  0.0370  0.2639
11089TIP3    H154758   6.567   6.693   2.717  0.2761 -0.2434 -0.7481
11089TIP3    H254759   6.476   6.579   2.759 -0.0772  0.1266 -0.4931
11090TIP3   OH254760   3.466   5.143  12.968  0.2179  0.0547 -0.2995
11090TIP3    H154761   3.371   5.135  12.954 -0.2146 -0.4161  2.3288
11090TIP3    H254762   3.487   5.232  12.938 -1.3468  0.6715  0.2786
11091TIP3   OH254763   5.656   2.464  14.688  0.3810 -0.3399  0.1723
11091TIP3    H154764   5.709   2.496  14.760 -0.9239  1.0606  0.5550
11091TIP3    H254765   5.604   2.539  14.660 -0.5893 -1.3580 -0.9196
11092TIP3   OH254766   2.055   5.677  11.994 -0.0029 -0.5553  0.7875
11092TIP3    H154767   2.141   5.639  11.977  0.5864 -0.0367  2.3871
11092TIP3    H254768   2.048   5.750  11.933  0.4278 -0.9776  0.2239
11093TIP3   OH254769   4.645   3.794  14.694  0.7151 -0.3249  0.7982
11093TIP3    H154770   4.676   3.791  14.603 -0.1530 -1.1079  0.5207
11093TIP3    H254771   4.606   3.881  14.703 -0.4213 -0.7368  0.0037
11094TIP3   OH254772   6.654   3.042  15.909 -0.4093  0.5016  0.4109
11094TIP3    H154773   6.704   2.964  15.929  0.3676  0.9323  0.1921
11094TIP3    H254774   6.719   3.105  15.878 -0.8727  1.5767  1.5645
11095TIP3   OH254775   5.780   1.404   5.994  0.4137  1.1284 -0.1207
11095TIP3    H154776   5.762   1.313   6.016 -0.2790  0.9242 -1.4722
11095TIP3    H254777   5.861   1.424   6.042 -0.4689  0.4256  1.7655
11096TIP3   OH254778   2.050   6.628  12.837  0.2405 -0.4098 -0.7810
11096TIP3    H154779   1.999   6.681  12.897 -0.0758 -2.3227  0.7428
11096TIP3    H254780   2.134   6.617  12.880  0.4548 -0.7890 -1.2836
11097TIP3   OH254781   1.048   4.433   4.139  0.3211  0.4764  0.1587
11097TIP3    H154782   1.071   4.526   4.137  3.1660 -0.1004  1.3949
11097TIP3    H254783   0.994   4.424   4.218 -0.1629  1.0798 -0.0890
11098TIP3   OH254784   0.823   2.388   0.346 -0.0077 -0.3666 -0.5182
11098TIP3    H154785   0.783   2.446   0.281  0.7243  1.1388  0.3004
11098TIP3    H254786   0.770   2.402   0.425  0.5520 -0.3167 -0.1440
11099TIP3   OH254787   4.319   1.030   1.474  0.0933  0.0522 -0.0497
11099TIP3    H154788   4.399   0.984   1.449  0.5461  1.0325 -0.4456
11099TIP3    H254789   4.313   1.018   1.569  0.4359 -0.4511 -0.0882
11100TIP3   OH254790   4.394   6.571  12.004 -0.1148 -0.0848 -0.0659
11100TIP3    H154791   4.478   6.607  11.976 -1.3057  3.0018 -0.1328
11100TIP3    H254792   4.331   6.605  11.940 -1.5151 -1.8491  0.3045
11101TIP3   OH254793   0.512   4.004   0.797 -0.5561 -0.1113 -0.1843
11101TIP3    H154794   0.423   3.998   0.762 -0.3203 -1.1568 -0.6451
11101TIP3    H254795   0.513   4.086   0.846 -2.0536 -0.5108  0.5911
11102TIP3   OH254796   3.284   4.004  15.356  0.4130 -0.1100  0.1269
11102TIP3    H154797   3.233   3.932  15.319 -2.0524 -0.3463  3.5317
11102TIP3    H254798   3.251   4.082  15.311 -0.4888 -0.6108 -0.1152
11103TIP3   OH254799   5.604   3.367   3.048 -0.2053 -0.1297  0.2918
11103TIP3    H154800   5.639   3.345   2.962 -1.3039 -3.2382  0.5191
11103TIP3    H254801   5.677   3.356   3.109 -0.1007 -0.6977  0.0663
11104TIP3   OH254802   0.317   3.246  12.449  0.9157  0.0492  0.4267
11104TIP3    H154803   0.389   3.254  12.387 -0.1813  0.1136 -0.8907
11104TIP3    H254804   0.266   3.171  12.418  0.3660  0.0497  1.2776
11105TIP3   OH254805   4.961   2.628   0.363 -0.2082 -0.2393  0.5779
11105TIP3    H154806   4.981   2.539   0.393 -0.9946 -0.1522  1.4238
11105TIP3    H254807   4.976   2.683   0.441  2.6016  0.7612 -0.5275
11106TIP3   OH254808   4.656   5.773   4.012  0.2658 -0.0986 -0.0134
11106TIP3    H154809   4.711   5.839   3.970  2.9036 -1.6643  0.7394
11106TIP3    H254810   4.661   5.696   3.955 -2.6794  0.1710 -0.8294
11107TIP3   OH254811   2.490   2.550   2.273  0.3658  0.7786  0.2026
11107TIP3    H154812   2.502   2.542   2.368 -0.8635  2.5466  0.5503
11107TIP3    H254813   2.579   2.559   2.238  0.7630  1.5159  1.3426
11108TIP3   OH254814   5.804   5.206   4.485  0.3829  0.6065  0.8637
11108TIP3    H154815   5.792   5.124   4.532  0.6992  1.1928  2.0158
11108TIP3    H254816   5.727   5.214   4.429 -0.4157  0.2692  1.8872
11109TIP3   OH254817   0.639   1.448   0.814  0.0015  0.5840 -0.2951
11109TIP3    H154818   0.644   1.439   0.718 -1.6529  0.9745 -0.4531
11109TIP3    H254819   0.693   1.524   0.834  1.6087 -0.4026 -0.7250
11110TIP3   OH254820   1.941   0.063  14.763  0.3463 -0.0705  0.0848
11110TIP3    H154821   1.936  -0.021  14.717  0.1565 -1.8086  3.0124
11110TIP3    H254822   2.004   0.115  14.712 -1.7537 -0.7345 -3.5339
11111TIP3   OH254823   0.578   1.294   6.574  0.2716  0.0577  0.4226
11111TIP3    H154824   0.600   1.219   6.630 -1.0513  0.1902  1.1649
11111TIP3    H254825   0.612   1.270   6.488 -0.5136 -1.6240  0.5319
11112TIP3   OH254826   5.841   3.836   4.034  0.1884  0.4567 -0.1616
11112TIP3    H154827   5.825   3.871   4.121 -3.3568  0.6295 -0.7324
11112TIP3    H254828   5.754   3.826   3.996  1.5095 -1.2295 -3.0777
11113TIP3   OH254829   2.745   0.317  11.255  0.3795 -0.1760 -0.1456
11113TIP3    H154830   2.727   0.280  11.169 -0.4684 -1.8319  0.6941
11113TIP3    H254831   2.763   0.241  11.311 -1.3553  0.6216  1.6566
11114TIP3   OH254832   4.123   5.750   6.120  0.0228  0.2872  0.0071
11114TIP3    H154833   4.170   5.764   6.038  0.9268  1.6158  0.7202
11114TIP3    H254834   4.173   5.800   6.185  0.0283 -1.6810  1.6199
11115TIP3   OH254835   6.531   1.051  11.710 -0.0807 -0.4499 -0.3463
11115TIP3    H154836   6.567   0.982  11.765 -0.7821  0.3287  1.1605
11115TIP3    H254837   6.515   1.009  11.625 -2.5297 -2.7984  1.1215
11116TIP3   OH254838   5.422   3.381  14.908  0.0828  0.0728 -0.4305
11116TIP3    H154839   5.485   3.310  14.892 -0.6414 -0.5815 -0.4766
11116TIP3    H254840   5.435   3.441  14.835  1.8916  0.8869  0.5087
11117TIP3   OH254841   4.537   2.301   0.513 -0.4382  0.7660 -0.2112
11117TIP3    H154842   4.615   2.326   0.463 -0.3251 -0.7586 -0.8318
11117TIP3    H254843   4.548   2.344   0.597  0.7106  1.1711 -0.5501
11118TIP3   OH254844   2.673   4.732   0.913  0.5237 -0.1547 -0.1372
11118TIP3    H154845   2.707   4.670   0.848  1.7273 -1.0915  1.3063
11118TIP3    H254846   2.608   4.681   0.962  0.7925  0.0315  0.4163
11119TIP3   OH254847   3.485   1.502   0.588  0.2741 -0.1261  0.2857
11119TIP3    H154848   3.439   1.516   0.671  0.2404  0.0346  0.2388
11119TIP3    H254849   3.419   1.460   0.532  0.2857 -0.2010  0.3277
11120TIP3   OH254850   4.963   3.691   2.566 -0.3527  0.1307 -0.2311
11120TIP3    H154851   4.931   3.652   2.485 -0.6945  0.6596 -0.3579
11120TIP3    H254852   4.930   3.634   2.636 -0.6215  0.0484 -0.4263
11121TIP3   OH254853   5.309   6.260   6.298  0.1213 -0.4835  0.0997
11121TIP3    H154854   5.259   6.332   6.333 -2.1065 -2.0727  0.4011
11121TIP3    H254855   5.378   6.243   6.363 -0.6559 -0.0012  1.0615
11122TIP3   OH254856   3.317   6.574   1.311 -0.0544  0.3456 -0.3346
11122TIP3    H154857   3.315   6.666   1.285 -1.1586  0.0702 -1.3085
11122TIP3    H254858   3.225   6.550   1.322  0.1806 -0.8179 -0.7730
11123TIP3   OH254859   5.389   2.606  13.487 -0.1086 -0.6780 -0.0986
11123TIP3    H154860   5.378   2.671  13.418 -1.3455 -1.1095 -0.3507
11123TIP3    H254861   5.299   2.579  13.507  0.2069 -0.4258  1.8137
11124TIP3   OH254862   4.119   1.755  12.850 -0.6506 -0.2899  0.4206
11124TIP3    H154863   4.092   1.690  12.785 -1.0630  0.4084 -0.1162
11124TIP3    H254864   4.044   1.760  12.910 -0.9207  0.2078  0.0504
11125TIP3   OH254865   4.886   3.574   1.829  0.2662  0.1415  0.0782
11125TIP3    H154866   4.803   3.622   1.827 -0.1482 -0.5844 -1.3671
11125TIP3    H254867   4.950   3.634   1.789  0.0233 -0.0174 -0.5552
11126TIP3   OH254868   0.625   2.748   6.118 -0.4661 -0.1189  0.0252
11126TIP3    H154869   0.546   2.763   6.169 -1.2357  0.0450 -1.1729
11126TIP3    H254870   0.694   2.736   6.183 -1.0813  1.7546  1.1128
11127TIP3   OH254871   0.206   5.398  17.124  1.0359 -0.1284  0.3524
11127TIP3    H154872   0.229   5.313  17.162  1.6763 -0.4245 -0.6710
11127TIP3    H254873   0.194   5.381  17.031  1.8799  1.0290  0.0059
11128TIP3   OH254874   4.093   4.350  13.948 -0.4525 -0.1577  0.3217
11128TIP3    H154875   4.100   4.256  13.931  4.1279  0.2254 -1.2838
11128TIP3    H254876   4.165   4.369  14.008 -1.2829  2.3456  0.6153
11129TIP3   OH254877   3.156   6.645  13.959 -0.1599  0.5255  0.3724
11129TIP3    H154878   3.217   6.685  14.021 -0.1953  1.0413  0.0814
11129TIP3    H254879   3.140   6.713  13.893 -1.9887  0.8587  1.0927
11130TIP3   OH254880   3.539   5.982  15.697 -0.1966 -0.2543  0.7059
11130TIP3    H154881   3.447   5.956  15.695 -0.0600 -0.7790  1.1451
11130TIP3    H254882   3.559   6.007  15.606 -0.2694 -1.9528  0.1999
11131TIP3   OH254883   1.466   1.378   2.589 -0.0476 -0.0140 -0.2504
11131TIP3    H154884   1.542   1.410   2.541 -0.0807 -0.2902 -0.4880
11131TIP3    H254885   1.409   1.339   2.522 -0.1054 -0.3789  0.0062
11132TIP3   OH254886   3.606   3.906   0.644  0.0579  0.1490 -0.0149
11132TIP3    H154887   3.642   3.818   0.634  0.4409  0.3463 -0.4377
11132TIP3    H254888   3.517   3.900   0.610 -0.3517 -0.3646  1.1156
11133TIP3   OH254889   4.132   1.521   5.971 -0.0735 -0.0142  0.9375
11133TIP3    H154890   4.218   1.508   6.011  1.4301 -0.7870 -2.2342
11133TIP3    H254891   4.092   1.434   5.972 -0.1890  0.0398  1.0592
11134TIP3   OH254892   1.725   6.301   1.394 -0.3658 -0.8530  0.6587
11134TIP3    H154893   1.730   6.236   1.324 -0.2285 -0.2318  0.0806
11134TIP3    H254894   1.726   6.385   1.348 -0.3526 -0.4412  1.4069
11135TIP3   OH254895   0.376   4.643  15.354 -0.3320  0.1480 -0.2214
11135TIP3    H154896   0.411   4.732  15.359 -0.7500  0.2661  0.8194
11135TIP3    H254897   0.282   4.654  15.361 -0.3241 -0.4426  1.0719
11136TIP3   OH254898   4.690   6.665  12.002 -0.1281 -0.5894 -0.4988
11136TIP3    H154899   4.639   6.699  12.075 -0.6255 -0.9931 -0.6520
11136TIP3    H254900   4.780   6.663  12.034 -0.4810 -1.7594  0.4879
11137TIP3   OH254901   4.650   2.284   3.058  0.1688 -0.7112 -0.1211
11137TIP3    H154902   4.682   2.316   3.142 -0.6218  0.0580 -0.1043
11137TIP3    H254903   4.602   2.357   3.020 -0.9862 -1.6101 -0.4513
11138TIP3   OH254904   2.818   2.529  11.578  0.5858 -0.2995 -0.1162
11138TIP3    H154905   2.732   2.552  11.542  0.5778 -1.1634 -0.6859
11138TIP3    H254906   2.877   2.596  11.543  0.3779 -0.4895 -0.8591
11139TIP3   OH254907   6.145   2.620   2.362  0.0115 -0.0073 -0.2215
11139TIP3    H154908   6.230   2.654   2.333  0.4082 -0.8698 -0.1167
11139TIP3    H254909   6.085   2.642   2.291  0.4431  0.1237 -0.5504
11140TIP3   OH254910   4.296   6.276  11.294 -0.6814  0.5240  0.4037
11140TIP3    H154911   4.289   6.185  11.265  0.4451  0.9910 -1.4818
11140TIP3    H254912   4.346   6.271  11.376 -1.1099 -0.5802  0.6189
11141TIP3   OH254913   1.931   4.361   6.551  0.0677  0.1934  0.6546
11141TIP3    H154914   1.966   4.442   6.514 -0.6152 -0.0508 -0.5787
11141TIP3    H254915   1.899   4.387   6.637 -1.2728  1.5680 -0.1972
11142TIP3   OH254916   1.541   6.214  15.523 -0.0452  0.1081 -0.0912
11142TIP3    H154917   1.519   6.288  15.466 -0.2126 -0.3216 -0.5942
11142TIP3    H254918   1.567   6.145  15.463 -1.7957 -0.9010  0.2481
11143TIP3   OH254919   0.218   4.204  10.789 -0.0684 -0.6526  0.3516
11143TIP3    H154920   0.139   4.255  10.803  0.1023  0.1095 -1.2732
11143TIP3    H254921   0.190   4.132  10.732  0.2187 -0.9500  0.5785
11144TIP3   OH254922   3.123   1.137   4.913 -0.0640  0.2671  0.2003
11144TIP3    H154923   3.043   1.187   4.894  0.0134  0.0554 -0.7699
11144TIP3    H254924   3.128   1.134   5.008 -1.2398  0.2533  0.2784
11145TIP3   OH254925   3.761   6.640   4.712  0.1749 -0.0541 -0.1713
11145TIP3    H154926   3.814   6.566   4.685  1.5428  0.6401  0.5061
11145TIP3    H254927   3.699   6.603   4.776  0.3354 -0.7412 -0.4092
11146TIP3   OH254928   4.369   0.784  13.643  0.3227 -0.0476 -0.3153
11146TIP3    H154929   4.321   0.857  13.603  1.2801  0.1110 -1.2506
11146TIP3    H254930   4.304   0.715  13.653 -0.0366 -0.0095 -1.9688
11147TIP3   OH254931   1.619   5.752   2.469  0.2026 -0.2360  0.4492
11147TIP3    H154932   1.645   5.763   2.377  0.2303 -0.9435  0.3660
11147TIP3    H254933   1.701   5.756   2.518  0.6366 -3.1442  0.1257
11148TIP3   OH254934   1.477   6.294   1.462 -0.4600 -0.3898 -0.8582
11148TIP3    H154935   1.565   6.292   1.423 -0.2494 -1.1884 -0.3659
11148TIP3    H254936   1.479   6.369   1.521  0.0009 -0.6042 -0.6002
11149TIP3   OH254937   4.921   2.309   4.092 -0.0383  0.3719  0.5447
11149TIP3    H154938   5.005   2.302   4.047 -0.1222 -1.1649  0.5741
11149TIP3    H254939   4.943   2.313   4.185  0.0102 -1.8326  0.6929
11150TIP3   OH254940   0.480   1.696   5.148 -0.2287  0.2711 -0.0442
11150TIP3    H154941   0.516   1.610   5.167 -0.1580 -0.0545 -1.5225
11150TIP3    H254942   0.525   1.755   5.208  1.3329 -0.4102 -0.4899
11151TIP3   OH254943   6.640   1.814   5.209  0.6317  0.4122  0.3664
11151TIP3    H154944   6.692   1.812   5.290  1.2515 -0.8944 -0.0358
11151TIP3    H254945   6.680   1.747   5.154 -0.5638  0.4326 -0.5493
11152TIP3   OH254946   0.431   3.448  13.086 -0.5611  0.5988 -0.4368
11152TIP3    H154947   0.498   3.403  13.035  0.5156  0.4910  0.9964
11152TIP3    H254948   0.361   3.384  13.096  1.2728 -1.2225  2.2369
11153TIP3   OH254949   1.855   0.448   5.609 -0.2382  0.5408  0.5672
11153TIP3    H154950   1.799   0.387   5.657 -0.3390 -0.4285 -0.7286
11153TIP3    H254951   1.933   0.455   5.663  0.2136 -1.5628  0.3004
11154TIP3   OH254952   1.886   1.438  16.712  0.2552  0.0238  0.1139
11154TIP3    H154953   1.848   1.354  16.737  0.8084 -0.0214  0.8187
11154TIP3    H254954   1.811   1.489  16.681  0.0305 -1.0077 -1.1342
11155TIP3   OH254955   2.091   4.453  11.984 -0.6559  0.0589 -0.2600
11155TIP3    H154956   2.144   4.517  12.030  0.7847 -1.2874  0.0349
11155TIP3    H254957   2.024   4.427  12.048  0.7982 -1.1579  0.8354
11156TIP3   OH254958   1.191   0.821   0.079  0.3326  0.4400 -0.4718
11156TIP3    H154959   1.212   0.914   0.072  1.1934  0.1750 -1.5914
11156TIP3    H254960   1.272   0.780   0.107 -0.1893  0.0755  0.5520
11157TIP3   OH254961   0.259   3.663   5.722  0.0524  0.3591  0.3839
11157TIP3    H154962   0.281   3.708   5.640 -1.5976 -0.4618 -0.5553
11157TIP3    H254963   0.302   3.715   5.790  0.8441  1.4933 -0.9288
11158TIP3   OH254964   1.211   5.757  14.503  0.0028 -0.0028  0.2118
11158TIP3    H154965   1.236   5.673  14.465 -0.9186  0.5194 -1.6799
11158TIP3    H254966   1.116   5.752  14.512 -0.1002  0.9400 -0.2212
11159TIP3   OH254967   1.786   6.017  12.429  0.3878 -0.1264 -0.5827
11159TIP3    H154968   1.794   5.967  12.510  1.8148  0.8100 -0.1178
11159TIP3    H254969   1.758   5.952  12.364  1.0503 -1.2773  0.2443
11160TIP3   OH254970   4.099   3.456  11.050 -0.0790  0.0581  0.2402
11160TIP3    H154971   4.111   3.377  11.102 -1.0662  0.4479  1.1128
11160TIP3    H254972   4.153   3.522  11.094 -0.2762  0.1868  0.2911
11161TIP3   OH254973   1.972   2.667  16.164  0.0751 -0.7714 -0.1920
11161TIP3    H154974   1.918   2.720  16.223 -0.5314 -0.4588 -1.0141
11161TIP3    H254975   1.921   2.586  16.151 -0.5219 -0.2077 -1.4820
11162TIP3   OH254976   2.292   2.636   0.395 -0.4031 -0.2494 -0.2586
11162TIP3    H154977   2.375   2.667   0.431  0.0287 -1.0569 -0.5178
11162TIP3    H254978   2.287   2.544   0.423 -0.1544 -0.8426 -2.0537
11163TIP3   OH254979   0.485   5.263   0.641 -0.2377  0.0617  0.2161
11163TIP3    H154980   0.497   5.169   0.648  1.6763  0.3449  1.7083
11163TIP3    H254981   0.565   5.294   0.597 -1.1375  0.9345 -0.8579
11164TIP3   OH254982   2.778   4.444   0.391 -0.1463 -0.2669  0.2531
11164TIP3    H154983   2.823   4.376   0.341  1.1421  0.5665  0.2048
11164TIP3    H254984   2.824   4.525   0.367  0.3588  0.2063  2.5813
11165TIP3   OH254985   5.487   2.066   1.493  0.3933  0.2568  0.0355
11165TIP3    H154986   5.510   1.999   1.429  0.9707 -0.3088  0.8169
11165TIP3    H254987   5.393   2.053   1.509  0.8033 -1.4122  1.3317
11166TIP3   OH254988   6.576   2.389   3.958  0.0909 -0.6687  0.3071
11166TIP3    H154989   6.630   2.401   4.036  0.1565 -2.2105  0.5315
11166TIP3    H254990   6.556   2.478   3.929  1.7448 -0.0521  0.9091
11167TIP3   OH254991   5.191   2.721   0.262  0.0854  0.5010  0.4088
11167TIP3    H154992   5.186   2.799   0.207 -0.5711  1.1282  1.3472
11167TIP3    H254993   5.111   2.721   0.313 -0.1098 -1.0071  0.1649
11168TIP3   OH254994   5.858   4.139   3.526  0.8424  0.4960 -0.0268
11168TIP3    H154995   5.836   4.050   3.552 -0.5450  0.8135 -0.0142
11168TIP3    H254996   5.820   4.194   3.595  2.4719  1.0794  0.4492
11169TIP3   OH254997   5.603   6.149  13.784  0.4507 -0.3298 -0.3895
11169TIP3    H154998   5.541   6.182  13.719 -0.5849 -3.0933 -0.9403
11169TIP3    H254999   5.566   6.176  13.868  0.1769  0.6631 -0.8099
11170TIP3   OH255000   1.910   1.328   5.168 -0.4032 -0.1442  0.4347
11170TIP3    H155001   1.848   1.284   5.226 -0.0629 -1.0091  0.1507
11170TIP3    H255002   1.986   1.347   5.224  0.5544 -2.3313 -0.0346
11171TIP3   OH255003   3.043   2.588   2.752 -0.5342 -0.2044 -0.2400
11171TIP3    H155004   3.081   2.511   2.794 -1.5229  0.0459  1.1900
11171TIP3    H255005   3.107   2.614   2.686  0.8091 -0.9913  0.7118
11172TIP3   OH255006   0.498   1.615   3.320 -0.2793 -0.5290  0.0524
11172TIP3    H155007   0.514   1.541   3.379  0.9364 -0.2819  0.0536
11172TIP3    H255008   0.543   1.689   3.362  0.1364 -0.2292 -0.9062
11173TIP3   OH255009   2.474   2.270   2.922  0.1964  0.4511  0.4001
11173TIP3    H155010   2.442   2.208   2.987  2.6039 -0.9189  0.4010
11173TIP3    H255011   2.559   2.299   2.956  0.3101  1.7335 -0.8722
11174TIP3   OH255012   0.067   1.780   1.680  0.5984  0.7776  0.3661
11174TIP3    H155013   0.120   1.823   1.612  0.1232  1.1168  0.2021
11174TIP3    H255014  -0.010   1.748   1.634  0.6300  0.3310  0.6143
11175TIP3   OH255015   0.484   3.513   6.161 -0.1138  0.7148  0.0461
11175TIP3    H155016   0.499   3.440   6.221  0.5776  0.6601 -0.1920
11175TIP3    H255017   0.398   3.546   6.186 -0.8954 -0.8078 -0.4860
11176TIP3   OH255018   5.698   5.005  15.666 -0.5023  0.0970  0.0970
11176TIP3    H155019   5.683   4.912  15.680  0.1297 -0.0242  0.0017
11176TIP3    H255020   5.788   5.020  15.694 -0.1145  0.3844 -1.2166
11177TIP3   OH255021   2.751   3.058  14.394 -0.0302  0.5310  0.4010
11177TIP3    H155022   2.696   3.006  14.453  0.3934  2.4794  2.6513
11177TIP3    H255023   2.711   3.145  14.393  0.7274  0.9075 -1.1815
11178TIP3   OH255024   2.011   6.752  17.032 -0.2540 -0.3576  0.7437
11178TIP3    H155025   2.026   6.808  16.956 -0.8848 -0.9562  0.1750
11178TIP3    H255026   2.097   6.741  17.072  0.1278 -0.3060 -0.0636
11179TIP3   OH255027   6.443   6.095  15.312 -0.3491  0.3775  0.4201
11179TIP3    H155028   6.465   6.126  15.399  1.3633  0.2790  0.0521
11179TIP3    H255029   6.482   6.007  15.307 -2.7909 -0.8067  0.4897
11180TIP3   OH255030   5.522   1.076   6.503 -0.0946 -0.3703 -0.4915
11180TIP3    H155031   5.492   1.153   6.454  0.2900 -0.5135 -0.9600
11180TIP3    H255032   5.448   1.054   6.560 -0.9125 -0.7482 -1.6559
11181TIP3   OH255033   6.388   4.708   6.608 -0.9854 -0.6455 -0.6568
11181TIP3    H155034   6.467   4.762   6.612 -0.2754 -1.2589 -3.6066
11181TIP3    H255035   6.371   4.683   6.698  2.2672 -0.5416  0.1230
11182TIP3   OH255036   5.395   5.823  14.167 -0.2590  0.5029  0.2222
11182TIP3    H155037   5.331   5.795  14.101  0.4150  1.0247 -0.6782
11182TIP3    H255038   5.478   5.824  14.120 -0.0312  2.6251  0.5862
11183TIP3   OH255039   5.903   4.101  14.439 -0.1598 -0.3908  0.3595
11183TIP3    H155040   5.921   4.179  14.387  0.0578 -1.5107 -1.3333
11183TIP3    H255041   5.974   4.040  14.418  0.7253 -0.4475  3.0582
11184TIP3   OH255042   2.364   1.506  14.532 -0.5726  0.0082  0.4861
11184TIP3    H155043   2.427   1.553  14.476 -0.7231 -0.6096 -0.2235
11184TIP3    H255044   2.311   1.574  14.572 -0.2519  0.4785  0.1184
11185TIP3   OH255045   5.164   4.431   5.554  0.0885 -0.2719 -0.2674
11185TIP3    H155046   5.131   4.428   5.464 -0.1004  1.0385 -0.2750
11185TIP3    H255047   5.096   4.480   5.602 -0.3922 -1.9898  0.8702
11186TIP3   OH255048   2.892   4.171  13.332  0.4502  0.7381 -0.1347
11186TIP3    H155049   2.894   4.265  13.349  2.6938  0.7702 -0.3850
11186TIP3    H255050   2.813   4.141  13.378  0.6014  2.4713  1.3716
11187TIP3   OH255051   2.379   4.302  14.454 -0.3688 -0.5300  0.3932
11187TIP3    H155052   2.445   4.314  14.386 -0.1133 -0.7549  0.5984
11187TIP3    H255053   2.297   4.291  14.406 -0.2676 -0.1871  0.1394
11188TIP3   OH255054   6.597   3.334  15.208  0.4810  0.1281  0.0616
11188TIP3    H155055   6.584   3.367  15.297  1.2095 -0.0652  0.2483
11188TIP3    H255056   6.542   3.256  15.204 -2.6383  2.2193 -0.9461
11189TIP3   OH255057   5.695   6.828  15.591  0.1856 -0.2027  0.4410
11189TIP3    H155058   5.730   6.855  15.506 -0.3199 -1.4224 -0.1783
11189TIP3    H255059   5.769   6.787  15.635  0.8434  1.6781  1.2168
11190TIP3   OH255060   1.813   5.745   1.202 -0.3354 -0.5814  0.1972
11190TIP3    H155061   1.816   5.649   1.211 -0.7336 -0.5968  0.1680
11190TIP3    H255062   1.847   5.778   1.285 -2.6026 -0.7262  1.2409
11191TIP3   OH255063   4.546   1.781  13.248 -0.1939 -0.2704 -0.6477
11191TIP3    H155064   4.595   1.858  13.276 -0.3852 -0.1920 -0.5230
11191TIP3    H255065   4.603   1.737  13.185 -0.2098  0.1361 -0.9450
11192TIP3   OH255066   1.597   2.976   2.484 -0.1480 -0.4467 -0.3207
11192TIP3    H155067   1.598   3.000   2.577 -0.6168 -0.8242 -0.2144
11192TIP3    H255068   1.506   2.950   2.467 -0.1681  0.0410 -0.9957
11193TIP3   OH255069   0.435   4.710  16.730 -0.1258  0.2112  0.1876
11193TIP3    H155070   0.410   4.779  16.669 -0.0656  0.7604  0.7811
11193TIP3    H255071   0.410   4.743  16.816 -0.1364 -0.5245  0.4752
11194TIP3   OH255072   4.542   6.556  16.478  0.2675  0.0754 -0.1780
11194TIP3    H155073   4.488   6.636  16.482 -1.3790 -1.0265  0.4964
11194TIP3    H255074   4.566   6.549  16.385  0.0361  1.0727 -0.3317
11195TIP3   OH255075   4.972   6.625   5.513 -0.2921  0.6708  0.1492
11195TIP3    H155076   5.061   6.612   5.545  1.3429  2.2071 -3.2445
11195TIP3    H255077   4.959   6.554   5.450 -2.2622 -0.5799  1.8278
11196TIP3   OH255078   0.026   3.705  11.699  0.1887 -0.1058 -0.3768
11196TIP3    H155079   0.088   3.665  11.760  1.9995  1.2621 -1.2027
11196TIP3    H255080  -0.052   3.721  11.751  2.0782  2.1676  2.0744
11197TIP3   OH255081   2.543   1.381   1.462 -0.2272  0.1127  0.2002
11197TIP3    H155082   2.460   1.334   1.453 -0.3467  0.5240 -0.9517
11197TIP3    H255083   2.610   1.317   1.438 -0.3768  0.4427 -1.1651
11198TIP3   OH255084   0.537   6.377   0.592 -0.1014 -0.0089  0.4759
11198TIP3    H155085   0.595   6.302   0.577 -1.0984 -1.0660  1.6809
11198TIP3    H255086   0.594   6.454   0.585  0.4755 -0.5580 -3.7809
11199TIP3   OH255087   3.654   1.979   2.064 -0.4636 -0.0917 -0.1249
11199TIP3    H155088   3.630   1.887   2.078 -0.6302  0.0885  0.8913
11199TIP3    H255089   3.662   1.988   1.969 -1.8499 -0.8105 -0.3401
11200TIP3   OH255090   5.363   6.093  15.375  0.7939 -0.3731  0.5449
11200TIP3    H155091   5.367   6.045  15.292  3.9263 -2.6564  1.7986
11200TIP3    H255092   5.372   6.185  15.350  0.2524 -0.8688 -1.6987
11201TIP3   OH255093   3.766   2.652  16.654  0.7708 -0.1001 -0.3379
11201TIP3    H155094   3.849   2.692  16.630  0.0369  0.3852 -2.2573
11201TIP3    H255095   3.720   2.719  16.705  0.2743  0.8980 -2.0252
11202TIP3   OH255096   1.677   2.311   1.045 -0.0492  1.0090 -0.2644
11202TIP3    H155097   1.754   2.265   1.014 -0.4545  1.1927 -1.5829
11202TIP3    H255098   1.643   2.255   1.115  1.9591  1.5499  1.2365
11203TIP3   OH255099   5.167   1.817   0.032 -0.0578 -0.2218 -0.1980
11203TIP3    H155100   5.230   1.806   0.104  0.3003 -2.1025 -0.7546
11203TIP3    H255101   5.094   1.759   0.055 -0.2343 -0.3363 -1.0229
11204TIP3   OH255102   0.749   2.942   3.857  0.0485  0.1135  0.1279
11204TIP3    H155103   0.758   3.034   3.832  1.7769  0.4761  1.8027
11204TIP3    H255104   0.821   2.897   3.813  0.4111 -0.0445  0.8535
11205TIP3   OH255105   3.612   0.576  13.848 -0.4001  0.4137 -0.9052
11205TIP3    H155106   3.616   0.510  13.779  1.2801  0.5196 -0.9624
11205TIP3    H255107   3.570   0.651  13.806 -1.8055 -0.3968 -1.0027
11206TIP3   OH255108   4.312   2.075  16.514 -0.4363  0.1357  0.6975
11206TIP3    H155109   4.357   2.014  16.456 -0.1509  0.8607  0.1239
11206TIP3    H255110   4.334   2.162  16.478 -0.0420  0.6247  2.0295
11207TIP3   OH255111   2.869   5.496  16.007 -0.6782  0.3049 -0.3727
11207TIP3    H155112   2.819   5.475  16.085  0.2490 -0.5042  0.0214
11207TIP3    H255113   2.878   5.591  16.008 -1.0878  0.3362  0.2356
11208TIP3   OH255114   2.827   1.376  17.073 -0.0357  0.5502 -0.4359
11208TIP3    H155115   2.826   1.451  17.013  0.6484  0.5336 -0.4713
11208TIP3    H255116   2.830   1.416  17.160  1.4917  0.5794 -0.4771
11209TIP3   OH255117   5.372   4.053   4.534 -0.0962  0.2913  0.1859
11209TIP3    H155118   5.404   4.015   4.452  1.8490 -0.2989  1.1793
11209TIP3    H255119   5.317   3.984   4.572  0.9208 -0.3714  0.4949
11210TIP3   OH255120   3.051   1.580   1.287  0.0358 -0.1995 -0.8811
11210TIP3    H155121   3.020   1.627   1.364  1.5598 -0.1332 -0.2803
11210TIP3    H255122   3.129   1.533   1.316  0.2415 -0.7448 -2.2087
11211TIP3   OH255123   3.101   4.437   4.147  0.6657 -0.5793 -0.4590
11211TIP3    H155124   3.038   4.380   4.103  0.8828  1.7729 -4.2415
11211TIP3    H255125   3.186   4.396   4.129  0.5496 -1.4299  0.8385
11212TIP3   OH255126   2.945   5.724  14.086 -0.4383 -0.2418 -0.1392
11212TIP3    H155127   2.896   5.667  14.146  0.6952  0.0947  1.1295
11212TIP3    H255128   3.005   5.665  14.041 -0.6056 -0.3361 -0.2424
11213TIP3   OH255129   5.413   0.298  13.408 -0.0087 -0.4935 -0.0847
11213TIP3    H155130   5.363   0.314  13.328 -0.3159 -0.6589  0.0719
11213TIP3    H255131   5.379   0.362  13.471  2.3368  1.7513 -0.9418
11214TIP3   OH255132   4.408   2.198  15.258 -0.3672  0.2948  0.0107
11214TIP3    H155133   4.496   2.214  15.292 -1.2363  1.9715  1.6848
11214TIP3    H255134   4.416   2.118  15.206  1.9847  0.0366  0.6551
11215TIP3   OH255135   5.528   1.447  15.718  0.6408  0.0661 -0.1682
11215TIP3    H155136   5.554   1.531  15.756  3.6809 -0.4545 -0.8094
11215TIP3    H255137   5.517   1.465  15.625  0.4027 -0.0847 -0.1706
11216TIP3   OH255138   4.712   4.794   5.025 -0.0063  0.1548 -0.2904
11216TIP3    H155139   4.679   4.742   5.098  2.5627 -1.6274 -0.2728
11216TIP3    H255140   4.739   4.877   5.064  0.5454 -0.4480  0.6376
11217TIP3   OH255141   6.021   4.212   3.305 -0.0232  0.4724  0.0612
11217TIP3    H155142   5.963   4.200   3.380  0.6376 -1.6288  0.2943
11217TIP3    H255143   5.974   4.170   3.232 -0.2379  1.6671 -0.5059
11218TIP3   OH255144   2.103   3.652  11.945 -0.2075 -0.1004  0.0565
11218TIP3    H155145   2.171   3.706  11.906 -0.7914  0.0744 -0.7408
11218TIP3    H255146   2.046   3.714  11.990 -0.2454 -0.1700  0.1050
11219TIP3   OH255147   1.448   4.954   2.586  0.4484  0.5863  0.2566
11219TIP3    H155148   1.518   4.900   2.549 -0.3849  0.6485 -1.5107
11219TIP3    H255149   1.490   5.037   2.607  0.7999  0.8320 -1.3318
11220TIP3   OH255150   2.366   4.519  12.838  0.0288 -0.3812  0.0853
11220TIP3    H155151   2.305   4.582  12.877  0.2047  0.5517 -1.0936
11220TIP3    H255152   2.424   4.493  12.910 -1.5556 -1.0658  1.1560
11221TIP3   OH255153   0.693   1.090   5.955  0.0758  0.5144  0.2586
11221TIP3    H155154   0.610   1.041   5.959  0.6815 -0.7347 -1.3189
11221TIP3    H255155   0.746   1.053   6.026  0.4152 -1.0096 -0.7262
11222TIP3   OH255156   5.579   5.528  14.320 -0.2892  0.0982 -0.0887
11222TIP3    H155157   5.535   5.526  14.235 -0.0803 -1.7267 -0.1850
11222TIP3    H255158   5.672   5.523  14.299 -0.2794 -1.8325  0.2436
11223TIP3   OH255159   2.055   0.847  13.377 -0.1981  0.1832 -0.5710
11223TIP3    H155160   2.084   0.847  13.285 -1.3126  0.7463 -0.9336
11223TIP3    H255161   1.988   0.779  13.381 -0.9760  0.9493 -0.4453
11224TIP3   OH255162   4.063   5.268  14.614 -0.4016 -0.0023  0.5951
11224TIP3    H155163   4.027   5.332  14.675  0.5378 -0.6223  1.8581
11224TIP3    H255164   4.046   5.304  14.527 -2.3244  0.6131  1.1955
11225TIP3   OH255165   2.894   5.421  12.644 -0.0217 -0.3726  0.3235
11225TIP3    H155166   2.938   5.467  12.572  1.0781 -0.9142  0.6231
11225TIP3    H255167   2.905   5.328  12.623 -2.1157 -0.5369 -0.2077
11226TIP3   OH255168   3.083   5.095   4.514  0.3541  0.7952 -0.6160
11226TIP3    H155169   3.143   5.022   4.528 -1.3509 -0.2850  1.8241
11226TIP3    H255170   3.111   5.161   4.578 -0.4928  0.6316 -0.0632
11227TIP3   OH255171   5.571   2.715   1.354  0.1395  0.0863  0.1069
11227TIP3    H155172   5.497   2.758   1.312 -0.6978 -0.3149  1.1376
11227TIP3    H255173   5.609   2.782   1.411 -1.1398 -0.4597  1.6813
11228TIP3   OH255174   4.026   3.379  11.762 -0.1965 -0.2472  0.1721
11228TIP3    H155175   4.050   3.460  11.807  0.6945 -1.3548  1.7858
11228TIP3    H255176   3.946   3.401  11.715 -1.7355  0.7517  3.0388
11229TIP3   OH255177   2.952   2.144   4.111 -0.7046 -0.8645  0.1902
11229TIP3    H155178   2.894   2.154   4.036  0.8270 -0.9934 -1.0586
11229TIP3    H255179   3.032   2.192   4.087 -0.0646 -1.1550  1.6130
11230TIP3   OH255180   2.978   6.007   5.721  0.5728 -0.0343  0.0640
11230TIP3    H155181   3.043   5.937   5.724 -1.4957 -2.0910 -0.6555
11230TIP3    H255182   2.936   5.998   5.636  0.2414  2.1363 -0.0565
11231TIP3   OH255183   6.269   6.510  14.250  0.0177  0.6265 -0.3420
11231TIP3    H155184   6.311   6.465  14.177 -0.4438  0.4769 -0.5244
11231TIP3    H255185   6.272   6.447  14.322  0.9331  0.9673 -0.0705
11232TIP3   OH255186   3.128   4.318  12.624  0.2219 -0.0667 -0.8636
11232TIP3    H155187   3.076   4.242  12.650  1.6473 -1.0961 -0.8666
11232TIP3    H255188   3.188   4.332  12.698 -0.4992  1.5247 -0.5546
11233TIP3   OH255189   1.553   1.692  16.616  0.2848  0.0145  0.0996
11233TIP3    H155190   1.562   1.670  16.708  1.4131 -0.0299 -0.0018
11233TIP3    H255191   1.589   1.616  16.569  0.8843  0.5519 -0.3317
11234TIP3   OH255192   4.458   2.175   1.028  0.3657  0.4969 -0.0274
11234TIP3    H155193   4.465   2.261   1.068 -0.0523  0.5361 -0.0397
11234TIP3    H255194   4.389   2.183   0.963 -1.0054 -0.3245  1.2669
11235TIP3   OH255195   2.309   5.434  14.053  0.4376 -0.4938 -0.1724
11235TIP3    H155196   2.308   5.371  14.126 -0.0197  1.5509  1.6825
11235TIP3    H255197   2.264   5.388  13.982 -1.0245 -1.8336  1.5030
11236TIP3   OH255198   6.068   5.445   0.348  0.0221 -0.2327 -0.3050
11236TIP3    H155199   6.069   5.529   0.303 -1.1816 -0.2486 -0.3991
11236TIP3    H255200   6.105   5.383   0.285 -2.4180 -0.4159 -1.6678
11237TIP3   OH255201   5.869   3.114   2.822 -0.3825  0.6552 -0.2885
11237TIP3    H155202   5.805   3.185   2.814  0.6664  1.6048 -0.3392
11237TIP3    H255203   5.827   3.052   2.882 -2.4326  0.0234 -2.2315
11238TIP3   OH255204   2.375   6.029  14.785  0.1136  0.2376 -0.1285
11238TIP3    H155205   2.306   6.015  14.850 -0.0661  0.9849 -0.1595
11238TIP3    H255206   2.372   5.950  14.730 -0.2239 -0.0626  0.3136
11239TIP3   OH255207   5.875   4.085  11.140  0.0867 -0.2467  0.7521
11239TIP3    H155208   5.786   4.065  11.112 -0.3873  2.6546 -0.1769
11239TIP3    H255209   5.928   4.015  11.103 -1.2162  0.5663 -3.0525
11240TIP3   OH255210   6.117   4.685  16.075  0.2149 -0.0640  0.0235
11240TIP3    H155211   6.117   4.589  16.068  0.0008  0.0413 -1.8422
11240TIP3    H255212   6.203   4.711  16.044  0.0596  0.3770 -0.0448
11241TIP3   OH255213   6.422   2.249  16.673  0.4983  0.0012 -0.6316
11241TIP3    H155214   6.506   2.295  16.673  0.0844  0.7927 -0.0191
11241TIP3    H255215   6.365   2.304  16.727  0.1735 -1.6021  0.7386
11242TIP3   OH255216   5.315   1.011   5.748  0.8203  0.0936 -0.3911
11242TIP3    H155217   5.307   1.106   5.758 -0.7451 -0.1062  0.6730
11242TIP3    H255218   5.278   0.975   5.829 -1.1684 -1.4758 -1.8771
11243TIP3   OH255219   0.902   4.458  10.444 -0.0564 -0.0185 -0.0085
11243TIP3    H155220   0.912   4.459  10.540 -0.1329 -1.2807  0.0289
11243TIP3    H255221   0.816   4.417  10.430 -0.8788  1.8306 -0.5871
11244TIP3   OH255222   0.254   0.017  11.023  0.2058  0.2555 -0.2016
11244TIP3    H155223   0.292   0.049  11.104 -0.1597 -0.1322  0.1333
11244TIP3    H255224   0.323  -0.037  10.983  0.3716  0.4180 -0.1349
11245TIP3   OH255225   0.022   0.432  16.303 -0.4096  0.3800 -0.1541
11245TIP3    H155226  -0.049   0.371  16.324  0.3399 -0.5870 -0.3645
11245TIP3    H255227   0.102   0.384  16.324  0.1967  1.4522  0.0806
11246TIP3   OH255228   3.926   2.772   2.346 -0.4853 -0.0128  0.0543
11246TIP3    H155229   3.865   2.701   2.366 -0.2348 -0.1442  0.3730
11246TIP3    H255230   3.978   2.740   2.273  0.5916 -0.7621  1.1049
11247TIP3   OH255231   5.376   6.416   3.329 -0.1246  0.3139 -0.2604
11247TIP3    H155232   5.309   6.397   3.263  0.1931 -0.3164 -0.4112
11247TIP3    H255233   5.346   6.370   3.407 -0.6127  1.2440  0.1012
11248TIP3   OH255234   4.592   4.232  12.458 -0.2740  0.2106 -0.2297
11248TIP3    H155235   4.630   4.158  12.505  3.0900  1.1465 -1.1614
11248TIP3    H255236   4.599   4.207  12.366 -0.6806  1.0121 -0.4833
11249TIP3   OH255237   3.829   2.839   1.935 -0.4128 -0.0670 -0.0876
11249TIP3    H155238   3.768   2.872   2.002 -0.0158 -0.6645  0.5832
11249TIP3    H255239   3.859   2.918   1.889  1.6136  0.7805  2.4115
11250TIP3   OH255240   6.257   4.354  11.663  0.5136 -0.3376  0.0803
11250TIP3    H155241   6.233   4.439  11.698  0.3570 -0.5761  0.5585
11250TIP3    H255242   6.290   4.372  11.575 -0.0220  0.1523 -0.0207
11251TIP3   OH255243   3.110   0.689  10.484  0.1855 -0.8904  0.1027
11251TIP3    H155244   3.176   0.699  10.553  2.3107  2.1463 -2.0651
11251TIP3    H255245   3.049   0.761  10.500 -0.4134 -1.3426 -0.1265
11252TIP3   OH255246   2.764   5.184   0.808  0.0318 -0.4671  0.4535
11252TIP3    H155247   2.700   5.124   0.769  0.1181  0.0060 -0.4394
11252TIP3    H255248   2.808   5.224   0.734  0.7222 -0.0888  1.0534
11253TIP3   OH255249   6.443   6.430   2.535  0.0073  0.1301 -0.0678
11253TIP3    H155250   6.403   6.370   2.597 -0.3132  0.7687  0.3618
11253TIP3    H255251   6.534   6.438   2.564  0.4662 -1.2841 -1.0161
11254TIP3   OH255252   0.227   4.822   7.026 -0.6931  0.5429 -0.7242
11254TIP3    H155253   0.281   4.745   7.009 -2.5770 -0.2678 -3.9283
11254TIP3    H255254   0.271   4.893   6.978  0.4246  1.2568  1.2756
11255TIP3   OH255255   0.455   2.902   0.272  0.4583 -0.5917  0.7189
11255TIP3    H155256   0.419   2.990   0.288  2.2660  0.3357  0.0279
11255TIP3    H255257   0.546   2.908   0.303  0.4375 -2.4310  1.2464
11256TIP3   OH255258   2.143   6.496  15.147 -0.0768  0.3298 -0.3700
11256TIP3    H155259   2.236   6.473  15.145 -0.5218 -1.6329  0.0611
11256TIP3    H255260   2.116   6.495  15.055  0.7396  3.0257 -0.7463
11257TIP3   OH255261   0.802   0.247   2.472 -0.6283  0.3523  0.2430
11257TIP3    H155262   0.844   0.280   2.551  0.8470 -1.0976  0.1129
11257TIP3    H255263   0.776   0.326   2.424 -0.9239  1.2541  1.8164
11258TIP3   OH255264   0.157   2.743  15.793 -0.4546 -0.3592  0.4564
11258TIP3    H155265   0.163   2.647  15.790 -1.2608 -0.3884 -0.9707
11258TIP3    H255266   0.188   2.772  15.708 -1.4127  0.5645  0.4006
11259TIP3   OH255267   4.079   6.199   6.021 -0.1977 -0.0693 -0.4061
11259TIP3    H155268   4.040   6.116   5.994 -2.5015  0.3312  1.3812
11259TIP3    H255269   4.064   6.202   6.116  0.5817  2.0157 -0.3049
11260TIP3   OH255270   4.004   6.696   5.500 -0.0355 -0.1504 -0.2432
11260TIP3    H155271   4.066   6.720   5.569  1.2401 -0.5343 -1.2203
11260TIP3    H255272   3.956   6.622   5.538  1.8271 -1.4888 -0.3429
11261TIP3   OH255273   1.055   5.016   1.824 -0.2526 -0.8099  0.2460
11261TIP3    H155274   1.149   5.009   1.841 -0.2021 -0.5752  0.0647
11261TIP3    H255275   1.017   5.034   1.910 -0.0423 -0.0690  0.1904
11262TIP3   OH255276   2.934   6.358  10.384  0.4730 -0.0742 -0.4975
11262TIP3    H155277   2.863   6.298  10.360 -0.9397  0.5135  1.8919
11262TIP3    H255278   2.897   6.445  10.375  0.6289  0.2319  1.3544
11263TIP3   OH255279   2.751   2.857  14.212 -0.2841  0.4704 -0.4442
11263TIP3    H155280   2.761   2.926  14.278 -0.5503 -0.4306  0.5669
11263TIP3    H255281   2.700   2.898  14.142  2.1773  2.2607 -1.3537
11264TIP3   OH255282   3.190   5.465   3.086  0.0572 -0.3366 -0.0876
11264TIP3    H155283   3.107   5.452   3.134  0.3439 -0.6718  0.3262
11264TIP3    H255284   3.255   5.417   3.138  0.9453  1.7705  0.8490
11265TIP3   OH255285   5.455   1.151   2.666 -0.4079  0.3565  0.9258
11265TIP3    H155286   5.512   1.110   2.600 -0.9363 -0.1514  0.7836
11265TIP3    H255287   5.431   1.235   2.628 -1.0501 -0.1117  0.2763
11266TIP3   OH255288   4.931   3.081   0.822  0.0285 -0.1273  0.0518
11266TIP3    H155289   5.006   3.022   0.827 -0.8222 -1.1840  0.5458
11266TIP3    H255290   4.960   3.161   0.867  0.0828 -1.3655  2.3353
11267TIP3   OH255291   5.526   3.389  15.861  0.4507  0.1043 -0.9005
11267TIP3    H155292   5.467   3.324  15.900  1.5192 -1.6541 -2.0279
11267TIP3    H255293   5.604   3.386  15.915  0.2843  0.9141 -0.6081
11268TIP3   OH255294   4.551   0.749   1.083  0.5657 -0.6279 -0.4300
11268TIP3    H155295   4.509   0.785   1.004 -2.0746 -2.1658  0.1431
11268TIP3    H255296   4.626   0.806   1.098 -0.7544  1.7624 -2.1511
11269TIP3   OH255297   1.424   1.276   4.367  0.0896 -0.0938  0.2855
11269TIP3    H155298   1.414   1.265   4.461  0.2391  0.9668  0.4435
11269TIP3    H255299   1.483   1.351   4.358 -2.0938  1.6101 -0.6290
11270TIP3   OH255300   5.588   5.869   6.608 -0.1957  1.0365  0.5028
11270TIP3    H155301   5.599   5.826   6.693  0.4156 -0.7765 -0.4293
11270TIP3    H255302   5.653   5.939   6.607  2.5821 -1.3677  0.0878
11271TIP3   OH255303   0.754   0.440   5.247 -0.1717  0.3442  0.2537
11271TIP3    H155304   0.678   0.425   5.191 -1.3879 -0.2005  1.9815
11271TIP3    H255305   0.781   0.353   5.275  0.7197  0.5778  0.1628
11272TIP3   OH255306   6.018   6.321  12.600 -0.4254 -0.5084  0.1136
11272TIP3    H155307   5.964   6.252  12.561  0.6649 -0.5448 -1.4464
11272TIP3    H255308   6.024   6.297  12.692 -1.5884 -1.4696 -0.0244
11273TIP3   OH255309   3.539   5.584   2.374  0.0138  0.2210 -0.9193
11273TIP3    H155310   3.478   5.642   2.420 -1.7206 -0.7107 -1.9445
11273TIP3    H255311   3.484   5.537   2.311  1.9063 -0.3100 -2.2350
11274TIP3   OH255312   5.825   0.547   2.947  0.8508 -0.2152 -0.2353
11274TIP3    H155313   5.878   0.588   2.879  0.0713 -0.3996 -0.9716
11274TIP3    H255314   5.735   0.567   2.923  0.5481  2.8564  2.7205
11275TIP3   OH255315   5.081   5.185  15.916  0.3946 -0.2244 -0.0874
11275TIP3    H155316   5.021   5.113  15.933 -0.2761  0.3336 -0.0307
11275TIP3    H255317   5.024   5.259  15.896  1.0668  0.3232 -0.0120
11276TIP3   OH255318   6.454   3.307   1.304  0.1327 -0.1420  0.5237
11276TIP3    H155319   6.378   3.344   1.349 -0.4616 -1.1247  0.3665
11276TIP3    H255320   6.455   3.350   1.219 -0.2056 -0.0764  0.5525
11277TIP3   OH255321   3.335   5.982  11.272  0.0958 -0.3014 -0.8756
11277TIP3    H155322   3.319   6.074  11.295  0.0483 -0.9814  2.4124
11277TIP3    H255323   3.408   5.956  11.328 -0.7201 -2.5630 -0.7506
11278TIP3   OH255324   0.097   4.605  15.384 -0.2274  0.3223 -0.3071
11278TIP3    H155325   0.041   4.577  15.312  0.8890 -1.1997 -0.6246
11278TIP3    H255326   0.079   4.542  15.454 -0.5674  1.1895  0.4030
11279TIP3   OH255327   4.552   3.527   5.510 -0.1144 -0.1510  0.2458
11279TIP3    H155328   4.512   3.485   5.434  0.7380  0.8120 -0.7622
11279TIP3    H255329   4.485   3.521   5.578 -1.6857  0.6643 -1.1465
11280TIP3   OH255330   0.885   3.094   2.174  0.0573 -0.6255  0.1455
11280TIP3    H155331   0.807   3.135   2.211 -0.7614 -2.2931  0.3777
11280TIP3    H255332   0.933   3.060   2.250  0.3526 -0.7247 -0.0837
11281TIP3   OH255333   2.502   3.930   0.307  0.2936  0.3927 -0.2125
11281TIP3    H155334   2.521   3.936   0.401 -0.2764 -0.2041 -0.0528
11281TIP3    H255335   2.436   3.997   0.291  0.2767  0.3903 -0.1536
11282TIP3   OH255336   1.063   0.867   2.284  0.4865  0.2444 -0.6644
11282TIP3    H155337   1.122   0.895   2.214 -0.7817  0.2004 -1.7991
11282TIP3    H255338   1.041   0.949   2.329  0.8741  0.3505 -0.6590
11283TIP3   OH255339   4.926   4.454   5.008 -0.1425 -0.4267 -0.1915
11283TIP3    H155340   5.004   4.403   4.987 -1.5326 -2.9029  0.3159
11283TIP3    H255341   4.905   4.429   5.098 -1.9594 -0.4543 -0.5938
11284TIP3   OH255342   6.218   0.460  15.324 -0.2224 -0.1272 -0.6706
11284TIP3    H155343   6.212   0.390  15.389 -0.7058  0.2986 -0.2548
11284TIP3    H255344   6.310   0.488  15.327 -0.3285  0.1558  0.1118
11285TIP3   OH255345   3.628   4.544  16.531  0.0756  0.6229 -0.0782
11285TIP3    H155346   3.624   4.533  16.436  0.5920  0.6563 -0.1110
11285TIP3    H255347   3.690   4.616  16.544 -0.3405  0.9219  0.2666
11286TIP3   OH255348   4.797   0.852  15.464 -0.5690  0.3359 -0.7354
11286TIP3    H155349   4.757   0.781  15.513  1.0057  0.3258  0.6219
11286TIP3    H255350   4.870   0.810  15.418  0.5518  1.0850  0.3077
11287TIP3   OH255351   5.832   3.183   3.864 -0.5881  0.0795 -0.2042
11287TIP3    H155352   5.882   3.107   3.892  1.1893  1.5293  0.7792
11287TIP3    H255353   5.834   3.243   3.939 -3.1248  0.5825 -0.4309
11288TIP3   OH255354   5.184   0.481  16.522 -0.7633  0.1648  0.4221
11288TIP3    H155355   5.177   0.483  16.617  0.4547 -0.0797  0.5274
11288TIP3    H255356   5.228   0.563  16.499 -3.3507  1.4812 -0.1816
11289TIP3   OH255357   3.855   4.718  10.819  0.2389 -0.6100 -0.1899
11289TIP3    H155358   3.944   4.703  10.850 -0.6791 -2.3759  1.9026
11289TIP3    H255359   3.839   4.810  10.838  0.6782 -0.9626  2.2756
11290TIP3   OH255360   4.948   1.812   2.513  0.3493  0.6313 -0.5143
11290TIP3    H155361   4.910   1.783   2.596  0.2098  3.2596  0.4269
11290TIP3    H255362   4.906   1.757   2.447  0.1878 -1.2719  1.0782
11291TIP3   OH255363   5.271   5.856   0.146 -0.3355  0.2864 -0.4638
11291TIP3    H155364   5.356   5.843   0.104 -0.5091  0.7375 -0.9645
11291TIP3    H255365   5.209   5.810   0.088 -0.5910  0.9945 -0.7650
11292TIP3   OH255366   3.753   0.779  17.032 -0.4952  0.0719 -0.3014
11292TIP3    H155367   3.659   0.780  17.052 -0.1609  3.1155  1.8706
11292TIP3    H255368   3.793   0.737  17.108 -0.0893 -2.6883 -1.9259
11293TIP3   OH255369   4.198   6.828  11.162 -0.0360 -0.5366  0.3385
11293TIP3    H155370   4.271   6.774  11.134 -0.0133 -0.2809 -0.1089
11293TIP3    H255371   4.122   6.789  11.119  0.1885  0.6901 -1.2549
11294TIP3   OH255372   0.872   5.644  10.938  0.4460  0.3326 -0.6847
11294TIP3    H155373   0.904   5.730  10.912 -2.7462  1.2513 -2.0142
11294TIP3    H255374   0.887   5.641  11.033  1.8536  1.7373 -0.8144
11295TIP3   OH255375   1.514   0.123  15.098 -0.1886 -0.0192 -0.3203
11295TIP3    H155376   1.473   0.089  15.019  0.7983 -0.8585 -0.4924
11295TIP3    H255377   1.457   0.092  15.169 -0.1470 -0.7464 -0.5878
11296TIP3   OH255378   4.400   2.173   4.604  0.6619 -0.1566 -0.1646
11296TIP3    H155379   4.403   2.233   4.529 -0.6596 -0.1926 -0.2816
11296TIP3    H255380   4.444   2.094   4.573 -1.6995 -0.9925 -1.7537
11297TIP3   OH255381   4.558   2.502   5.900  0.8136 -0.3194 -0.4086
11297TIP3    H155382   4.607   2.563   5.845  0.3512 -0.7716 -1.3540
11297TIP3    H255383   4.472   2.543   5.910  0.1211 -1.2970 -1.9893
11298TIP3   OH255384   0.165   2.067   0.173  0.2146  0.1801  0.5035
11298TIP3    H155385   0.212   1.985   0.159  0.0080 -0.1258  1.5027
11298TIP3    H255386   0.234   2.133   0.185  0.3854  0.0044  0.4893
11299TIP3   OH255387   1.425   0.494  13.090 -0.4939  0.3815  0.7504
11299TIP3    H155388   1.356   0.552  13.058 -0.9118 -0.3993  0.1840
11299TIP3    H255389   1.456   0.535  13.170 -0.1796  1.8309 -0.0846
11300TIP3   OH255390   6.804   3.871  12.608 -0.0068  0.4591  0.6161
11300TIP3    H155391   6.808   3.889  12.514  1.8926 -0.4322  0.4968
11300TIP3    H255392   6.777   3.779  12.614  1.6139 -0.0215  0.8614
11301TIP3   OH255393   6.840   2.160   1.469 -0.8018 -0.0989 -0.2493
11301TIP3    H155394   6.865   2.206   1.389  1.3963 -0.9586 -0.1100
11301TIP3    H255395   6.921   2.123   1.502 -2.0421 -1.7265  1.1472
11302TIP3   OH255396   4.005   4.477  14.609 -0.9081  0.4863  0.3697
11302TIP3    H155397   3.961   4.429  14.539  2.0880 -1.1855 -0.5709
11302TIP3    H255398   4.025   4.563  14.571  0.1124 -0.1774 -0.6430
11303TIP3   OH255399   4.593   2.156  13.228 -0.7015 -0.1218  0.2632
11303TIP3    H155400   4.511   2.109  13.216 -0.7079 -0.1990  0.6115
11303TIP3    H255401   4.625   2.171  13.139 -0.7326 -0.7191  0.1501
11304TIP3   OH255402   1.582   2.369  12.068  0.2446 -0.1181 -0.6610
11304TIP3    H155403   1.639   2.433  12.024 -1.6219  0.9294 -1.7110
11304TIP3    H255404   1.611   2.284  12.035  1.3545  0.3731 -0.9851
11305TIP3   OH255405   3.518   0.583   0.196  0.3976 -0.8200 -0.0068
11305TIP3    H155406   3.583   0.568   0.265  1.3027 -0.5633 -0.7904
11305TIP3    H255407   3.437   0.547   0.232  1.6271 -4.2166 -0.3260
11306TIP3   OH255408   0.178   0.076  16.488  0.1084  0.1110  0.2188
11306TIP3    H155409   0.229   0.150  16.520 -1.2802  2.4664 -2.5363
11306TIP3    H255410   0.093   0.083  16.532 -0.2659  0.6433 -0.5583
11307TIP3   OH255411   2.874   3.933   0.131  1.0470 -0.7240 -0.4302
11307TIP3    H155412   2.953   3.980   0.106 -0.4660  0.2991 -3.7651
11307TIP3    H255413   2.802   3.990   0.103 -0.9501 -1.7486  2.1853
11308TIP3   OH255414   2.806   0.523   4.749 -0.3078 -0.6645  0.2309
11308TIP3    H155415   2.742   0.542   4.681 -0.9237 -0.6139  0.8128
11308TIP3    H255416   2.758   0.470   4.813  0.4480 -1.2927  0.2917
11309TIP3   OH255417   6.772   5.624  13.783  0.5206 -0.3443 -0.2189
11309TIP3    H155418   6.753   5.657  13.871  0.4932  1.7169 -0.9412
11309TIP3    H255419   6.718   5.677  13.725  1.9472 -0.3420 -1.6294
11310TIP3   OH255420   0.099   1.803   4.936 -0.2283 -0.3013  0.2065
11310TIP3    H155421   0.139   1.717   4.941  1.8320  0.6069  0.4625
11310TIP3    H255422   0.114   1.841   5.023 -1.2152  0.2863  0.1368
11311TIP3   OH255423   0.330   5.508  14.509  0.5040  0.5196  0.0721
11311TIP3    H155424   0.413   5.516  14.462 -1.1350 -1.0770 -3.4309
11311TIP3    H255425   0.329   5.418  14.541  0.5250  0.8509  1.0424
11312TIP3   OH255426   4.457   4.734  15.261  0.7454 -0.2330 -0.2363
11312TIP3    H155427   4.475   4.815  15.310  0.2395  0.3257 -0.9427
11312TIP3    H255428   4.528   4.729  15.198  0.7525 -0.3209 -0.2211
11313TIP3   OH255429   2.948   0.616  15.041  0.4604 -0.1410  0.3404
11313TIP3    H155430   2.921   0.525  15.034  0.3164 -0.1610  1.0743
11313TIP3    H255431   3.025   0.615  15.097  0.0127  0.2582  0.9790
11314TIP3   OH255432   0.470   6.388  16.150  0.3713 -0.0698  0.0149
11314TIP3    H155433   0.485   6.462  16.209 -0.2490  0.5797 -0.6150
11314TIP3    H255434   0.383   6.356  16.174  0.4288 -0.2713 -0.0480
11315TIP3   OH255435   0.205   2.930  11.587 -0.2876 -0.2150 -0.5005
11315TIP3    H155436   0.217   2.918  11.681 -0.3055  0.3547 -0.4170
11315TIP3    H255437   0.157   2.852  11.557  1.5347 -1.4124 -0.4216
11316TIP3   OH255438   1.525   3.114   4.853 -0.0671  0.0323  0.4951
11316TIP3    H155439   1.440   3.157   4.848 -0.8284 -1.4777 -0.4773
11316TIP3    H255440   1.575   3.166   4.916 -1.5605  1.1965  0.7772
11317TIP3   OH255441   3.861   0.944  13.937  0.0123  0.6204 -0.8725
11317TIP3    H155442   3.931   0.888  13.971 -0.4910  0.4236 -0.1493
11317TIP3    H255443   3.859   1.019  13.997 -1.0970  0.1140 -0.2485
11318TIP3   OH255444   3.487   3.692   1.893  0.1147 -0.1647  0.7743
11318TIP3    H155445   3.424   3.716   1.825  0.5569  0.0822  0.4442
11318TIP3    H255446   3.443   3.624   1.944  0.1366 -1.0309 -0.3287
11319TIP3   OH255447   1.169   2.308   1.962 -0.6077 -0.0586 -0.9217
11319TIP3    H155448   1.121   2.226   1.949  0.1306 -0.4124 -1.5454
11319TIP3    H255449   1.260   2.279   1.978 -0.3391  0.6422 -1.1669
11320TIP3   OH255450   5.841   2.172  11.314 -1.2213 -0.4041 -0.1234
11320TIP3    H155451   5.765   2.130  11.275 -0.2757 -1.0096 -1.4098
11320TIP3    H255452   5.858   2.248  11.258 -0.4872 -0.6689 -0.2753
11321TIP3   OH255453   0.526   5.829  14.904 -0.3976  0.0325 -0.1087
11321TIP3    H155454   0.584   5.826  14.981 -1.3066  0.8905  0.6279
11321TIP3    H255455   0.519   5.738  14.877  0.5281 -0.2022  0.3763
11322TIP3   OH255456   1.205   4.131  12.044 -0.1323  0.4334 -0.6950
11322TIP3    H155457   1.198   4.216  12.088  0.0736 -0.0764  0.3750
11322TIP3    H255458   1.248   4.150  11.961 -2.2185  1.7033 -1.5469
11323TIP3   OH255459   2.581   6.421   0.228  0.6074  0.5106 -0.2890
11323TIP3    H155460   2.522   6.468   0.287 -0.0606  1.6057 -1.7631
11323TIP3    H255461   2.600   6.483   0.158  2.5426 -0.2535 -0.5068
11324TIP3   OH255462   6.473   0.950   2.869 -0.6274  0.1224  0.3138
11324TIP3    H155463   6.563   0.920   2.861  0.0288  2.4255 -3.8745
11324TIP3    H255464   6.463   0.971   2.962  3.1766 -0.1311  0.9386
11325TIP3   OH255465   2.528   0.249  13.780  0.4884 -0.4040 -0.0380
11325TIP3    H155466   2.476   0.183  13.827  1.6818  0.1617  2.2343
11325TIP3    H255467   2.601   0.267  13.839  2.2224  0.2402 -2.2698
11326TIP3   OH255468   4.098   2.697   6.521  0.1244  0.5399 -0.2631
11326TIP3    H155469   4.150   2.770   6.556 -0.4574  0.5544  0.6127
11326TIP3    H255470   4.015   2.703   6.568 -1.0544  1.0742 -2.2893
11327TIP3   OH255471   4.200   6.419  12.958  0.0879  0.0081 -0.0263
11327TIP3    H155472   4.177   6.353  12.893  1.3484 -1.6235  1.0874
11327TIP3    H255473   4.124   6.424  13.015 -0.5055  0.4744 -0.8405
11328TIP3   OH255474   0.681   2.484   6.567 -0.3719 -0.0101  0.2503
11328TIP3    H155475   0.601   2.459   6.611 -0.9652 -0.9045 -1.2704
11328TIP3    H255476   0.699   2.413   6.506  0.2896  1.2345 -1.0925
11329TIP3   OH255477   4.148   5.373   4.427  0.3575  0.4301 -0.0820
11329TIP3    H155478   4.175   5.285   4.453  2.4693  1.2475  0.6997
11329TIP3    H255479   4.052   5.368   4.423  0.3433 -1.5520  1.1991
11330TIP3   OH255480   0.076   3.983  10.676 -0.0705 -0.3745 -0.3690
11330TIP3    H155481   0.106   3.903  10.719  1.1691 -0.1098 -0.6827
11330TIP3    H255482  -0.019   3.982  10.686 -0.0739 -1.8454 -0.2949
11331TIP3   OH255483   4.690   6.485  14.750  0.4408  0.4883 -0.4415
11331TIP3    H155484   4.662   6.450  14.665 -0.8778  0.4584 -0.0173
11331TIP3    H255485   4.747   6.417  14.786 -2.7390 -1.8191  0.7618
11332TIP3   OH255486   0.746   3.540   3.385  0.2637  0.3559  0.8264
11332TIP3    H155487   0.827   3.518   3.432 -0.5063  1.6274  2.8755
11332TIP3    H255488   0.776   3.590   3.308  1.4701 -0.3595  0.7952
11333TIP3   OH255489   5.909   0.565  11.227 -0.3871  0.0232  0.1410
11333TIP3    H155490   5.919   0.650  11.184 -1.0617  0.3179  0.5510
11333TIP3    H255491   5.880   0.507  11.157 -0.1400  0.1763 -0.0950
11334TIP3   OH255492   6.733   4.148   5.691 -0.2732  0.5030  0.3988
11334TIP3    H155493   6.827   4.142   5.708 -0.7640  0.0360  3.6824
11334TIP3    H255494   6.715   4.242   5.687  0.4062  0.5998 -1.2475
11335TIP3   OH255495   2.182   6.375   2.579 -0.1538 -0.7328  0.0607
11335TIP3    H155496   2.115   6.438   2.555  1.7214  1.4535  0.1614
11335TIP3    H255497   2.171   6.362   2.673 -1.5812 -1.9039 -0.2392
11336TIP3   OH255498   0.663   6.028  16.793 -0.2224 -0.0168 -0.2843
11336TIP3    H155499   0.692   5.945  16.753  2.4321  0.3452  0.6971
11336TIP3    H255500   0.588   6.003  16.848 -0.4293 -1.4727 -1.1537
11337TIP3   OH255501   6.366   1.537  11.876 -0.0695 -0.4763 -0.0933
11337TIP3    H155502   6.444   1.482  11.867 -0.4208 -0.8005 -1.4544
11337TIP3    H255503   6.333   1.519  11.964  1.0981 -0.7152  0.3113
11338TIP3   OH255504   1.641   1.205   5.226  0.1479 -0.2508  0.0292
11338TIP3    H155505   1.694   1.131   5.196  0.7974  0.0571  0.4027
11338TIP3    H255506   1.650   1.204   5.322  0.7855  0.7612 -0.0040
11339TIP3   OH255507   2.614   4.989   0.024  0.9658  0.0956 -0.1131
11339TIP3    H155508   2.580   5.005   0.111  1.8975 -3.0601  0.9679
11339TIP3    H255509   2.556   4.922  -0.013  2.4736 -1.0286 -0.5512
11340TIP3   OH255510   1.397   2.273  13.971 -0.1302 -0.6648 -0.0653
11340TIP3    H155511   1.316   2.315  14.000  0.3729 -1.1141  2.2145
11340TIP3    H255512   1.467   2.319  14.018  0.7443 -1.6090 -0.3941
11341TIP3   OH255513   6.556   2.427   5.018 -0.3370 -0.6381 -0.1808
11341TIP3    H155514   6.498   2.351   5.022 -1.9254  0.5593  2.3386
11341TIP3    H255515   6.588   2.438   5.107  1.4876  0.4730 -0.9249
11342TIP3   OH255516   2.567   4.379   5.630 -0.2849 -0.2618  0.3858
11342TIP3    H155517   2.544   4.290   5.657 -1.2426 -0.3084 -0.5246
11342TIP3    H255518   2.551   4.432   5.708 -3.1835 -0.3605 -0.0488
11343TIP3   OH255519   2.860   2.368  15.502  0.1821 -0.6528 -0.4930
11343TIP3    H155520   2.949   2.343  15.528 -0.0699 -0.7485  0.3255
11343TIP3    H255521   2.823   2.288  15.464  0.0137 -1.0083  0.3818
11344TIP3   OH255522   3.748   3.272   3.974  0.2597  0.6135  0.0605
11344TIP3    H155523   3.812   3.221   4.024 -0.5309  1.1905  1.7246
11344TIP3    H255524   3.798   3.310   3.902  2.3580  2.9381  2.5761
11345TIP3   OH255525   1.173   0.378   1.258  0.0436 -0.2322  0.1077
11345TIP3    H155526   1.134   0.423   1.333 -0.1602  2.6603 -1.5947
11345TIP3    H255527   1.265   0.369   1.281 -0.2522 -0.5668  1.2107
11346TIP3   OH255528   6.585   6.306   3.081 -0.8006 -0.4457 -0.4808
11346TIP3    H155529   6.655   6.351   3.033 -0.2536 -0.8195 -0.0428
11346TIP3    H255530   6.533   6.378   3.119 -0.6688 -0.1668 -0.8163
11347TIP3   OH255531   2.690   4.497  14.395 -0.0899 -0.1201  0.2489
11347TIP3    H155532   2.619   4.504  14.332  0.1555  1.2748  0.1108
11347TIP3    H255533   2.649   4.518  14.479 -0.5432 -2.5095  0.6925
11348TIP3   OH255534   1.528   3.885  17.066 -0.3451  0.9536 -0.2206
11348TIP3    H155535   1.466   3.823  17.105  1.3101 -1.0873 -0.6192
11348TIP3    H255536   1.531   3.958  17.128 -0.1331 -0.7458  1.9222
11349TIP3   OH255537   6.748   2.534   1.637  0.8161 -0.4388 -0.1767
11349TIP3    H155538   6.760   2.588   1.559 -0.6750 -0.1416 -0.2337
11349TIP3    H255539   6.821   2.556   1.694 -0.3847  2.6369  0.3616
11350TIP3   OH255540   0.802   2.694   3.555 -0.3638  0.4494 -0.0452
11350TIP3    H155541   0.882   2.674   3.506 -0.6642 -1.0952  0.0260
11350TIP3    H255542   0.817   2.780   3.593  0.3966  1.1222 -1.8006
11351TIP3   OH255543   1.671   2.563  15.623  0.1033 -0.7710 -0.5042
11351TIP3    H155544   1.606   2.613  15.672  2.4728  0.3298  1.8086
11351TIP3    H255545   1.706   2.624  15.559  0.6268 -0.5173  0.0135
11352TIP3   OH255546   5.185   3.330   4.232 -0.4338  0.3807 -0.2000
11352TIP3    H155547   5.212   3.314   4.142  1.6223  3.0025 -0.1698
11352TIP3    H255548   5.232   3.409   4.258 -2.4110  0.8205  2.5679
11353TIP3   OH255549   6.534   4.954  15.381  0.0899  0.3676 -0.6006
11353TIP3    H155550   6.490   4.984  15.460  0.3337  0.0081 -0.3234
11353TIP3    H255551   6.606   5.015  15.368  0.6784 -0.1729  0.0481
11354TIP3   OH255552   3.670   5.833   2.454 -0.1381  0.3646  0.4924
11354TIP3    H155553   3.656   5.739   2.442 -1.3155  0.2388  2.3625
11354TIP3    H255554   3.753   5.851   2.409 -0.1900 -1.4428 -0.4102
11355TIP3   OH255555   0.493   0.143  12.220 -0.1737  0.0611 -0.3020
11355TIP3    H155556   0.524   0.162  12.308 -0.3226  0.6121 -0.3659
11355TIP3    H255557   0.570   0.156  12.164 -0.4357  1.1853 -0.4290
11356TIP3   OH255558   0.913   2.393   3.538 -0.0099 -0.1012 -0.2249
11356TIP3    H155559   0.863   2.415   3.459 -0.1583  1.6097  0.2893
11356TIP3    H255560   1.000   2.429   3.522  0.8971 -2.3500 -0.7717
11357TIP3   OH255561   2.971   3.024   0.317 -0.2059 -0.0175 -0.9285
11357TIP3    H155562   2.924   2.941   0.330  0.5875 -0.3521 -0.0202
11357TIP3    H255563   3.032   3.006   0.245  0.2444 -0.3652 -0.4711
11358TIP3   OH255564   6.425   6.235  12.187  0.0752 -0.3953 -0.9156
11358TIP3    H155565   6.455   6.166  12.245  2.3923  0.0723 -1.4561
11358TIP3    H255566   6.342   6.264  12.225  1.3774 -0.2463  2.0702
11359TIP3   OH255567   1.830   2.911  12.414 -0.9951 -0.1905  0.3675
11359TIP3    H155568   1.889   2.920  12.489 -0.4743 -1.6432  0.1645
11359TIP3    H255569   1.864   2.973  12.349  0.9491 -1.6626 -0.1151
11360TIP3   OH255570   1.714   2.315  12.339 -0.0191  0.3746  0.3560
11360TIP3    H155571   1.646   2.335  12.275  0.9111 -1.9063 -1.5106
11360TIP3    H255572   1.733   2.222  12.325  2.7450  0.6806  1.5126
11361TIP3   OH255573   0.337   4.715   1.899  0.6837  0.7495  0.2028
11361TIP3    H155574   0.433   4.720   1.899  0.7671 -0.3615 -0.1751
11361TIP3    H255575   0.314   4.695   1.990  0.9382 -0.3815  0.0441
11362TIP3   OH255576   2.601   5.562  14.223 -0.0464 -0.6366 -0.3149
11362TIP3    H155577   2.563   5.555  14.311 -1.9107  1.5464 -0.8709
11362TIP3    H255578   2.556   5.635  14.183  1.5614 -0.8706 -2.7457
11363TIP3   OH255579   0.684   1.443   2.681 -0.5849  0.2380  0.0257
11363TIP3    H155580   0.705   1.506   2.612 -0.1077 -0.4211 -0.4390
11363TIP3    H255581   0.594   1.463   2.704 -1.1635 -0.2992 -1.6285
11364TIP3   OH255582   5.323   3.069   2.459  0.4681  0.0823  0.6315
11364TIP3    H155583   5.399   3.012   2.448  1.0420  1.1289 -1.3914
11364TIP3    H255584   5.272   3.028   2.529  1.7823 -1.8438  0.5478
11365TIP3   OH255585   4.395   5.369  11.937 -0.4824 -0.1347  0.5795
11365TIP3    H155586   4.379   5.276  11.952 -0.3120 -0.2655 -0.0240
11365TIP3    H255587   4.490   5.379  11.947 -0.2128 -0.4172 -1.3138
11366TIP3   OH255588   2.640   2.930   2.339  0.2323  0.5079  0.0530
11366TIP3    H155589   2.573   2.983   2.382 -0.8059  0.0445 -0.9178
11366TIP3    H255590   2.658   2.859   2.401 -0.2609  0.5788  0.2804
11367TIP3   OH255591   6.292   4.033   3.706 -0.0762  0.4344 -0.6817
11367TIP3    H155592   6.325   4.011   3.793 -0.0318 -0.0489 -0.8168
11367TIP3    H255593   6.365   4.079   3.664  0.3682 -0.4592 -0.9117
11368TIP3   OH255594   3.171   0.457   5.748  0.4114  0.0934  0.1746
11368TIP3    H155595   3.180   0.449   5.843 -1.3101 -0.2275  0.3355
11368TIP3    H255596   3.121   0.538   5.735  0.8187  0.2491 -0.4759
11369TIP3   OH255597   1.180   1.760   2.894 -0.3146 -0.0016  0.2805
11369TIP3    H155598   1.094   1.788   2.863  0.1206  0.8565 -0.1692
11369TIP3    H255599   1.162   1.679   2.943 -1.4630  0.5530  0.8132
11370TIP3   OH255600   3.611   4.592  14.527  0.0093 -0.3187 -0.2799
11370TIP3    H155601   3.585   4.573  14.617  2.7406 -2.9694  0.1029
11370TIP3    H255602   3.683   4.654  14.535 -1.0152  0.9830 -0.8226
11371TIP3   OH255603   0.133   2.630   5.233 -0.9189  0.6137  0.4619
11371TIP3    H155604   0.129   2.558   5.295 -0.0928  0.6763  0.5988
11371TIP3    H255605   0.092   2.704   5.278  0.2895  0.8481  1.2142
11372TIP3   OH255606   5.610   0.115  10.566  0.0330 -0.4010 -0.0791
11372TIP3    H155607   5.534   0.125  10.509 -0.2202  0.8278  0.4574
11372TIP3    H255608   5.662   0.194  10.552  0.1662 -0.2673  1.0969
11373TIP3   OH255609   1.756   5.905   0.702 -0.7888  0.2539  0.5418
11373TIP3    H155610   1.735   5.965   0.631  0.7568  0.3779  0.1505
11373TIP3    H255611   1.841   5.868   0.678 -2.0822 -2.8661  0.2537
11374TIP3   OH255612   3.326   2.863   1.245 -0.1537  0.6347  0.3231
11374TIP3    H155613   3.366   2.886   1.161 -1.6848  0.7957 -0.3948
11374TIP3    H255614   3.328   2.767   1.246 -0.4497  0.6208 -0.0692
11375TIP3   OH255615   0.872   2.879  13.109  0.4035  0.0930  0.3525
11375TIP3    H155616   0.834   2.959  13.073 -1.7114 -0.8033  0.4681
11375TIP3    H255617   0.797   2.824  13.131  1.7736 -2.5354 -1.0583
11376TIP3   OH255618   1.928   2.789  14.419  0.8235 -0.2671  0.2880
11376TIP3    H155619   1.947   2.863  14.361  1.8583 -0.2004  0.6971
11376TIP3    H255620   2.004   2.731  14.410  0.9994 -0.2548  1.5662
11377TIP3   OH255621   0.215   3.124  11.380 -0.3586  0.3132 -0.0595
11377TIP3    H155622   0.228   3.067  11.456  0.5545 -0.6058 -0.8583
11377TIP3    H255623   0.274   3.197  11.394 -0.3041  0.2198  0.1961
11378TIP3   OH255624   5.292   2.401   1.505  0.3830 -0.1952 -0.3999
11378TIP3    H155625   5.385   2.395   1.525  0.2833 -1.0980 -0.1364
11378TIP3    H255626   5.266   2.488   1.535  0.3841 -1.1718  2.9516
11379TIP3   OH255627   4.842   3.357  16.508 -0.4221 -0.4340 -0.0185
11379TIP3    H155628   4.800   3.392  16.429 -0.5403  1.4102  0.8156
11379TIP3    H255629   4.887   3.432  16.547 -0.3948 -1.2906  1.7043
11380TIP3   OH255630   1.416   3.395  15.162 -0.5865 -0.3832 -0.5380
11380TIP3    H155631   1.506   3.363  15.153 -0.3864  0.3619 -1.2931
11380TIP3    H255632   1.362   3.325  15.126 -0.4663 -1.6256  1.5464
11381TIP3   OH255633   0.555   2.600   3.448  0.3332  0.7391 -0.4060
11381TIP3    H155634   0.637   2.640   3.477  0.8870 -0.1264 -0.7160
11381TIP3    H255635   0.542   2.526   3.508 -1.3867  2.1102  1.0259
11382TIP3   OH255636   0.536   0.689   6.177 -0.4598  0.0169 -0.1694
11382TIP3    H155637   0.588   0.627   6.229 -2.0888 -0.5053  0.9227
11382TIP3    H255638   0.528   0.766   6.233 -3.1273 -0.9431  0.9328
11383TIP3   OH255639   2.381   0.765   0.156 -0.3785 -0.2451  0.5228
11383TIP3    H155640   2.359   0.687   0.106 -2.0289  0.9550 -0.7497
11383TIP3    H255641   2.445   0.735   0.220 -2.0476 -2.9711  1.1014
11384TIP3   OH255642   6.006   3.213   3.117 -0.6021  0.1338  0.7916
11384TIP3    H155643   5.971   3.300   3.137 -3.1267  0.4313 -3.5751
11384TIP3    H255644   5.931   3.155   3.125 -0.7055 -0.3803 -2.5626
11385TIP3   OH255645   1.701   2.545  16.192  0.0994  0.8939 -0.2813
11385TIP3    H155646   1.696   2.463  16.240  0.6029  0.2330 -1.3209
11385TIP3    H255647   1.628   2.597  16.226 -1.4572 -0.7405 -0.9774
11386TIP3   OH255648   0.144   1.232   0.968  0.5804 -0.2380  0.0247
11386TIP3    H155649   0.161   1.233   0.874  1.8279  0.8551  0.2368
11386TIP3    H255650   0.063   1.282   0.979 -0.0001 -1.0303 -0.5226
11387TIP3   OH255651   0.519   3.150   4.686 -0.3813  0.4115  0.2020
11387TIP3    H155652   0.431   3.137   4.722 -1.0961  0.5158 -1.3881
11387TIP3    H255653   0.506   3.146   4.591  1.5264 -0.7296 -0.0564
11388TIP3   OH255654   3.005   0.047  14.094  0.0088 -0.1362  0.0002
11388TIP3    H155655   2.971  -0.024  14.039  0.1045 -0.8299  0.8186
11388TIP3    H255656   3.087   0.073  14.051 -1.5481  1.7232 -2.1292
11389TIP3   OH255657   5.646   6.179  16.227 -0.6770 -0.4494  0.2569
11389TIP3    H155658   5.737   6.150  16.234 -0.7462 -1.9564 -3.1724
11389TIP3    H255659   5.653   6.270  16.198 -0.1369 -1.0210 -1.5587
11390TIP3   OH255660   3.021   0.983  11.929  0.0746  0.1605  0.2916
11390TIP3    H155661   2.952   1.013  11.988  1.1910  0.8034  1.3352
11390TIP3    H255662   2.980   0.915  11.876 -1.1559  0.0276  1.3563
11391TIP3   OH255663   6.018   6.603   1.333 -0.1867  0.6472 -0.1621
11391TIP3    H155664   6.021   6.559   1.418  0.1529  3.1350  1.2122
11391TIP3    H255665   6.108   6.599   1.301  0.0547  1.2238  0.4363
11392TIP3   OH255666   1.499   3.915  13.451 -0.0924  0.1626 -0.5430
11392TIP3    H155667   1.426   3.875  13.498  0.9486 -1.5051 -0.2501
11392TIP3    H255668   1.465   3.999  13.420 -2.3813 -0.9027 -1.1293
11393TIP3   OH255669   0.233   6.766  13.884  0.1562 -0.3243  0.2232
11393TIP3    H155670   0.314   6.781  13.933  0.0184  0.6343  0.1765
11393TIP3    H255671   0.170   6.736  13.949  0.9163 -2.5318  0.0330
11394TIP3   OH255672   0.631   3.853  10.303 -0.3797 -0.4895 -0.0295
11394TIP3    H155673   0.554   3.809  10.339 -0.5999  0.1526  0.3096
11394TIP3    H255674   0.688   3.782  10.273  0.2790 -1.1257  2.5087
11395TIP3   OH255675   6.626   3.800   2.105  0.2237  0.7182 -0.1565
11395TIP3    H155676   6.596   3.870   2.164  1.2780 -0.0266  1.3120
11395TIP3    H255677   6.546   3.754   2.081 -0.1655  0.5838  1.3013
11396TIP3   OH255678   0.415   1.588  11.726 -0.1511 -0.1197 -0.1290
11396TIP3    H155679   0.502   1.627  11.717  0.7838 -1.9718  0.3952
11396TIP3    H255680   0.421   1.505  11.680 -2.8236  1.2385 -3.3559
11397TIP3   OH255681   5.797   3.671  13.093  0.3535 -0.3452 -0.4237
11397TIP3    H155682   5.703   3.673  13.076  0.3282  2.0064 -0.3936
11397TIP3    H255683   5.807   3.607  13.164 -1.2729 -0.3482 -0.1455
11398TIP3   OH255684   0.095   2.077  12.572 -0.1460 -0.3035 -0.9765
11398TIP3    H155685   0.065   2.082  12.481  0.8757 -1.1807 -1.3878
11398TIP3    H255686   0.097   1.983  12.591  0.7828 -0.1893 -0.4568
11399TIP3   OH255687   3.047   1.833   3.092  0.1421  0.2221  0.2873
11399TIP3    H155688   3.128   1.781   3.092 -0.5426 -0.8673  0.6364
11399TIP3    H255689   3.056   1.890   3.016  0.7514 -0.6601 -0.3237
11400TIP3   OH255690   4.783   6.145  16.899  0.0349  0.3963 -0.0679
11400TIP3    H155691   4.788   6.225  16.952 -0.3712 -0.3429  1.1395
11400TIP3    H255692   4.786   6.074  16.963  2.0298 -0.6233 -1.2043
11401TIP3   OH255693   0.021   2.821   5.883  0.3909  0.1301 -0.5413
11401TIP3    H155694   0.110   2.852   5.867  0.2813  1.0812  0.5867
11401TIP3    H255695   0.031   2.726   5.895  1.1218  0.1023 -1.2636
11402TIP3   OH255696   1.027   5.172  15.882 -0.3401  0.0033 -0.0453
11402TIP3    H155697   1.008   5.261  15.913 -1.5215  0.6678 -2.4640
11402TIP3    H255698   0.960   5.117  15.924  0.9534  0.0246  2.1873
11403TIP3   OH255699   3.619   3.979  13.416 -0.3984  0.5661 -0.0394
11403TIP3    H155700   3.565   3.933  13.481  0.2880 -0.8571 -0.4431
11403TIP3    H255701   3.623   3.919  13.342 -0.1158  1.6283 -0.9070
11404TIP3   OH255702   4.173   1.205   2.006 -0.5793  0.6393 -0.0102
11404TIP3    H155703   4.143   1.199   2.097 -0.3842  1.7609  0.1397
11404TIP3    H255704   4.108   1.261   1.963  0.5476  1.9952  0.0038
11405TIP3   OH255705   3.867   3.571  12.183  0.1546 -0.2362 -0.6304
11405TIP3    H155706   3.834   3.558  12.271 -1.3315  0.3128 -1.0758
11405TIP3    H255707   3.912   3.655  12.186 -1.3619  0.6149 -0.7620
11406TIP3   OH255708   2.646   4.154  15.928 -0.5169 -0.5225 -0.1878
11406TIP3    H155709   2.605   4.228  15.884  0.7941  1.0914  1.1460
11406TIP3    H255710   2.686   4.192  16.006  2.0496 -2.2419 -0.5457
11407TIP3   OH255711   2.048   5.065  16.623  0.3081 -0.1550  0.6112
11407TIP3    H155712   2.031   5.017  16.703  0.6020 -0.4943  0.4720
11407TIP3    H255713   1.964   5.105  16.600  0.2655  0.0822  1.1761
11408TIP3   OH255714   6.401   2.152  12.132  0.4075 -0.0622  0.0831
11408TIP3    H155715   6.340   2.190  12.195 -0.4572  0.0141 -0.7735
11408TIP3    H255716   6.345   2.116  12.063  1.3419  0.5765 -1.0413
11409TIP3   OH255717   5.302   2.162  13.189  0.2109 -0.3236 -0.2541
11409TIP3    H155718   5.287   2.252  13.162 -0.6720 -0.2932  0.2994
11409TIP3    H255719   5.379   2.134  13.139 -1.6068 -0.4504 -3.2001
11410TIP3   OH255720   6.168   4.500   2.723  0.0452 -0.5634  0.4623
11410TIP3    H155721   6.252   4.546   2.713 -0.7046  1.2883  1.9617
11410TIP3    H255722   6.187   4.430   2.785  0.6855 -0.7015  0.1144
11411TIP3   OH255723   5.058   2.513   6.132 -0.4566 -0.4579 -0.5751
11411TIP3    H155724   5.067   2.512   6.227 -1.3744  0.0650 -0.4710
11411TIP3    H255725   5.096   2.430   6.103 -1.0507 -1.0649  0.3343
11412TIP3   OH255726   3.909   0.373   3.457 -0.2255  0.3603 -0.3928
11412TIP3    H155727   3.923   0.430   3.533 -0.9612 -1.0010  0.8137
11412TIP3    H255728   3.899   0.285   3.495 -1.7221 -0.1874 -1.9600
11413TIP3   OH255729   1.230   1.217   1.388  0.3844  0.2095  0.0770
11413TIP3    H155730   1.251   1.250   1.301 -0.5978 -0.0984 -0.2797
11413TIP3    H255731   1.233   1.295   1.444 -0.9504  0.7561 -0.5862
11414TIP3   OH255732   2.430   1.681  11.909 -0.2828  0.4994  0.3324
11414TIP3    H155733   2.470   1.764  11.881  0.1107 -0.6836 -3.1307
11414TIP3    H255734   2.479   1.655  11.987  2.0460  1.7786 -0.6261
11415TIP3   OH255735   2.284   3.556  12.142 -0.7519 -1.1079 -0.0293
11415TIP3    H155736   2.206   3.558  12.086 -0.1428  0.0532 -0.8997
11415TIP3    H255737   2.328   3.640  12.124 -1.1902 -0.0644  3.1994
11416TIP3   OH255738   4.827   0.011   2.349 -0.1243 -0.0239  0.0099
11416TIP3    H155739   4.741   0.032   2.312  0.0565  0.1343 -0.3292
11416TIP3    H255740   4.808  -0.033   2.431 -0.5309  0.2520  0.0686
11417TIP3   OH255741   1.604   4.024  13.704 -0.4022 -0.6473  0.0117
11417TIP3    H155742   1.543   4.098  13.709  0.3191  0.0537 -1.0521
11417TIP3    H255743   1.552   3.954  13.663 -0.4890 -0.0313 -0.9639
11418TIP3   OH255744   5.639   4.282  15.258  0.1748 -0.3039 -0.4818
11418TIP3    H155745   5.634   4.286  15.162  0.2670 -0.2688 -0.4851
11418TIP3    H255746   5.588   4.357  15.288 -1.3492 -1.3298 -0.4562
11419TIP3   OH255747   6.359   4.694  12.253  0.9045  0.3142  0.1802
11419TIP3    H155748   6.324   4.782  12.239 -1.1922 -0.3871  0.6723
11419TIP3    H255749   6.305   4.658  12.324 -1.3823 -2.9286 -2.8996
11420TIP3   OH255750   1.361   6.415   2.036 -0.1041 -0.9188 -0.1527
11420TIP3    H155751   1.358   6.363   1.955  0.4339  1.5214 -1.8548
11420TIP3    H255752   1.451   6.406   2.067  0.2414 -0.2816 -0.9535
11421TIP3   OH255753   3.319   4.362   1.460  0.2766 -0.4550 -0.1201
11421TIP3    H155754   3.324   4.443   1.409  1.0368 -0.0482  0.5799
11421TIP3    H255755   3.242   4.374   1.516  0.7166  0.0315  0.3893
11422TIP3   OH255756   0.795   6.268  16.800  0.0436 -0.8126 -0.1556
11422TIP3    H155757   0.824   6.287  16.890  1.3425 -0.6294 -0.5943
11422TIP3    H255758   0.741   6.189  16.809 -0.9704 -0.0316  0.9608
11423TIP3   OH255759   5.914   4.514   3.579 -0.0986 -0.1679  0.6960
11423TIP3    H155760   5.880   4.450   3.642 -1.3851  0.6681  0.8785
11423TIP3    H255761   5.846   4.520   3.512  1.0615 -0.7265 -0.5955
11424TIP3   OH255762   0.571   4.920   5.501  0.1327 -0.0385  0.2069
11424TIP3    H155763   0.603   4.830   5.494 -0.8599 -0.5613  1.8950
11424TIP3    H255764   0.632   4.971   5.446  1.0607 -1.6252 -0.3208
11425TIP3   OH255765   2.924   1.201   3.576  0.5308  0.1868 -0.2381
11425TIP3    H155766   2.948   1.114   3.606  2.8332  0.7294 -0.3511
11425TIP3    H255767   2.986   1.221   3.506  0.0186  1.8960 -0.2573
11426TIP3   OH255768   0.766   5.970   3.292 -0.0867  0.1269  0.0317
11426TIP3    H155769   0.776   5.928   3.378 -0.1368 -0.3846 -0.2113
11426TIP3    H255770   0.844   5.944   3.243 -1.0800 -1.3580 -0.8165
11427TIP3   OH255771   0.005   5.224   4.668 -0.7150 -0.1065  0.6818
11427TIP3    H155772   0.055   5.156   4.711 -0.2043 -0.1272  0.0739
11427TIP3    H255773  -0.039   5.271   4.739  0.8693  0.4827  1.3236
11428TIP3   OH255774   4.568   6.445   4.155  0.6386 -0.0577 -0.4852
11428TIP3    H155775   4.493   6.447   4.214  1.0019 -0.4175 -0.0054
11428TIP3    H255776   4.626   6.378   4.191  0.9462 -0.1645 -1.1559
11429TIP3   OH255777   6.744   3.176  15.531  0.2489 -0.2808  0.2288
11429TIP3    H155778   6.673   3.175  15.467  1.2764 -0.2848 -0.9410
11429TIP3    H255779   6.726   3.252  15.586 -1.0904 -0.7479  0.4848
11430TIP3   OH255780   4.376   1.970  16.028  0.5673  0.8958  0.0014
11430TIP3    H155781   4.382   1.896  15.968  1.0475  0.9227  0.0063
11430TIP3    H255782   4.284   1.996  16.026  0.2023 -0.2558  0.6752
11431TIP3   OH255783   1.892   6.229   6.068  0.0727  0.4384  0.2865
11431TIP3    H155784   1.955   6.178   6.017  0.5331 -0.2309  1.5006
11431TIP3    H255785   1.875   6.306   6.013  1.0995  0.1002 -0.5545
11432TIP3   OH255786   5.288   5.472   4.323 -0.1415  0.1667 -0.5714
11432TIP3    H155787   5.256   5.548   4.371 -1.3332  0.1055 -1.2423
11432TIP3    H255788   5.263   5.396   4.376  1.7826  0.2262  0.5258
11433TIP3   OH255789   6.476   1.505  17.027 -0.3655 -0.0241  0.2923
11433TIP3    H155790   6.404   1.468  16.975 -0.4773  1.0629 -0.3589
11433TIP3    H255791   6.519   1.429  17.065 -0.8275 -0.8074 -0.6856
11434TIP3   OH255792   0.239   3.670  13.379 -0.1473  0.3506 -0.3081
11434TIP3    H155793   0.163   3.702  13.330  1.9066  4.8211 -1.0816
11434TIP3    H255794   0.300   3.640  13.312 -0.5144 -1.7437  0.2174
11435TIP3   OH255795   3.764   1.831  15.958  0.7402  0.3012 -0.1390
11435TIP3    H155796   3.760   1.830  15.862 -1.4364 -2.6738 -0.1573
11435TIP3    H255797   3.787   1.741  15.982 -1.4458  0.2165  2.0886
11436TIP3   OH255798   4.050   1.723   0.172 -0.2286 -0.5456  0.0421
11436TIP3    H155799   4.081   1.793   0.230  1.5755 -1.0310 -0.2683
11436TIP3    H255800   4.040   1.765   0.087  0.7369 -0.6081 -0.1158
11437TIP3   OH255801   2.709   0.220   3.569  0.2886  0.0840 -0.1085
11437TIP3    H155802   2.791   0.186   3.606  0.4250  0.5385  0.0148
11437TIP3    H255803   2.736   0.297   3.520 -0.3054  1.4710  1.6380
11438TIP3   OH255804   0.040   4.234   5.016 -0.1236 -0.0857 -0.4948
11438TIP3    H155805   0.084   4.318   5.002 -1.9597  1.0545  0.2101
11438TIP3    H255806   0.052   4.187   4.934  1.5106  0.5600 -0.6737
11439TIP3   OH255807   5.821   1.589  15.380  0.0654 -1.2713 -0.1202
11439TIP3    H155808   5.906   1.557  15.411  0.4231 -0.1840  0.0655
11439TIP3    H255809   5.836   1.681  15.361 -0.0206 -1.9152 -3.9915
11440TIP3   OH255810   2.046   3.510   1.895 -0.2167 -0.0038  0.6900
11440TIP3    H155811   1.955   3.524   1.921 -0.5522  1.0115 -0.8961
11440TIP3    H255812   2.097   3.538   1.971 -1.1830  1.4275  0.8638
11441TIP3   OH255813   4.241   1.015  12.854 -0.3942 -0.1562 -0.0667
11441TIP3    H155814   4.257   1.060  12.937  4.0411 -1.3475 -0.0282
11441TIP3    H255815   4.232   0.923  12.878 -0.3610 -0.3558 -0.7942
11442TIP3   OH255816   1.095   2.427   5.963  0.0983 -0.0751  0.2387
11442TIP3    H155817   1.097   2.343   6.008  1.7903  0.1375  0.6332
11442TIP3    H255818   1.186   2.442   5.935 -0.1251  1.6697  0.3035
11443TIP3   OH255819   5.203   3.497   2.641 -0.1078  0.4220  0.1699
11443TIP3    H155820   5.126   3.547   2.668  0.3892  1.4057 -0.1993
11443TIP3    H255821   5.172   3.443   2.568 -0.5215  0.5480  0.2491
11444TIP3   OH255822   0.876   3.642   0.191 -0.1631  0.2296  0.2121
11444TIP3    H155823   0.806   3.578   0.206  0.8501 -0.8542  0.4582
11444TIP3    H255824   0.909   3.621   0.104 -0.0163  0.6185  0.1730
11445TIP3   OH255825   2.332   0.601   0.790 -0.2460 -0.6549 -0.1309
11445TIP3    H155826   2.297   0.599   0.701 -0.7007 -1.3067  0.0613
11445TIP3    H255827   2.332   0.694   0.814 -0.4742 -0.5151 -0.6663
11446TIP3   OH255828   0.866   0.043   0.405 -0.0298  0.2522 -0.0773
11446TIP3    H155829   0.854   0.073   0.315 -0.0140  0.2236 -0.0890
11446TIP3    H255830   0.779   0.049   0.445 -0.4680 -1.6668 -0.6775
11447TIP3   OH255831   3.507   1.108   0.430 -0.3265  0.5364  0.0698
11447TIP3    H155832   3.433   1.100   0.490 -0.1987  2.6305  0.5807
11447TIP3    H255833   3.475   1.161   0.358  0.7926  1.9708  0.5763
11448TIP3   OH255834   1.761   5.476   1.252 -0.0762 -0.4186 -0.2532
11448TIP3    H155835   1.814   5.484   1.331 -0.7720  1.3872  0.0716
11448TIP3    H255836   1.683   5.528   1.270 -0.5745 -0.5604 -1.8559
11449TIP3   OH255837   2.675   2.263  12.777  0.3445 -0.4219  0.2034
11449TIP3    H155838   2.625   2.320  12.836 -0.0769 -1.5470  0.9709
11449TIP3    H255839   2.757   2.310  12.762 -0.2017  0.6257  0.3718
11450TIP3   OH255840   0.363   2.470  13.191 -0.1879  0.3623 -0.0440
11450TIP3    H155841   0.321   2.415  13.125 -1.3471  0.9155  0.1953
11450TIP3    H255842   0.456   2.458  13.177 -0.3741 -2.0608  0.3123
11451TIP3   OH255843   6.478   2.652  15.760 -0.0615  0.9426 -0.4197
11451TIP3    H155844   6.391   2.639  15.798 -0.2466  1.7995 -0.5351
11451TIP3    H255845   6.510   2.733  15.800  2.1276 -1.0206  2.2426
11452TIP3   OH255846   4.115   6.319  12.022 -0.0155  0.7316 -0.4607
11452TIP3    H155847   4.179   6.309  11.952  0.5035  1.1603 -0.0517
11452TIP3    H255848   4.164   6.304  12.102 -0.7876 -0.5703 -0.2129
11453TIP3   OH255849   0.604   0.292   1.456  0.2105  0.6754  0.5865
11453TIP3    H155850   0.663   0.352   1.501 -1.8068  0.8707  3.2551
11453TIP3    H255851   0.532   0.278   1.518 -1.8591 -0.6284 -1.8902
11454TIP3   OH255852   1.142   4.691   4.636 -0.4495 -0.2687 -0.2291
11454TIP3    H155853   1.062   4.684   4.584 -1.0226 -0.6999  0.6789
11454TIP3    H255854   1.171   4.782   4.623 -1.1631 -0.0674 -0.4733
11455TIP3   OH255855   6.375   2.564   1.086  0.4654 -0.2279  0.9000
11455TIP3    H155856   6.352   2.582   1.177  1.9027  1.4563  0.9936
11455TIP3    H255857   6.341   2.477   1.069 -2.1587  0.4425  2.2371
11456TIP3   OH255858   0.246   6.347  11.327  0.1109  0.1960 -0.3850
11456TIP3    H155859   0.269   6.276  11.387 -0.9961 -0.7327 -1.0366
11456TIP3    H255860   0.185   6.308  11.264 -2.2942  2.2053  0.5128
11457TIP3   OH255861   1.620   2.307   3.907 -0.0853  0.3505  0.1522
11457TIP3    H155862   1.584   2.245   3.970 -2.1944  2.1810  0.8566
11457TIP3    H255863   1.715   2.303   3.921 -0.4083 -0.1858  2.5846
11458TIP3   OH255864   0.225   2.921  14.757  0.3577  0.0073 -0.2202
11458TIP3    H155865   0.293   2.964  14.704  0.7326 -1.3716 -0.9097
11458TIP3    H255866   0.252   2.829  14.760 -1.1659 -0.4542  0.0110
11459TIP3   OH255867   6.806   6.468   1.201  0.4761 -0.8458 -0.6396
11459TIP3    H155868   6.807   6.564   1.204  3.1848 -0.8170  0.3952
11459TIP3    H255869   6.800   6.447   1.108 -1.5192  0.2474 -0.8176
11460TIP3   OH255870   2.879   6.445  13.331  0.0971 -0.2961  0.1631
11460TIP3    H155871   2.804   6.391  13.307 -0.4356  0.2452  0.5760
11460TIP3    H255872   2.954   6.385  13.328  0.2959 -0.0980 -3.8186
11461TIP3   OH255873   5.611   0.038   3.560  0.6638 -0.1699  0.1651
11461TIP3    H155874   5.610   0.094   3.637  2.2346  2.1030 -1.3402
11461TIP3    H255875   5.666  -0.036   3.585  3.5443  1.8904  0.5018
11462TIP3   OH255876   0.650   1.641  11.581 -0.2610 -0.2407 -0.3255
11462TIP3    H155877   0.706   1.714  11.608 -0.9558 -0.2306  1.2019
11462TIP3    H255878   0.572   1.682  11.544 -0.4867 -0.1975  0.1854
11463TIP3   OH255879   2.032   3.638  11.051 -0.3404  0.0590  0.2281
11463TIP3    H155880   2.116   3.678  11.076 -1.1546  1.5915  0.6439
11463TIP3    H255881   2.021   3.661  10.959  0.4498 -1.5865 -0.3177
11464TIP3   OH255882   3.631   4.436   5.895 -0.1472  0.7048  0.0016
11464TIP3    H155883   3.686   4.488   5.954 -0.1217 -0.6035  1.1897
11464TIP3    H255884   3.561   4.495   5.869  0.3791  1.6041  0.5775
11465TIP3   OH255885   0.659   1.053  12.763 -0.2262 -0.7284 -0.9546
11465TIP3    H155886   0.625   1.011  12.684 -1.3998  1.9624 -2.0103
11465TIP3    H255887   0.583   1.061  12.820  0.1271 -0.6917 -0.4865
11466TIP3   OH255888   1.102   5.043  10.742  0.6687 -0.4630  0.0853
11466TIP3    H155889   1.011   5.021  10.724  0.1221  0.8156  1.1743
11466TIP3    H255890   1.142   5.049  10.655 -0.7822  0.9570 -0.5449
11467TIP3   OH255891   3.034   1.529  13.468 -0.3549  0.0316 -0.5525
11467TIP3    H155892   3.067   1.502  13.382  1.9390 -0.1481  0.3139
11467TIP3    H255893   2.990   1.612  13.452 -0.3929 -0.2422 -1.9742
11468TIP3   OH255894   3.364   3.427   5.285 -0.0040 -0.6465 -0.5632
11468TIP3    H155895   3.321   3.380   5.357 -0.3834 -0.4854 -0.6827
11468TIP3    H255896   3.292   3.450   5.226 -0.1688  2.0825  0.5825
11469TIP3   OH255897   4.651   4.422   4.140 -0.1392 -0.2032 -0.0109
11469TIP3    H155898   4.588   4.448   4.073 -0.9068 -1.6691  0.1034
11469TIP3    H255899   4.732   4.466   4.115 -1.5215  3.1749  0.7752
11470TIP3   OH255900   2.123   6.080   6.019  0.3881 -0.1296  0.3730
11470TIP3    H155901   2.137   6.152   5.957  1.1238 -1.4795 -1.0860
11470TIP3    H255902   2.160   6.003   5.976 -3.1180 -2.0648  0.4424
11471TIP3   OH255903   4.963   3.766   0.965 -0.6002  0.1214  0.1542
11471TIP3    H155904   5.003   3.840   1.010 -0.1719 -0.2498  0.3960
11471TIP3    H255905   4.979   3.784   0.872 -0.6110  0.3939  0.2042
11472TIP3   OH255906   0.140   6.249  15.327 -0.1518  0.0402 -0.1482
11472TIP3    H155907   0.210   6.190  15.353 -1.1328 -2.8909 -3.4447
11472TIP3    H255908   0.181   6.308  15.264  0.0559  0.6417  0.5346
11473TIP3   OH255909   0.888   1.008   0.275  0.0740 -0.3629 -0.1757
11473TIP3    H155910   0.927   1.064   0.208 -0.4679 -1.1822 -1.2051
11473TIP3    H255911   0.816   0.963   0.230  0.1941 -1.5295  0.7413
11474TIP3   OH255912   0.836   5.946  13.818  0.0180 -0.4263  0.3559
11474TIP3    H155913   0.872   5.976  13.734  0.4087 -1.1507  0.2583
11474TIP3    H255914   0.911   5.949  13.878  0.2674 -1.9361  0.1511
11475TIP3   OH255915   2.354   2.483   1.858  0.0229  0.3110 -0.6212
11475TIP3    H155916   2.317   2.524   1.780  1.0868  2.1658 -0.2113
11475TIP3    H255917   2.280   2.475   1.919 -0.1884  1.9137 -0.6249
11476TIP3   OH255918   1.682   2.105   4.540 -0.3021 -0.1335 -0.2198
11476TIP3    H155919   1.659   2.153   4.461 -1.6424 -0.9123 -0.3243
11476TIP3    H255920   1.599   2.072   4.573  0.1744  0.5050  1.7460
11477TIP3   OH255921   3.677   6.487   4.952  0.1709  0.3939  0.1527
11477TIP3    H155922   3.690   6.393   4.958  0.0911  0.3514 -0.3044
11477TIP3    H255923   3.731   6.524   5.022  1.6026  0.1258 -0.7838
11478TIP3   OH255924   4.176   1.463  16.203  0.1005  0.4571  0.4237
11478TIP3    H155925   4.126   1.385  16.181  0.8743  0.5343 -1.8990
11478TIP3    H255926   4.262   1.429  16.229 -0.0325  0.4778  0.8946
11479TIP3   OH255927   3.217   6.752  15.659  0.5090  0.1544  0.0021
11479TIP3    H155928   3.231   6.791  15.745 -1.1018  0.6163  0.0850
11479TIP3    H255929   3.274   6.803  15.601  1.4420 -0.0155  0.7397
11480TIP3   OH255930   5.590   1.658  12.883 -0.0596 -0.7787 -0.0332
11480TIP3    H155931   5.664   1.596  12.884  0.2784 -0.3830  0.4097
11480TIP3    H255932   5.625   1.736  12.926 -0.4079 -0.1868 -0.8130
11481TIP3   OH255933   3.716   2.416  16.518 -0.4883  0.3975  0.0866
11481TIP3    H155934   3.729   2.507  16.547  0.0324  1.2399 -2.5027
11481TIP3    H255935   3.805   2.382  16.505 -0.6882 -0.0344 -0.1847
11482TIP3   OH255936   4.679   5.395  14.671 -0.0256  0.1076 -0.5664
11482TIP3    H155937   4.669   5.401  14.765 -1.0624  2.5217 -0.7665
11482TIP3    H255938   4.590   5.385  14.637  0.0095  2.1291 -1.3875
11483TIP3   OH255939   5.564   6.700  12.896 -0.1955  0.2690 -0.0044
11483TIP3    H155940   5.522   6.780  12.866  0.5110 -0.2443 -2.5922
11483TIP3    H255941   5.643   6.729  12.941 -0.2846  1.0545 -0.3471
11484TIP3   OH255942   2.279   3.308  12.656 -0.0202  0.2153 -0.7939
11484TIP3    H155943   2.259   3.343  12.569 -1.3558 -1.1470 -1.0791
11484TIP3    H255944   2.233   3.224  12.659  0.0750  0.1894  1.2025
11485TIP3   OH255945   1.160   0.880   3.320 -0.2192  0.0531 -0.2989
11485TIP3    H155946   1.155   0.952   3.257  1.8993  0.1923 -0.3861
11485TIP3    H255947   1.080   0.888   3.371 -0.8690  1.3895 -1.4426
11486TIP3   OH255948   4.808   0.530   2.208  0.1977 -0.0469  0.5781
11486TIP3    H155949   4.858   0.583   2.270 -0.4905  2.7873 -1.1177
11486TIP3    H255950   4.717   0.554   2.224  0.0645  1.9369 -2.3392
11487TIP3   OH255951   2.260   3.482  13.628 -0.0594  0.4500  0.1654
11487TIP3    H155952   2.321   3.553  13.606  0.4837  0.6763  2.2281
11487TIP3    H255953   2.312   3.419  13.676 -1.2277  0.1648  1.1108
11488TIP3   OH255954   1.147   2.554  16.609  0.1518  0.1516 -0.2962
11488TIP3    H155955   1.216   2.521  16.550 -0.7381 -1.9207 -0.2621
11488TIP3    H255956   1.072   2.571  16.551 -0.0349  0.2281 -0.0340
11489TIP3   OH255957   0.315   0.410   2.351  0.2922  0.4051 -0.3284
11489TIP3    H155958   0.364   0.388   2.431  0.9319 -0.9108 -1.0572
11489TIP3    H255959   0.238   0.354   2.355  0.5251  0.0514 -0.8353
11490TIP3   OH255960   0.399   3.116  15.883 -0.3896 -0.1500 -0.4574
11490TIP3    H155961   0.425   3.039  15.933  0.6069 -0.7874 -1.9094
11490TIP3    H255962   0.428   3.190  15.936 -2.3019 -0.6597  1.4831
11491TIP3   OH255963   3.552   0.770   5.589  0.0957  0.2660 -0.3638
11491TIP3    H155964   3.466   0.804   5.565 -0.7295 -0.2813  1.5846
11491TIP3    H255965   3.540   0.675   5.594  1.6088 -0.1472 -2.8422
11492TIP3   OH255966   2.857   2.776  11.251  0.0141  0.3222 -0.1818
11492TIP3    H155967   2.763   2.771  11.271 -0.2457 -2.4259 -1.5721
11492TIP3    H255968   2.872   2.868  11.231 -2.5101  0.7711 -0.3773
11493TIP3   OH255969   3.245   6.811   3.384 -0.2497  0.1433  0.5387
11493TIP3    H155970   3.269   6.720   3.362 -0.8196  0.1350 -0.1031
11493TIP3    H255971   3.251   6.815   3.479  1.4995 -0.0729  0.4716
11494TIP3   OH255972   5.945   1.721   5.261  0.1898  0.6026 -0.0665
11494TIP3    H155973   5.965   1.682   5.176 -1.1841 -1.5491  0.4959
11494TIP3    H255974   5.849   1.725   5.263  0.0626 -1.5572  2.1993
11495TIP3   OH255975   6.338   3.344  13.310 -0.0483 -0.1078  0.5245
11495TIP3    H155976   6.396   3.318  13.382 -0.2880 -1.7864  0.1576
11495TIP3    H255977   6.356   3.280  13.241 -0.6685  0.7718 -0.4779
11496TIP3   OH255978   4.526   5.151  13.924  0.8957  0.7705  0.0916
11496TIP3    H155979   4.480   5.222  13.879  1.9415 -0.3804 -3.0279
11496TIP3    H255980   4.459   5.084  13.938  0.6952  0.8647 -0.4039
11497TIP3   OH255981   5.511   3.134   1.643 -0.2188 -0.4531  0.2233
11497TIP3    H155982   5.484   3.123   1.734 -0.5530 -1.8994 -0.0249
11497TIP3    H255983   5.429   3.130   1.593  0.0145 -0.1967 -0.1885
11498TIP3   OH255984   6.156   5.632   1.572 -0.1023  0.3824 -0.2240
11498TIP3    H155985   6.226   5.695   1.556 -0.4062  0.5691 -0.8566
11498TIP3    H255986   6.110   5.667   1.648  0.1787  0.5329 -0.1208
11499TIP3   OH255987   0.490   5.620  16.761  0.4739  0.3418 -0.4697
11499TIP3    H155988   0.522   5.530  16.758 -0.3499  0.0439 -0.7418
11499TIP3    H255989   0.568   5.674  16.752  1.1750 -0.3087  1.3238
11500TIP3   OH255990   2.324   4.680  12.583 -0.1712 -0.0136  0.0257
11500TIP3    H155991   2.269   4.622  12.530 -1.2880  1.1284 -0.1270
11500TIP3    H255992   2.336   4.633  12.665 -2.0814  0.0058  0.3728
11501TIP3   OH255993   6.217   0.507  17.098  0.1563 -0.0326  0.2008
11501TIP3    H155994   6.166   0.527  17.020  1.0561 -3.0258 -1.3212
11501TIP3    H255995   6.160   0.451  17.151  0.2426  0.3776  0.7313
11502TIP3   OH255996   1.201   2.402  13.533 -0.2333 -0.3021  0.0371
11502TIP3    H155997   1.164   2.362  13.455 -1.5474  1.2569 -0.2018
11502TIP3    H255998   1.291   2.423  13.509  0.3742 -2.6252  0.0489
11503TIP3   OH255999   5.380   4.979   4.300  0.5766  0.2925  0.3205
11503TIP3    H156000   5.301   5.033   4.301  0.5378  0.3366 -1.6070
11503TIP3    H256001   5.348   4.889   4.307  0.3557  0.3311 -0.1193
11504TIP3   OH256002   2.044   2.240  11.256 -0.5051 -0.4137  0.2282
11504TIP3    H156003   2.014   2.323  11.294 -0.1397  0.5908 -1.5587
11504TIP3    H256004   2.074   2.264  11.168  1.0751 -2.1807  0.2274
11505TIP3   OH256005   5.147   4.356  10.550 -0.0664  0.2814  0.6856
11505TIP3    H156006   5.077   4.323  10.606 -0.1274 -0.1871  0.3412
11505TIP3    H256007   5.211   4.394  10.610  0.8601 -2.0327  1.2588
11506TIP3   OH256008   2.017   2.980  11.640 -0.2952 -0.1572  0.0480
11506TIP3    H156009   2.100   2.940  11.666  0.2019 -1.0150 -2.5256
11506TIP3    H256010   1.950   2.920  11.674  0.0312  0.9890  2.8779
11507TIP3   OH256011   5.077   4.320  12.431  0.2280  0.6502 -0.0942
11507TIP3    H156012   5.018   4.395  12.428  0.7005  1.2120  2.5864
11507TIP3    H256013   5.159   4.351  12.394  0.2923  1.3551  0.6236
11508TIP3   OH256014   1.912   1.469  17.191 -0.0297 -0.0549  0.4022
11508TIP3    H156015   1.916   1.556  17.152  0.3337  0.4336  1.4949
11508TIP3    H256016   1.892   1.411  17.118 -0.2655  0.9410 -0.3420
11509TIP3   OH256017   2.985   4.206   3.004 -0.4416  0.4513 -0.3404
11509TIP3    H156018   2.960   4.251   2.923  0.3430  0.7351 -0.4347
11509TIP3    H256019   3.042   4.268   3.050 -0.4215  0.0682  0.1588
11510TIP3   OH256020   0.038   3.674  11.424  0.9488  0.3190  0.0477
11510TIP3    H156021   0.043   3.692  11.518 -1.2678 -1.7927  0.6817
11510TIP3    H256022   0.010   3.582  11.419  1.2583  0.2971 -2.6966
11511TIP3   OH256023   3.095   6.340   4.341  0.3449  0.5518 -0.1574
11511TIP3    H156024   3.041   6.354   4.264  0.2485 -0.6958 -0.3353
11511TIP3    H256025   3.076   6.250   4.368  2.2395  0.1183 -0.1506
11512TIP3   OH256026   2.822   0.674  10.337 -0.2451 -0.3155 -0.1706
11512TIP3    H156027   2.866   0.652  10.419  0.3244 -0.8577 -0.6110
11512TIP3    H256028   2.766   0.748  10.358  0.4717  0.0350  0.5294
11513TIP3   OH256029   2.299   3.756   0.531  0.5375 -0.1950  0.0930
11513TIP3    H156030   2.245   3.747   0.609 -1.2697 -2.6738 -1.3135
11513TIP3    H256031   2.345   3.673   0.523  2.7190  0.9524 -0.1492
11514TIP3   OH256032   0.523   6.351   0.288 -0.7364  0.0112 -0.9402
11514TIP3    H156033   0.556   6.382   0.372  1.7773  0.6250 -2.0721
11514TIP3    H256034   0.463   6.420   0.259 -1.5467 -0.1549  0.2462
11515TIP3   OH256035   5.708   5.163   0.307 -0.6249 -0.3664 -0.0069
11515TIP3    H156036   5.714   5.142   0.214 -1.5195  1.6389 -0.5726
11515TIP3    H256037   5.789   5.211   0.326  0.7684 -2.9083  0.9391
11516TIP3   OH256038   2.953   4.137   6.474 -0.4260  0.7435 -0.1383
11516TIP3    H156039   2.953   4.229   6.448  0.2030  0.4629 -1.2238
11516TIP3    H256040   2.940   4.138   6.568 -0.9825  1.9178 -0.2117
11517TIP3   OH256041   1.547   3.469   4.745  0.4596 -0.1048  0.0267
11517TIP3    H156042   1.606   3.513   4.684 -0.0128 -0.2341 -0.5208
11517TIP3    H256043   1.485   3.421   4.690  1.2259 -1.8476  0.6023
11518TIP3   OH256044   6.654   1.829   3.395  0.2168  0.0835  0.0971
11518TIP3    H156045   6.726   1.766   3.402 -1.1420 -1.3826  1.2465
11518TIP3    H256046   6.600   1.814   3.472 -1.6702  0.7502 -1.0247
11519TIP3   OH256047   0.940   4.173  16.407  0.5426  0.1981  0.4582
11519TIP3    H156048   0.987   4.110  16.353  0.2933 -0.0977  0.5817
11519TIP3    H256049   0.938   4.253  16.355 -2.0340 -0.8116 -1.2065
11520TIP3   OH256050   6.563   5.800  16.420  0.2708 -0.0786 -0.4327
11520TIP3    H156051   6.492   5.814  16.483  0.2923 -1.5161 -0.0521
11520TIP3    H256052   6.538   5.852  16.344  1.3140  3.5366  1.4518
11521TIP3   OH256053   3.369   6.704   5.208 -0.1278  0.0140 -0.5230
11521TIP3    H156054   3.455   6.713   5.249 -0.3955  0.0852  0.0458
11521TIP3    H256055   3.308   6.736   5.275 -0.7370 -1.6967 -0.2000
11522TIP3   OH256056   2.824   4.330  15.803 -0.1129  0.1977  0.3364
11522TIP3    H156057   2.796   4.264  15.866  2.2773  0.0757  1.4006
11522TIP3    H256058   2.897   4.375  15.847  1.2890  0.4914 -2.0926
11523TIP3   OH256059   3.620   3.328  15.630 -0.0103  0.1660  0.5254
11523TIP3    H156060   3.581   3.416  15.635  0.2095  0.3038 -0.1109
11523TIP3    H256061   3.565   3.274  15.687 -1.8953  0.0807 -1.2795
11524TIP3   OH256062   6.819   3.620   1.137  0.7902  0.3150  0.1242
11524TIP3    H156063   6.832   3.714   1.137  0.6636  0.3427  1.2908
11524TIP3    H256064   6.824   3.595   1.045  2.8880  1.1689 -0.0366
11525TIP3   OH256065   2.648   4.259  13.135  0.7314 -0.0884 -0.2164
11525TIP3    H156066   2.676   4.196  13.069 -2.1368 -2.0015  0.1693
11525TIP3    H256067   2.615   4.205  13.207 -1.5258  1.8081  0.3117
11526TIP3   OH256068   1.212   3.632   0.845  0.2082  0.0770  0.1448
11526TIP3    H156069   1.118   3.613   0.849  0.2754 -0.1239  1.0927
11526TIP3    H256070   1.229   3.650   0.753 -0.9306  0.9768  0.0765
11527TIP3   OH256071   5.379   3.651  16.875 -0.0809 -0.8648 -0.2339
11527TIP3    H156072   5.322   3.578  16.851 -2.1928  0.5972  0.1285
11527TIP3    H256073   5.399   3.636  16.968 -1.1557 -0.5930  0.0529
11528TIP3   OH256074   3.331   2.348  13.613 -0.4160 -0.2095  0.1479
11528TIP3    H156075   3.279   2.318  13.687  0.4071  0.2311  0.9202
11528TIP3    H256076   3.347   2.269  13.561 -1.6559 -0.3868  0.0015
11529TIP3   OH256077   6.657   3.924   5.520  0.5485 -0.4586  0.1142
11529TIP3    H156078   6.605   3.953   5.445  0.3808  1.3275  0.8887
11529TIP3    H256079   6.674   4.003   5.570  2.0324 -1.3750  1.1326
11530TIP3   OH256080   1.821   3.752  13.606 -0.6000 -0.7665  0.0588
11530TIP3    H156081   1.765   3.763  13.682 -0.7090  3.4845 -0.4087
11530TIP3    H256082   1.906   3.727  13.643 -0.3230  2.3401  1.8359
11531TIP3   OH256083   2.009   3.232  13.816 -0.5077  0.1604  0.2569
11531TIP3    H156084   2.025   3.194  13.729 -3.5981 -0.0499 -0.3318
11531TIP3    H256085   1.956   3.167  13.862  1.1733  0.2115  2.4468
11532TIP3   OH256086   5.548   3.175   1.335 -0.0490 -0.2026 -0.2491
11532TIP3    H156087   5.598   3.193   1.256  0.5536 -0.3004  0.1092
11532TIP3    H256088   5.604   3.118   1.387 -0.4869 -0.2299  0.2003
11533TIP3   OH256089   2.474   0.845   2.157 -0.0084  0.1839  0.2629
11533TIP3    H156090   2.416   0.827   2.083  0.6685 -0.3738 -0.1447
11533TIP3    H256091   2.464   0.769   2.214  0.0076  0.2826  0.3987
11534TIP3   OH256092   2.972   5.950  16.006 -0.1471 -0.0639  0.3301
11534TIP3    H156093   2.991   5.877  15.947  2.6618 -0.6244  1.7617
11534TIP3    H256094   2.900   5.920  16.060  1.3319 -2.0875  1.2749
11535TIP3   OH256095   6.109   5.379  13.150 -0.1932  0.7730 -0.2254
11535TIP3    H156096   6.051   5.393  13.226  1.2605  2.3444  0.6641
11535TIP3    H256097   6.161   5.303  13.173 -1.7131 -0.5545 -0.9614
11536TIP3   OH256098   2.244   4.949   1.946 -0.0536 -0.7957  0.5322
11536TIP3    H156099   2.315   5.012   1.957  0.7564 -1.9355  2.1608
11536TIP3    H256100   2.257   4.914   1.857 -1.0632  1.8812 -0.7748
11537TIP3   OH256101   1.440   0.752   0.226 -0.7005  0.1070 -0.3898
11537TIP3    H156102   1.511   0.713   0.276 -1.2581 -0.1532  0.2246
11537TIP3    H256103   1.480   0.825   0.179 -0.0714  0.0746  0.0910
11538TIP3   OH256104   3.645   6.059   5.580 -0.2214 -0.0472  0.2173
11538TIP3    H156105   3.687   6.145   5.587  2.5252 -1.3333  0.7053
11538TIP3    H256106   3.673   6.013   5.659 -2.2325 -1.1901  0.3084
11539TIP3   OH256107   3.131   3.509   1.736  0.0285  0.3036 -0.1157
11539TIP3    H156108   3.178   3.431   1.767  0.0283  0.0472 -0.7232
11539TIP3    H256109   3.143   3.574   1.805  1.0586  0.1592 -0.1340
11540TIP3   OH256110   2.391   2.771   4.991  0.5076  0.2068 -0.3009
11540TIP3    H156111   2.363   2.680   4.980  0.7795 -0.0248  0.7452
11540TIP3    H256112   2.315   2.816   5.029  0.4780  0.3427 -0.5196
11541TIP3   OH256113   5.857   3.373   0.647  0.1176 -0.0260 -0.7360
11541TIP3    H156114   5.852   3.299   0.708  1.3014  1.5574  1.4246
11541TIP3    H256115   5.923   3.347   0.583  1.0701 -0.6006  0.4281
11542TIP3   OH256116   4.560   3.206   0.285 -0.5242 -0.0669  0.4783
11542TIP3    H156117   4.636   3.160   0.320  0.5057  0.8838 -0.4540
11542TIP3    H256118   4.557   3.182   0.193 -1.3161 -0.0261  0.4837
11543TIP3   OH256119   5.134   2.093  11.497 -0.0981  0.3646 -0.2014
11543TIP3    H156120   5.152   2.050  11.413 -0.3799  0.0141 -0.0802
11543TIP3    H256121   5.055   2.051  11.530 -0.6187  1.2482 -0.2767
11544TIP3   OH256122   3.050   0.496  11.521 -0.0339 -0.3127 -0.2044
11544TIP3    H156123   3.140   0.468  11.538  0.1931  1.4305  1.8977
11544TIP3    H256124   3.059   0.568  11.459 -0.2219 -1.6454 -1.8343
11545TIP3   OH256125   0.174   3.289   4.223 -0.4123  0.0042 -0.3049
11545TIP3    H156126   0.151   3.304   4.132 -0.3635  1.4089 -0.1086
11545TIP3    H256127   0.105   3.334   4.273  0.5546  0.8570  0.3158
11546TIP3   OH256128   1.628   0.636  17.085 -0.7996  0.2017  0.2797
11546TIP3    H156129   1.580   0.681  17.015 -2.3350  1.0540  1.7939
11546TIP3    H256130   1.589   0.549  17.087  0.1552 -0.2678 -0.7500
11547TIP3   OH256131   4.084   6.358   5.778  0.6722 -0.2190 -0.0041
11547TIP3    H156132   4.164   6.406   5.755 -0.4322  1.7221  0.0116
11547TIP3    H256133   4.110   6.302   5.852  2.0524  0.2300 -0.1241
11548TIP3   OH256134   6.710   2.950   5.587  0.1275 -0.0061  0.1916
11548TIP3    H156135   6.752   3.031   5.615  1.3210 -0.6620  0.3907
11548TIP3    H256136   6.685   2.906   5.668 -0.3856  0.0972  0.0903
11549TIP3   OH256137   0.128   3.834   2.908  1.4114  0.4762  0.1007
11549TIP3    H156138   0.189   3.908   2.905  0.8103  0.9508 -0.7026
11549TIP3    H256139   0.046   3.868   2.872  0.9675 -0.4337  0.2154
11550TIP3   OH256140   0.172   5.368   1.506  0.3368 -0.0226 -0.3403
11550TIP3    H156141   0.178   5.281   1.547  0.8053 -1.1914 -2.7316
11550TIP3    H256142   0.262   5.396   1.494  0.2461  1.9682  2.4905
11551TIP3   OH256143   5.791   6.642   4.499 -0.0358  0.5609  0.4911
11551TIP3    H156144   5.750   6.691   4.569  0.5964 -1.4958  2.4199
11551TIP3    H256145   5.722   6.630   4.433 -1.3608  0.5259  1.8455
11552TIP3   OH256146   3.145   3.620   4.154 -0.2008 -0.2502  0.1914
11552TIP3    H156147   3.125   3.609   4.247  0.2477 -0.5810  0.2524
11552TIP3    H256148   3.200   3.699   4.151 -1.2568  0.4975  0.0547
11553TIP3   OH256149   6.114   6.759   2.440  0.2930  0.4289 -0.7872
11553TIP3    H156150   6.064   6.720   2.511  0.6431  1.0846 -0.1603
11553TIP3    H256151   6.182   6.810   2.485 -0.7967  2.6469 -1.5205
11554TIP3   OH256152   0.294   4.761   1.489  0.2679  0.1685  0.3127
11554TIP3    H156153   0.266   4.677   1.525 -0.2646  0.0116 -0.4237
11554TIP3    H256154   0.364   4.791   1.547  1.1048 -1.2204  0.0701
11555TIP3   OH256155   1.436   6.359  14.244  0.1706 -0.4530  0.0196
11555TIP3    H156156   1.480   6.443  14.228  1.2813 -1.2130 -1.0633
11555TIP3    H256157   1.503   6.293  14.225 -0.9603 -1.6110 -0.0471
11556TIP3   OH256158   2.052   0.008  13.904 -0.1273  0.0306 -0.1949
11556TIP3    H156159   2.113  -0.050  13.858  1.5988  0.2290  1.6948
11556TIP3    H256160   2.068   0.094  13.867 -0.8501 -0.2385 -1.1955
11557TIP3   OH256161   2.982   3.878  15.068 -0.1324  0.5233 -0.0909
11557TIP3    H156162   2.982   3.946  15.000  1.1461  1.2034  0.5519
11557TIP3    H256163   3.049   3.815  15.040  0.4934  0.8729  0.5710
11558TIP3   OH256164   5.384   2.343  10.595 -0.0295  0.2279  0.8590
11558TIP3    H156165   5.375   2.437  10.610  1.6899  0.2467  2.0539
11558TIP3    H256166   5.475   2.324  10.615  0.2601 -1.3449 -1.5192
11559TIP3   OH256167   0.896   2.673  15.130  0.1859 -0.0996  0.8381
11559TIP3    H156168   0.887   2.767  15.115  0.4638  0.0069  1.2923
11559TIP3    H256169   0.875   2.633  15.046 -2.1122  0.2300  1.1872
11560TIP3   OH256170   3.685   2.306   3.088  0.2628  0.2826  0.2115
11560TIP3    H156171   3.741   2.379   3.060  1.1022 -0.9410 -1.4753
11560TIP3    H256172   3.626   2.291   3.014  1.2245 -1.7817 -0.2296
11561TIP3   OH256173   0.062   0.734   5.127 -0.0110 -0.1949 -0.3866
11561TIP3    H156174   0.137   0.675   5.122  1.2451  1.2817  0.3743
11561TIP3    H256175   0.089   0.813   5.081 -0.5070  0.9405  1.1764
11562TIP3   OH256176   2.640   2.853  14.913 -0.1736 -0.2719 -0.1829
11562TIP3    H156177   2.554   2.892  14.928 -0.0002  0.8423 -1.8001
11562TIP3    H256178   2.624   2.760  14.902 -1.1416 -0.1100 -0.1735
11563TIP3   OH256179   6.423   5.703   4.708  0.0316 -0.2127 -0.5177
11563TIP3    H156180   6.477   5.781   4.697  0.2886 -0.3217 -0.0470
11563TIP3    H256181   6.435   5.654   4.627  0.6785 -0.2575 -0.4006
11564TIP3   OH256182   4.774   0.815   1.553  0.1104  0.8543 -0.0027
11564TIP3    H156183   4.834   0.801   1.480 -0.5746  1.1503 -0.6395
11564TIP3    H256184   4.798   0.749   1.618  0.4763  0.3366 -0.6554
11565TIP3   OH256185   0.886   6.243   1.364  0.0130 -0.4228  0.1861
11565TIP3    H156186   0.919   6.214   1.449 -1.3353 -0.1794  0.8265
11565TIP3    H256187   0.916   6.177   1.302  1.4609 -0.3277  0.7460
11566TIP3   OH256188   1.941   5.863  17.028  0.1623  0.0940 -0.3269
11566TIP3    H156189   1.996   5.785  17.040 -0.5610 -0.3727  0.0058
11566TIP3    H256190   1.981   5.928  17.087 -0.5605 -0.7378  1.1396
11567TIP3   OH256191   5.350   3.041  13.343  0.3877 -0.5855  0.3408
11567TIP3    H156192   5.317   3.070  13.258  1.7660 -0.1782 -0.0797
11567TIP3    H256193   5.403   2.964  13.322  0.5654 -0.6049  0.8575
11568TIP3   OH256194   3.757   5.868  14.325 -0.8378  0.2310  0.1982
11568TIP3    H156195   3.677   5.906  14.361 -0.9338 -0.6780  0.9811
11568TIP3    H256196   3.773   5.791  14.379  0.8599  0.6803  0.3792
11569TIP3   OH256197   0.449   3.550   4.802  0.4407 -0.0051  0.5085
11569TIP3    H156198   0.523   3.573   4.858 -0.4528  2.0418  0.9517
11569TIP3    H256199   0.488   3.526   4.718  1.7826 -2.6981  1.7713
11570TIP3   OH256200   6.446   2.665   4.674  0.2412  0.0698 -0.5645
11570TIP3    H156201   6.471   2.587   4.625  1.8102  0.5593 -0.5923
11570TIP3    H256202   6.517   2.678   4.737  0.7375  2.2285 -1.4815
11571TIP3   OH256203   3.089   2.410  16.291  0.1431 -0.2078  0.2862
11571TIP3    H156204   3.109   2.352  16.217  1.3004 -0.5538  0.8394
11571TIP3    H256205   3.005   2.378  16.324 -0.3623 -0.0776 -0.8357
11572TIP3   OH256206   5.307   5.327  12.269  0.0387  0.2199 -0.7812
11572TIP3    H156207   5.353   5.249  12.301  1.3241  0.6146 -1.5546
11572TIP3    H256208   5.376   5.393  12.261 -1.1000  1.6331  0.3682
11573TIP3   OH256209   4.218   4.099  12.557 -0.2657  0.0476  0.1500
11573TIP3    H156210   4.241   4.026  12.613 -0.5009 -0.4669 -0.4169
11573TIP3    H256211   4.253   4.076  12.471  0.1920  0.8758  0.0956
11574TIP3   OH256212   4.698   4.339  12.112 -0.2284 -0.3580 -0.0493
11574TIP3    H156213   4.690   4.273  12.181  1.2191 -0.7600 -0.2443
11574TIP3    H256214   4.771   4.309  12.058 -1.2819  0.0139 -1.7194
11575TIP3   OH256215   2.609   1.984   2.805 -0.1523 -0.3178 -0.4951
11575TIP3    H156216   2.681   2.005   2.745  1.3611 -1.3254  0.8928
11575TIP3    H256217   2.533   1.972   2.748  0.3154  2.4282 -1.8730
11576TIP3   OH256218   5.333   0.901   3.386 -0.0922 -1.0232 -0.7977
11576TIP3    H156219   5.357   0.992   3.368 -0.0490 -0.9156 -0.2201
11576TIP3    H256220   5.410   0.863   3.428 -1.2334 -0.3609  2.1275
11577TIP3   OH256221   6.250   6.659   3.145 -0.1561  0.3132 -0.7436
11577TIP3    H156222   6.182   6.630   3.205  0.0834 -2.5730 -1.7176
11577TIP3    H256223   6.328   6.611   3.172  0.9226  1.7976 -1.0916
11578TIP3   OH256224   0.628   1.537   3.069 -0.0144 -0.2544 -0.3262
11578TIP3    H156225   0.645   1.623   3.109 -1.5616  0.4876 -1.1631
11578TIP3    H256226   0.545   1.509   3.107  0.3811 -1.3212 -0.2132
11579TIP3   OH256227   3.769   3.772   2.303 -0.0845  0.2300 -0.2112
11579TIP3    H156228   3.803   3.698   2.354 -1.1602  0.4250  0.8151
11579TIP3    H256229   3.817   3.767   2.220  2.4798  0.5110  1.1575
11580TIP3   OH256230   6.152   1.105  13.741  0.3862 -0.4328 -0.5651
11580TIP3    H156231   6.122   1.073  13.827  0.6434  0.5492 -0.0937
11580TIP3    H256232   6.072   1.134  13.698  0.3089 -0.5295 -0.4900
11581TIP3   OH256233   0.776   2.376   1.671  0.0861  0.4394  0.1005
11581TIP3    H156234   0.864   2.352   1.644 -0.4375 -1.2876 -0.1975
11581TIP3    H256235   0.789   2.445   1.736  1.6719 -0.0629  0.3610
11582TIP3   OH256236   0.538   2.881   1.392 -0.1946  0.0715 -0.1186
11582TIP3    H156237   0.597   2.948   1.356  0.1334  0.1105  0.4806
11582TIP3    H256238   0.507   2.918   1.475 -1.4817  0.2733 -0.6643
11583TIP3   OH256239   0.111   5.861  13.756  0.1297  0.3276 -0.1696
11583TIP3    H156240   0.111   5.767  13.773  2.6848  0.3277  0.1233
11583TIP3    H256241   0.095   5.901  13.842  1.0878  0.1819  0.0771
11584TIP3   OH256242   4.255   2.821   2.003  0.2666  0.0982 -0.0553
11584TIP3    H156243   4.255   2.900   1.949  4.2585  0.8639  0.7192
11584TIP3    H256244   4.287   2.851   2.088 -2.6439 -1.6407  1.8138
11585TIP3   OH256245   6.714   5.417  15.423  0.6752 -0.2126  0.0901
11585TIP3    H156246   6.791   5.470  15.441  1.3288 -0.7504 -1.0297
11585TIP3    H256247   6.707   5.416  15.327 -2.3828  2.1823  0.1281
11586TIP3   OH256248   0.751   4.583  14.353 -0.4434  0.1337 -0.2558
11586TIP3    H156249   0.689   4.592  14.281 -1.0464  0.6905  0.3110
11586TIP3    H256250   0.727   4.501  14.396 -0.2111 -0.0991 -0.5755
11587TIP3   OH256251   0.765   0.732   2.025 -0.4630  0.2013  0.1825
11587TIP3    H156252   0.708   0.716   2.101 -0.9684 -1.0461 -0.4272
11587TIP3    H256253   0.728   0.809   1.983 -1.0438  0.0647  0.4285
11588TIP3   OH256254   3.759   2.914  10.525 -0.0227  0.6677 -0.0357
11588TIP3    H156255   3.848   2.902  10.493 -0.5973  0.3158 -1.5824
11588TIP3    H256256   3.741   3.007  10.514 -0.0178  0.6502 -0.1915
11589TIP3   OH256257   0.894   4.328   3.613 -0.1841  0.0291 -0.2582
11589TIP3    H156258   0.833   4.258   3.592  0.0690 -0.2232 -0.1635
11589TIP3    H256259   0.863   4.403   3.563  0.2293 -0.4756 -1.3073
11590TIP3   OH256260   2.806   4.945  10.875  0.0350  0.1219 -0.3603
11590TIP3    H156261   2.730   4.980  10.828  0.6672  0.3715 -1.2189
11590TIP3    H256262   2.792   4.851  10.876 -0.8376  0.2317  0.4922
11591TIP3   OH256263   6.343   0.039   2.127 -0.1519 -0.0388 -0.1461
11591TIP3    H156264   6.376  -0.045   2.158  0.5385  0.5308  0.7260
11591TIP3    H256265   6.395   0.104   2.175  0.0194  0.8872 -1.5417
11592TIP3   OH256266   4.829   1.313   0.867  0.0123 -0.5123  0.4991
11592TIP3    H156267   4.758   1.337   0.807 -2.0979 -1.2696  2.5459
11592TIP3    H256268   4.870   1.396   0.891  0.3796 -0.1315 -1.2936
11593TIP3   OH256269   3.460   4.363  11.210  0.1836 -0.7960  0.2513
11593TIP3    H156270   3.388   4.351  11.148 -0.0494  2.3120 -0.2263
11593TIP3    H256271   3.527   4.410  11.161  0.1473  1.4394  2.1490
11594TIP3   OH256272   6.734   4.364  15.779 -0.2472 -0.4522  0.4218
11594TIP3    H156273   6.675   4.440  15.782  0.5021  0.2067 -0.6358
11594TIP3    H256274   6.813   4.397  15.736 -0.0561 -1.9307 -0.4451
11595TIP3   OH256275   1.322   5.059   5.745  0.4473  0.2036 -0.6476
11595TIP3    H156276   1.340   5.144   5.785 -0.2032  0.4853 -0.9449
11595TIP3    H256277   1.365   5.063   5.660  0.1509  0.3599 -0.7925
11596TIP3   OH256278   5.226   0.484   6.272  0.4444  0.1568  0.2145
11596TIP3    H156279   5.237   0.395   6.305  2.2712  0.8061  1.5102
11596TIP3    H256280   5.135   0.486   6.241 -0.5745 -1.3690  2.7176
11597TIP3   OH256281   2.263   5.994  16.845 -0.5730  0.1851 -0.4084
11597TIP3    H156282   2.248   5.901  16.831 -1.4047  0.3855 -0.9029
11597TIP3    H256283   2.310   6.023  16.766  0.1259  0.0876 -0.0326
11598TIP3   OH256284   3.821   0.423  16.292 -0.1011 -0.3107  0.7950
11598TIP3    H156285   3.829   0.345  16.237  0.5918 -0.6838  1.3964
11598TIP3    H256286   3.727   0.439  16.298 -0.1620  0.4053 -1.3782
11599TIP3   OH256287   6.575   5.804   2.462  0.0732  0.2054  0.1127
11599TIP3    H156288   6.545   5.845   2.543  0.7051 -0.1160  0.5218
11599TIP3    H256289   6.566   5.872   2.395 -1.6167  0.0897  0.1870
11600TIP3   OH256290   5.594   5.349  15.804  0.0785  0.1637  0.2575
11600TIP3    H156291   5.686   5.324  15.814  0.3137  0.1295 -1.6247
11600TIP3    H256292   5.597   5.442  15.781 -0.0595 -0.4652 -2.8481
11601TIP3   OH256293   5.648   3.342   2.032  0.4704  0.3563  0.0049
11601TIP3    H156294   5.614   3.334   2.121 -2.2167  0.0633 -0.9559
11601TIP3    H256295   5.708   3.269   2.022  0.1796 -0.0844  1.3128
11602TIP3   OH256296   0.843   1.223  16.593  0.6929  0.5938 -0.0813
11602TIP3    H156297   0.819   1.264  16.510  3.0449 -0.1988 -1.2509
11602TIP3    H256298   0.796   1.273  16.660 -1.4254  1.1315 -1.8708
11603TIP3   OH256299   5.882   6.570  14.952  0.3101 -0.3881  0.9218
11603TIP3    H156300   5.856   6.622  14.876 -0.9073 -1.9131  0.2465
11603TIP3    H256301   5.855   6.481  14.930  1.3367 -1.1247  2.5100
11604TIP3   OH256302   1.666   0.821  16.771  0.4879  0.3433  0.2253
11604TIP3    H156303   1.637   0.736  16.738  1.7651  0.2343 -0.6977
11604TIP3    H256304   1.662   0.879  16.695  0.3969  0.9133  0.6555
11605TIP3   OH256305   5.326   2.998  12.128 -0.0223  0.5907 -0.0594
11605TIP3    H156306   5.359   3.059  12.062 -1.3916  0.5299 -0.8316
11605TIP3    H256307   5.319   2.914  12.083 -1.1843  0.5991  0.0871
11606TIP3   OH256308   4.557   4.649  14.535  0.2287  0.0553  0.4195
11606TIP3    H156309   4.598   4.723  14.580  1.4188 -0.6395  0.5133
11606TIP3    H256310   4.525   4.593  14.605 -1.1767  0.7314  0.3449
11607TIP3   OH256311   3.724   2.359  14.690 -0.2603  0.0890  0.0909
11607TIP3    H156312   3.760   2.270  14.698  1.2255  0.6372 -0.1932
11607TIP3    H256313   3.773   2.398  14.617 -1.3503  0.9299 -0.2040
11608TIP3   OH256314   2.218   1.791   6.378  0.3123  0.5483  0.2510
11608TIP3    H156315   2.295   1.754   6.421 -0.0314 -0.3668  0.1082
11608TIP3    H256316   2.239   1.883   6.364  0.3533  0.9566  2.6237
11609TIP3   OH256317   0.068   5.332   6.147 -0.2572  0.1995  0.2009
11609TIP3    H156318  -0.002   5.274   6.179  0.3819 -0.3018  0.7291
11609TIP3    H256319   0.147   5.277   6.149  0.1495  0.7541 -0.3983
11610TIP3   OH256320   6.756   4.304  11.436 -0.1457 -0.7123  0.4921
11610TIP3    H156321   6.707   4.231  11.397 -0.7596  1.4983 -3.3802
11610TIP3    H256322   6.695   4.343  11.499 -1.3269 -1.2454 -0.2750
11611TIP3   OH256323   2.371   3.000  17.169 -0.4579  0.2088 -0.3085
11611TIP3    H156324   2.367   2.945  17.246  0.7867  0.0462 -0.3402
11611TIP3    H256325   2.302   2.967  17.112 -1.1835  0.1343  0.5905
11612TIP3   OH256326   3.722   0.628  15.240  0.2861 -0.3448 -0.1485
11612TIP3    H156327   3.779   0.565  15.195  2.8433 -0.3492  2.7809
11612TIP3    H256328   3.740   0.711  15.197  1.0917 -0.6892 -0.5026
11613TIP3   OH256329   4.826   4.962   0.443  0.4563 -0.2193  0.5566
11613TIP3    H156330   4.837   5.037   0.384  1.0847  0.1139  1.0776
11613TIP3    H256331   4.868   4.990   0.524  0.3899 -1.0155  0.8713
11614TIP3   OH256332   1.062   5.518  16.615 -0.0332 -0.1344 -0.1797
11614TIP3    H156333   1.139   5.491  16.564  0.3282  1.6670 -0.6342
11614TIP3    H256334   0.997   5.450  16.596  1.2711 -1.4673 -0.1309
11615TIP3   OH256335   3.817   2.407  15.533  0.2909  0.0518 -0.4955
11615TIP3    H156336   3.875   2.331  15.537 -0.8514 -1.0108 -2.4702
11615TIP3    H256337   3.729   2.369  15.535 -0.3942  1.5621  1.5636
11616TIP3   OH256338   0.445   0.235  12.616  0.7916  0.0690  0.0259
11616TIP3    H156339   0.458   0.141  12.604  0.4315  0.3172 -3.2413
11616TIP3    H256340   0.352   0.244  12.635  0.8914 -0.2309  0.6841
11617TIP3   OH256341   5.698   6.602   3.965  0.1298  0.4710  0.1949
11617TIP3    H156342   5.626   6.650   4.005  0.5152 -0.3769  2.0117
11617TIP3    H256343   5.774   6.623   4.020  0.5116 -1.3479  0.4284
11618TIP3   OH256344   0.666   3.092  11.625 -0.1155  0.2246  0.3281
11618TIP3    H156345   0.750   3.073  11.667 -0.5993  3.4897  3.2511
11618TIP3    H256346   0.609   3.019  11.651  0.7254  0.1204  2.0141
11619TIP3   OH256347   6.178   0.848   3.214 -0.0921  0.4959  0.0833
11619TIP3    H156348   6.194   0.912   3.283  0.9823  1.6481 -1.1719
11619TIP3    H256349   6.095   0.875   3.175  0.9098  1.8959 -1.1887
11620TIP3   OH256350   5.432   1.324  12.340  0.5318  0.0521  0.1737
11620TIP3    H156351   5.443   1.390  12.272  1.2508  0.2924  0.5130
11620TIP3    H256352   5.397   1.372  12.415  0.9717  0.0411  0.3925
11621TIP3   OH256353   1.843   3.037  15.725 -0.2473 -0.0006  0.0419
11621TIP3    H156354   1.885   2.965  15.772 -0.9936 -0.1121  0.5598
11621TIP3    H256355   1.852   3.013  15.633  3.1094  1.2401 -0.0836
11622TIP3   OH256356   4.885   5.681   2.930  0.1799  0.4229 -0.4131
11622TIP3    H156357   4.973   5.712   2.911  0.8811  0.1769  2.0657
11622TIP3    H256358   4.837   5.759   2.956 -0.1684  0.4639 -1.1625
11623TIP3   OH256359   3.948   4.919  17.081  0.6214  0.0323  0.1457
11623TIP3    H156360   3.960   4.843  17.139 -0.1261  0.3179  0.6873
11623TIP3    H256361   3.978   4.888  16.996  1.1231 -0.6054  0.5397
11624TIP3   OH256362   2.055   5.685   5.535  0.4617 -0.2457  0.1710
11624TIP3    H156363   2.094   5.758   5.487  1.4671 -0.4730  0.6054
11624TIP3    H256364   2.053   5.715   5.626  1.1112 -0.8298  0.3928
11625TIP3   OH256365   5.762   2.463  14.161  0.3450 -0.4155  0.1334
11625TIP3    H156366   5.802   2.505  14.237  0.4316 -0.7262  0.2616
11625TIP3    H256367   5.762   2.530  14.093  0.8968 -0.3541  0.1970
11626TIP3   OH256368   5.462   3.768   1.439  0.9963 -0.6118  0.0092
11626TIP3    H156369   5.548   3.810   1.449  0.6057 -0.1914  2.2629
11626TIP3    H256370   5.452   3.717   1.520 -0.8924 -0.6085 -0.1989
11627TIP3   OH256371   4.610   0.279  15.842 -0.2605 -0.0328 -0.1460
11627TIP3    H156372   4.685   0.227  15.870 -0.8605 -0.9379 -0.1972
11627TIP3    H256373   4.568   0.227  15.774 -2.1590 -0.5727  1.3481
11628TIP3   OH256374   0.717   0.422  11.471  0.2845 -0.4963 -0.8171
11628TIP3    H156375   0.740   0.349  11.413 -0.1179 -2.2798  1.1225
11628TIP3    H256376   0.632   0.398  11.507  1.5932 -0.7938  2.3832
11629TIP3   OH256377   5.721   6.005   2.086 -0.3962  0.2665 -0.4079
11629TIP3    H156378   5.723   6.099   2.102 -1.2353  0.2341 -0.0554
11629TIP3    H256379   5.813   5.981   2.075 -0.0888  0.9745  0.4374
11630TIP3   OH256380   0.613   4.544   1.058  0.3014  0.3821 -0.0569
11630TIP3    H156381   0.555   4.561   1.132  0.9083 -0.7697  0.7166
11630TIP3    H256382   0.554   4.542   0.982 -0.6024 -0.2051  0.6302
11631TIP3   OH256383   1.713   3.754  13.364  0.2944 -0.0105 -0.1094
11631TIP3    H156384   1.632   3.805  13.367 -0.7027 -1.5783  1.1250
11631TIP3    H256385   1.745   3.755  13.453  1.3845  0.1613 -0.4930
11632TIP3   OH256386   6.578   5.479  12.793 -0.2462 -0.0275 -0.2955
11632TIP3    H156387   6.539   5.452  12.710  0.7643 -0.6622 -0.5830
11632TIP3    H256388   6.672   5.478  12.776 -0.0490  0.3762  0.7080
11633TIP3   OH256389   2.819   0.795   2.186  0.3003  0.3206  0.1958
11633TIP3    H156390   2.764   0.805   2.108  1.1750  0.8623 -0.3689
11633TIP3    H256391   2.838   0.701   2.190  0.8599  0.3823 -0.6854
11634TIP3   OH256392   5.007   5.878  13.302  0.3536 -0.1068 -0.2137
11634TIP3    H156393   4.981   5.786  13.293  1.2540 -0.5168  1.0158
11634TIP3    H256394   5.085   5.886  13.247 -0.0518  0.0815 -0.7689
11635TIP3   OH256395   3.104   6.805  10.828 -0.0694 -0.0535 -0.0756
11635TIP3    H156396   3.184   6.788  10.779 -0.6934  0.6025 -1.3665
11635TIP3    H256397   3.087   6.723  10.874  1.7240  0.0234  0.8165
11636TIP3   OH256398   4.338   1.296   0.274 -0.1518 -0.5582  0.0235
11636TIP3    H156399   4.403   1.364   0.261 -0.7830  0.1951  0.6738
11636TIP3    H256400   4.378   1.216   0.238 -0.3692  0.5994 -3.1294
11637TIP3   OH256401   2.436   6.591   0.382  0.5189 -0.0976  0.5850
11637TIP3    H156402   2.453   6.682   0.410 -2.5364  0.4965  0.8475
11637TIP3    H256403   2.372   6.600   0.311  0.5002 -2.0430  0.3254
11638TIP3   OH256404   4.067   5.465  12.296  0.2408  0.0224  0.2383
11638TIP3    H156405   3.977   5.495  12.285 -0.2904 -1.5538  0.0074
11638TIP3    H256406   4.116   5.508  12.226 -1.0265 -1.6956 -1.8248
11639TIP3   OH256407   2.807   0.616   0.326  0.2925 -0.1695 -0.0371
11639TIP3    H156408   2.898   0.586   0.325  0.4636  0.2373 -2.0989
11639TIP3    H256409   2.783   0.620   0.233 -2.1448 -1.1983  0.4843
11640TIP3   OH256410   3.939   6.701  13.966  0.0150 -1.1018 -0.1106
11640TIP3    H156411   3.943   6.640  13.892  1.0237 -1.3922  0.1717
11640TIP3    H256412   3.987   6.656  14.037 -2.4976 -1.6848  1.3538
11641TIP3   OH256413   0.627   1.546  15.692  0.6125 -0.2703  0.0016
11641TIP3    H156414   0.647   1.454  15.674 -0.1895 -0.4991  0.2326
11641TIP3    H256415   0.706   1.581  15.733  2.0690 -0.0680 -2.7040
11642TIP3   OH256416   2.040   6.191   1.773  0.1606 -0.7623 -0.5302
11642TIP3    H156417   1.983   6.216   1.700 -0.7741 -0.9300  0.1207
11642TIP3    H256418   2.073   6.104   1.749 -0.5970 -1.0696 -0.5175
11643TIP3   OH256419   3.507   4.990  15.908 -0.4253 -0.1584 -0.1746
11643TIP3    H156420   3.568   5.041  15.961 -1.2831  2.1491 -1.2288
11643TIP3    H256421   3.431   4.976  15.965 -1.3615  2.3393 -0.6354
11644TIP3   OH256422   2.808   0.011   0.856  0.0627  0.2162  0.3747
11644TIP3    H156423   2.800   0.100   0.890 -2.3054  0.5234 -0.7949
11644TIP3    H256424   2.841  -0.040   0.930  0.7427  1.9045  1.2862
11645TIP3   OH256425   4.208   5.916   3.272  0.3456 -0.0341  0.0213
11645TIP3    H156426   4.177   5.826   3.287  0.4482 -0.0242  0.2875
11645TIP3    H256427   4.298   5.916   3.304  0.2605  0.2363  0.2656
11646TIP3   OH256428   0.324   2.236   0.729  0.3149 -0.0307  0.2849
11646TIP3    H156429   0.309   2.155   0.679 -1.2066  0.1746  0.3782
11646TIP3    H256430   0.387   2.285   0.676  0.1525 -0.6381 -0.4883
11647TIP3   OH256431   4.107   1.255   4.467  0.2112 -0.0187  0.0558
11647TIP3    H156432   4.173   1.194   4.435 -0.9693 -1.1250 -0.3825
11647TIP3    H256433   4.114   1.252   4.562  0.9924  0.1275  0.0067
11648TIP3   OH256434   3.223   6.250  11.114 -0.0304  0.3806 -0.6466
11648TIP3    H156435   3.172   6.195  11.054 -1.0338  1.4007 -0.7582
11648TIP3    H256436   3.160   6.313  11.149  1.2834  2.2616 -1.4701
11649TIP3   OH256437   1.346   5.362   1.041 -0.3365 -0.0267  0.3088
11649TIP3    H156438   1.294   5.428   1.087 -1.5711 -1.2402  0.7285
11649TIP3    H256439   1.437   5.388   1.056 -0.7853  1.4241  0.6705
11650TIP3   OH256440   5.684   4.715   0.309 -0.0307 -0.7541  0.4410
11650TIP3    H156441   5.708   4.635   0.356  2.8985 -0.8681 -1.0248
11650TIP3    H256442   5.645   4.683   0.227 -0.0362 -0.6309  0.3968
11651TIP3   OH256443   4.871   1.841   4.846  0.2058 -0.1470  0.2332
11651TIP3    H156444   4.868   1.746   4.838  1.5379 -0.1529 -0.7038
11651TIP3    H256445   4.792   1.872   4.802 -0.2635 -0.8164  0.5986
11652TIP3   OH256446   3.956   4.559  11.286 -0.4496  0.1483  0.1541
11652TIP3    H156447   3.934   4.491  11.349  2.0348 -0.5389  0.3538
11652TIP3    H256448   4.026   4.521  11.232  0.0081  2.0219 -0.6612
11653TIP3   OH256449   1.572   2.570   3.452 -0.1885  0.6080  0.0170
11653TIP3    H156450   1.628   2.646   3.434 -0.9551  1.1826 -0.0023
11653TIP3    H256451   1.598   2.505   3.387  0.3979  0.8890 -0.0388
11654TIP3   OH256452   4.672   2.213   5.207 -0.4849 -0.0708 -0.0033
11654TIP3    H156453   4.747   2.255   5.248 -0.4072 -0.9738  0.8044
11654TIP3    H256454   4.699   2.122   5.194 -0.7952  0.0002 -1.3523
11655TIP3   OH256455   0.849   4.031  13.050 -0.2009 -0.1901  0.2191
11655TIP3    H156456   0.920   4.032  13.114 -0.5234  1.6952  0.5870
11655TIP3    H256457   0.769   4.037  13.102 -0.6749 -1.9034 -0.2151
11656TIP3   OH256458   0.860   6.769  13.114 -0.2465  0.1846 -0.5561
11656TIP3    H156459   0.847   6.864  13.103  1.7353  0.5966  0.2424
11656TIP3    H256460   0.873   6.759  13.209  2.6610 -0.3984 -0.9378
11657TIP3   OH256461   3.592   0.266   0.188 -0.3080  0.0118 -0.0555
11657TIP3    H156462   3.503   0.245   0.215  0.2338 -2.2375  0.2078
11657TIP3    H256463   3.586   0.280   0.093 -1.0281  0.5008  0.0578
11658TIP3   OH256464   0.381   4.335   4.263  0.0560 -0.3603 -0.0452
11658TIP3    H156465   0.456   4.394   4.252 -0.2638  0.0009 -0.3424
11658TIP3    H256466   0.325   4.378   4.327 -0.7728  0.2915 -1.1554
11659TIP3   OH256467   2.756   3.015  15.542 -0.2041 -0.6762  0.3339
11659TIP3    H156468   2.673   2.969  15.557 -0.4954 -0.1624  0.3187
11659TIP3    H256469   2.731   3.094  15.493  0.5048 -1.4695 -1.4133
11660TIP3   OH256470   0.161   2.772  12.172  0.1744 -0.0732 -0.1837
11660TIP3    H156471   0.210   2.694  12.199  0.9949 -0.3824 -2.2921
11660TIP3    H256472   0.209   2.845  12.211  0.8406 -0.5198 -0.1334
11661TIP3   OH256473   6.544   1.750   1.905 -0.5608  0.1638  0.1621
11661TIP3    H156474   6.503   1.837   1.902 -2.0068 -0.4007  1.9123
11661TIP3    H256475   6.491   1.697   1.846  0.5676  0.5170 -1.2228
11662TIP3   OH256476   3.212   5.886  16.522  0.1217  0.0796 -0.2360
11662TIP3    H156477   3.161   5.888  16.441  0.5698 -0.4115 -0.5374
11662TIP3    H256478   3.296   5.925  16.499  1.0866 -2.0479 -0.6274
11663TIP3   OH256479   1.177   5.736   3.273  0.0157 -0.5318  0.2506
11663TIP3    H156480   1.127   5.746   3.192  0.6424 -0.2867 -0.1137
11663TIP3    H256481   1.186   5.641   3.283  0.5241 -0.5591 -0.3508
11664TIP3   OH256482   3.719   4.432  12.599 -0.0385 -0.2038  0.3440
11664TIP3    H156483   3.813   4.443  12.591 -0.1659  1.2016  0.6409
11664TIP3    H256484   3.704   4.407  12.690  0.1793 -2.4034 -0.1509
11665TIP3   OH256485   4.387   6.014  14.244 -0.6466 -0.3328  0.1779
11665TIP3    H156486   4.479   5.994  14.230 -1.0395 -1.7579 -0.5369
11665TIP3    H256487   4.372   5.994  14.336 -0.2014  0.1188  0.3533
11666TIP3   OH256488   1.350   2.435   5.918 -0.3316  0.2270  0.4529
11666TIP3    H156489   1.416   2.499   5.945 -1.4067  2.0419 -1.0538
11666TIP3    H256490   1.388   2.350   5.943  2.3477  1.2273  0.1233
11667TIP3   OH256491   4.959   2.018  16.676  0.2179  0.6783  0.0565
11667TIP3    H156492   5.004   2.017  16.592  0.9396 -0.9872  0.4350
11667TIP3    H256493   5.026   1.992  16.739 -1.1094 -1.3535  0.7080
11668TIP3   OH256494   4.988   3.787  14.203 -0.1825  0.1446 -0.2907
11668TIP3    H156495   5.021   3.876  14.190  0.8440 -0.2034 -0.2388
11668TIP3    H256496   4.987   3.776  14.298  1.2286 -0.4105 -0.3103
11669TIP3   OH256497   3.937   0.833  14.451  0.1542 -0.3835 -0.1028
11669TIP3    H156498   3.961   0.915  14.495  1.3500 -0.0802 -1.2518
11669TIP3    H256499   3.934   0.856  14.358  0.8462 -1.7227 -0.4784
11670TIP3   OH256500   5.154   0.304   2.063 -0.1677 -0.3601  0.3678
11670TIP3    H156501   5.110   0.292   2.148 -0.4208  0.3323  0.3375
11670TIP3    H256502   5.086   0.338   2.005  0.3524  0.5528  0.2738
11671TIP3   OH256503   3.247   4.645  14.791 -0.0870 -0.0636  0.0755
11671TIP3    H156504   3.182   4.708  14.821 -1.6645 -2.1352  1.2925
11671TIP3    H256505   3.205   4.599  14.718  1.0327  0.2296 -0.7910
11672TIP3   OH256506   4.375   2.474  17.121 -0.0914 -0.2844 -0.3165
11672TIP3    H156507   4.457   2.511  17.087  0.1511 -1.2488 -0.8328
11672TIP3    H256508   4.376   2.383  17.091  0.3281 -1.3316  2.6159
11673TIP3   OH256509   3.888   0.353  10.658  0.3037 -0.4415  0.1083
11673TIP3    H156510   3.796   0.337  10.638  0.6688 -0.4000 -1.8194
11673TIP3    H256511   3.927   0.380  10.574  1.4098  2.7185  1.4627
11674TIP3   OH256512   6.590   3.812  14.126  0.0552 -0.0732 -0.5613
11674TIP3    H156513   6.552   3.881  14.179  0.2849 -0.6254  0.3521
11674TIP3    H256514   6.680   3.841  14.111  1.2739 -1.6464  2.7145
11675TIP3   OH256515   6.327   3.893   4.024 -0.0890  0.8625  0.0763
11675TIP3    H156516   6.270   3.968   4.041 -0.3732  0.7612 -0.4075
11675TIP3    H256517   6.267   3.820   4.008  0.1812  0.6522  0.0179
11676TIP3   OH256518   1.227   0.155   4.809 -0.3600 -0.2309 -0.1576
11676TIP3    H156519   1.197   0.183   4.895  0.3660 -1.0505  0.3860
11676TIP3    H256520   1.151   0.114   4.769 -1.3807  2.2339 -0.8929
11677TIP3   OH256521   1.421   0.916   1.285 -0.1489 -0.0769 -0.0685
11677TIP3    H156522   1.436   0.830   1.325  0.2584 -0.7091 -1.5166
11677TIP3    H256523   1.326   0.924   1.281 -0.1895 -0.4455  0.0875
11678TIP3   OH256524   5.961   2.612   4.146  0.1604 -0.1432  0.2161
11678TIP3    H156525   5.944   2.696   4.189  1.1352  1.2034 -1.8529
11678TIP3    H256526   5.998   2.557   4.216 -0.0556  1.2890  1.5292
11679TIP3   OH256527   2.121   6.412   3.909  0.2903  0.3361  0.2231
11679TIP3    H156528   2.125   6.358   3.830 -0.3285  2.1972 -1.1491
11679TIP3    H256529   2.028   6.415   3.933  0.2495  1.1419  0.0038
11680TIP3   OH256530   1.570   1.220  16.096 -0.4170  0.1319 -0.6740
11680TIP3    H156531   1.480   1.193  16.076 -0.6387 -0.5067  1.0669
11680TIP3    H256532   1.623   1.177  16.029 -1.2052 -1.1817 -0.4919
11681TIP3   OH256533   4.749   4.003  13.638  0.3453  0.3324 -0.3886
11681TIP3    H156534   4.677   4.031  13.582  0.0709  1.4620  0.4794
11681TIP3    H256535   4.708   3.980  13.721  0.8047 -0.7592 -0.4413
11682TIP3   OH256536   0.067   5.762   5.440  0.0696  0.4532  0.6866
11682TIP3    H156537   0.052   5.762   5.534 -2.4122  0.0543  0.3802
11682TIP3    H256538   0.088   5.853   5.418  4.1370 -0.0089  1.9637
11683TIP3   OH256539   2.661   2.361  12.483 -0.2571  0.7302 -0.2066
11683TIP3    H156540   2.707   2.276  12.482  0.9342  1.3561 -0.8844
11683TIP3    H256541   2.570   2.338  12.502  0.3750 -0.5210  1.7330
11684TIP3   OH256542   6.341   5.036  14.181  0.0338  0.2822  0.7237
11684TIP3    H156543   6.327   5.070  14.093 -0.0205 -2.9383 -0.6260
11684TIP3    H256544   6.352   4.942  14.170  0.2441 -0.2408  4.1616
11685TIP3   OH256545   6.428   0.531  14.278 -0.1347  0.2086  0.7063
11685TIP3    H156546   6.404   0.509  14.188 -0.0010 -1.4182  1.0402
11685TIP3    H256547   6.451   0.448  14.318  2.1102  1.1695  1.5946
11686TIP3   OH256548   6.746   4.708  16.041 -0.3822  0.0988 -0.2628
11686TIP3    H156549   6.747   4.778  16.106  0.6750  0.0750 -0.2340
11686TIP3    H256550   6.752   4.627  16.092  0.2308  0.0723 -0.3634
11687TIP3   OH256551   3.506   3.506   1.581  0.5733 -0.3852  0.3374
11687TIP3    H156552   3.471   3.419   1.601  0.3849 -0.4205 -0.1244
11687TIP3    H256553   3.597   3.490   1.555  0.7174 -0.3755  0.8299
11688TIP3   OH256554   2.455   1.578  12.514 -0.3778  0.5058 -0.0473
11688TIP3    H156555   2.384   1.518  12.536 -0.3825  1.1879  2.0554
11688TIP3    H256556   2.471   1.626  12.595  1.0527  1.8609 -1.0789
11689TIP3   OH256557   0.324   3.828  15.953 -0.1597 -0.5234 -0.1286
11689TIP3    H156558   0.412   3.861  15.973 -0.3346 -0.4337  0.4981
11689TIP3    H256559   0.265   3.883  16.004 -0.4435 -1.8768  1.0772
11690TIP3   OH256560   6.647   5.667   1.927 -0.1858  0.4276 -0.1503
11690TIP3    H156561   6.642   5.589   1.870 -0.6043  1.5011 -1.6407
11690TIP3    H256562   6.698   5.638   2.002  3.4026 -0.1529 -2.5850
11691TIP3   OH256563   1.972   5.976  14.343 -0.0578  0.0277  0.7832
11691TIP3    H156564   1.939   6.056  14.302 -0.2128 -0.1277  0.5995
11691TIP3    H256565   2.066   5.990  14.353  0.1784 -0.3500 -0.6172
11692TIP3   OH256566   4.695   3.662  11.831 -0.0324 -0.1084 -0.3230
11692TIP3    H156567   4.649   3.645  11.913  0.7437 -0.0740  0.1353
11692TIP3    H256568   4.733   3.578  11.807  1.2116  0.2532  0.3009
11693TIP3   OH256569   2.181   5.888   0.296  0.1789  0.3620 -0.2788
11693TIP3    H156570   2.086   5.876   0.297  0.0019  1.6626  0.4609
11693TIP3    H256571   2.204   5.908   0.387  0.9977  1.2213 -0.6636
11694TIP3   OH256572   3.556   0.282  15.833 -0.1749 -0.5105  0.6250
11694TIP3    H156573   3.472   0.309  15.797 -0.4141 -2.3418 -0.2874
11694TIP3    H256574   3.616   0.352  15.807 -1.0725 -0.0219 -0.1873
11695TIP3   OH256575   6.550   3.805  13.857  0.2463 -0.3362 -0.0582
11695TIP3    H156576   6.635   3.760  13.862  1.0432  1.1427  0.6191
11695TIP3    H256577   6.524   3.815  13.949 -1.1034 -1.5147 -0.2836
11696TIP3   OH256578   2.215   1.607   0.216  0.0340 -0.1563 -0.1335
11696TIP3    H156579   2.257   1.633   0.134 -0.0895  0.3481 -0.0415
11696TIP3    H256580   2.276   1.545   0.255  0.6185  0.4187 -0.1016
11697TIP3   OH256581   1.116   5.343   2.151 -0.2597  0.1056 -0.2389
11697TIP3    H156582   1.188   5.364   2.091 -0.2323 -0.5059 -0.4350
11697TIP3    H256583   1.107   5.421   2.206  1.8807 -0.4959  1.1170
11698TIP3   OH256584   5.183   2.022   6.093  0.4063 -0.2155 -0.3926
11698TIP3    H156585   5.184   2.057   6.182  2.5541  0.4884 -0.6358
11698TIP3    H256586   5.210   2.096   6.038  1.7959 -1.3351 -1.2915
11699TIP3   OH256587   1.304   1.823   0.093 -0.3109  0.0886  0.1173
11699TIP3    H156588   1.216   1.856   0.113 -0.3791 -0.0330  0.0194
11699TIP3    H256589   1.296   1.728   0.099  0.2670  0.1156  2.0048
11700TIP3   OH256590   5.589   0.838   5.404  0.0500  0.3405  0.1282
11700TIP3    H156591   5.498   0.848   5.433  0.0311  1.0720 -0.1728
11700TIP3    H256592   5.637   0.907   5.451  0.6761 -0.8074  1.2272
11701TIP3   OH256593   1.369   0.974  15.188  0.5639  0.1450  0.2418
11701TIP3    H156594   1.290   0.921  15.179  0.6690  0.0558 -0.1918
11701TIP3    H256595   1.404   0.950  15.274 -0.3716  0.8715  0.8555
11702TIP3   OH256596   3.808   6.230  16.114  0.3136 -0.3174  0.3962
11702TIP3    H156597   3.861   6.190  16.045  2.2016  2.3330  0.1405
11702TIP3    H256598   3.735   6.269  16.067  0.5693 -0.1496  0.1277
11703TIP3   OH256599   2.420   5.907  13.229  0.0440  0.4203 -0.1871
11703TIP3    H156600   2.459   5.900  13.142  1.3628 -0.5810  0.4328
11703TIP3    H256601   2.408   5.816  13.257 -0.1282  0.7249  0.7705
11704TIP3   OH256602   3.590   4.570  13.708 -0.3853  0.2752  0.0435
11704TIP3    H156603   3.495   4.570  13.695 -0.6599  0.7586  1.7751
11704TIP3    H256604   3.602   4.532  13.795  0.9938  0.3483 -0.0996
11705TIP3   OH256605   3.252   0.588   4.485 -0.0490 -0.1729  0.3041
11705TIP3    H156606   3.275   0.549   4.400  0.0652  0.1506  0.1828
11705TIP3    H256607   3.164   0.554   4.504  0.8350 -2.0917  1.1774
11706TIP3   OH256608   3.396   4.970   2.361 -0.1652 -0.5945 -0.5407
11706TIP3    H156609   3.348   4.898   2.321 -0.5615 -0.6535  0.0233
11706TIP3    H256610   3.336   5.045   2.355  0.1717 -0.3517 -0.9602
11707TIP3   OH256611   3.078   4.574   0.618  0.5069  0.0700 -0.4941
11707TIP3    H156612   3.054   4.636   0.549  2.1841 -0.4074 -1.5493
11707TIP3    H256613   3.076   4.627   0.698 -2.3652  0.4250 -0.6792
11708TIP3   OH256614   5.978   0.877  14.736 -0.0380 -0.1893 -0.6392
11708TIP3    H156615   6.062   0.905  14.772  0.6274 -1.6090 -1.0178
11708TIP3    H256616   5.913   0.929  14.783  0.9670 -0.1000  0.7041
11709TIP3   OH256617   3.301   0.552   1.086  0.1793 -0.1870  0.0995
11709TIP3    H156618   3.340   0.624   1.136 -0.3623  0.2118 -0.0589
11709TIP3    H256619   3.284   0.588   1.000 -0.1863 -0.4776  0.0479
11710TIP3   OH256620   3.763   4.248   5.740  0.6731  0.6892  0.6121
11710TIP3    H156621   3.706   4.316   5.777  0.7419  0.5033  1.0598
11710TIP3    H256622   3.819   4.221   5.812  0.5739  0.0714  0.4669
11711TIP3   OH256623   1.466   6.573  12.445 -0.0641 -0.7906 -0.2258
11711TIP3    H156624   1.555   6.567  12.409 -0.1536  0.2950 -0.6895
11711TIP3    H256625   1.469   6.521  12.525  1.4298  0.3991  0.5587
11712TIP3   OH256626   4.188   2.406   2.203  0.0487  0.0459 -0.0406
11712TIP3    H156627   4.242   2.404   2.124 -0.5149  1.2276 -0.4700
11712TIP3    H256628   4.241   2.360   2.268 -0.0670 -2.2392 -1.4471
11713TIP3   OH256629   4.641   3.903   2.471 -0.3665 -0.1687  0.2357
11713TIP3    H156630   4.706   3.847   2.514  2.1131  1.4562 -1.1302
11713TIP3    H256631   4.580   3.926   2.541  1.6613 -0.2228  2.1629
11714TIP3   OH256632   2.028   4.098   5.956 -0.0305 -0.1324  0.1117
11714TIP3    H156633   2.117   4.120   5.984  0.3978 -0.1741 -1.1380
11714TIP3    H256634   2.040   4.043   5.879 -1.1472 -0.3642  0.0837
11715TIP3   OH256635   0.068   0.853  11.308 -0.1300  0.0471  0.4814
11715TIP3    H156636   0.021   0.873  11.389 -1.2569  0.9629 -0.3656
11715TIP3    H256637  -0.001   0.845  11.242  0.9211  2.1791 -0.9614
11716TIP3   OH256638   0.894   3.009  12.285 -0.0807 -0.0407  0.0710
11716TIP3    H156639   0.887   2.955  12.364  2.0819 -0.1518  0.2423
11716TIP3    H256640   0.980   3.051  12.292 -0.5100  1.1824 -1.4699
11717TIP3   OH256641   6.255   4.879  10.611  0.2317  0.1810 -0.3156
11717TIP3    H156642   6.274   4.796  10.656  0.1203  0.1802 -0.2702
11717TIP3    H256643   6.230   4.939  10.682  3.1121  1.0993  0.0496
11718TIP3   OH256644   3.558   6.548  11.536  0.5257  0.2157  0.2010
11718TIP3    H156645   3.596   6.460  11.547  1.8294  0.6276 -0.6838
11718TIP3    H256646   3.617   6.605  11.586 -1.2133  0.4581  2.1343
11719TIP3   OH256647   6.320   2.829  13.481  0.1901  0.0648  0.0195
11719TIP3    H156648   6.323   2.857  13.390  0.8793 -1.5460 -0.4890
11719TIP3    H256649   6.412   2.811  13.504 -0.2740 -2.9345 -0.1289
11720TIP3   OH256650   4.072   6.447  16.647 -0.0302  0.3784  0.4360
11720TIP3    H156651   4.125   6.408  16.715 -0.0535 -1.1896 -0.3935
11720TIP3    H256652   4.131   6.458  16.573 -0.5419 -0.1422 -0.0618
11721TIP3   OH256653   1.894   2.706   0.436  0.2205  0.2771 -0.0716
11721TIP3    H156654   1.880   2.748   0.352  3.5320  0.3543 -0.7348
11721TIP3    H256655   1.949   2.767   0.485 -0.2781 -0.4805  1.5232
11722TIP3   OH256656   0.781   2.581  13.920  0.3940 -0.1918  0.6200
11722TIP3    H156657   0.815   2.659  13.876  1.7376 -1.3872 -0.5389
11722TIP3    H256658   0.686   2.588  13.909  0.4645  1.3248  0.6637
11723TIP3   OH256659   2.965   5.026  15.158 -0.0673 -0.1670  0.8129
11723TIP3    H156660   3.018   5.038  15.237  3.0475 -0.8088 -1.0371
11723TIP3    H256661   2.970   5.110  15.113 -1.4306  0.0400  0.9999
11724TIP3   OH256662   5.953   2.936  16.132  0.1160 -0.5273 -0.3652
11724TIP3    H156663   6.011   2.925  16.057  0.3033 -0.4418 -0.2324
11724TIP3    H256664   5.940   2.847  16.166  1.2726 -0.4162  0.4375
11725TIP3   OH256665   4.804   6.165  15.189 -0.6217 -0.3025 -0.0070
11725TIP3    H156666   4.882   6.170  15.245 -0.6335  1.5915 -0.0879
11725TIP3    H256667   4.784   6.071  15.183 -1.6898 -0.5825  4.6033
11726TIP3   OH256668   0.702   4.484   4.944  0.1270  0.0756  0.2804
11726TIP3    H156669   0.778   4.539   4.925 -0.4457  0.7219 -0.1660
11726TIP3    H256670   0.650   4.535   5.006 -1.1465  0.7137 -1.2441
11727TIP3   OH256671   0.381   2.725   0.091  0.3326  0.0762 -0.4514
11727TIP3    H156672   0.287   2.735   0.073  0.6769  0.5974 -2.1865
11727TIP3    H256673   0.398   2.787   0.162 -0.7186 -0.3751  0.2106
11728TIP3   OH256674   1.683   0.469   5.118 -0.9512  0.0158  0.5545
11728TIP3    H156675   1.639   0.495   5.037 -1.0432 -0.9347  0.2879
11728TIP3    H256676   1.717   0.551   5.154  0.0414  0.3391 -1.0071
11729TIP3   OH256677   1.374   0.342   3.208  0.0629  0.4823  0.7111
11729TIP3    H156678   1.441   0.399   3.172 -0.4669  0.1185 -0.9749
11729TIP3    H256679   1.417   0.257   3.216 -0.0340  0.3697  0.1129
11730TIP3   OH256680   3.631   1.462  14.798 -0.0817  0.5175 -0.1462
11730TIP3    H156681   3.628   1.558  14.806  0.0006  0.5443 -0.4059
11730TIP3    H256682   3.629   1.430  14.888  1.9777  0.8211  0.0464
11731TIP3   OH256683   3.715   4.099  14.626  0.2478  0.2117 -0.1080
11731TIP3    H156684   3.676   4.015  14.602  1.6938 -0.2223 -1.0354
11731TIP3    H256685   3.803   4.096  14.590 -0.4217  3.1094 -2.3320
11732TIP3   OH256686   2.592   4.971   0.772 -0.4601  0.0611 -0.4553
11732TIP3    H156687   2.538   4.930   0.704 -0.9117  1.1172 -0.7696
11732TIP3    H256688   2.550   4.946   0.854 -1.5919  1.0546 -0.7085
11733TIP3   OH256689   6.040   4.685   2.947  0.1762  0.3147 -0.0234
11733TIP3    H156690   6.042   4.621   2.876 -0.8085  0.0402  0.1910
11733TIP3    H256691   6.097   4.648   3.015  0.8985  0.4460 -0.5500
11734TIP3   OH256692   4.180   1.237   1.378 -0.4685 -0.3587 -0.0577
11734TIP3    H156693   4.204   1.151   1.412 -1.5130 -0.9494 -0.7443
11734TIP3    H256694   4.234   1.248   1.300  0.5241  0.1490  0.6776
11735TIP3   OH256695   5.722   3.708   5.825  0.0959 -0.2171  0.5014
11735TIP3    H156696   5.684   3.721   5.912 -0.6600  1.3078 -0.0181
11735TIP3    H256697   5.648   3.680   5.771  0.2037  0.4380  0.0035
11736TIP3   OH256698   1.279   1.679   5.644 -0.0981 -0.1407 -0.0815
11736TIP3    H156699   1.328   1.705   5.566  0.4743  1.2530  0.7124
11736TIP3    H256700   1.333   1.610   5.683 -1.1446 -1.9670 -1.6799
11737TIP3   OH256701   6.033   5.533  16.768 -0.8976  0.3376  0.0207
11737TIP3    H156702   5.984   5.510  16.690  0.9090 -1.3046 -0.7098
11737TIP3    H256703   5.966   5.550  16.835 -2.4649  1.4311 -1.7298
11738TIP3   OH256704   2.714   1.636  12.418 -0.1255 -0.7934 -0.5377
11738TIP3    H156705   2.766   1.653  12.497 -1.1108  3.6673 -0.5507
11738TIP3    H256706   2.626   1.615  12.451 -0.4900  0.8802 -0.3449
11739TIP3   OH256707   6.259   0.717  13.185  0.3120 -0.0508 -0.8561
11739TIP3    H156708   6.283   0.793  13.131  1.8300  0.4242  0.3990
11739TIP3    H256709   6.287   0.641  13.133  2.6849  0.4226 -0.4206
11740TIP3   OH256710   3.962   0.803   3.914 -0.2085 -0.3253  0.1141
11740TIP3    H156711   4.006   0.864   3.974 -2.1615  0.6118  0.6899
11740TIP3    H256712   3.907   0.859   3.859 -0.5674 -1.4259 -0.6848
11741TIP3   OH256713   0.945   3.799  15.745  0.3769 -0.2285  0.5060
11741TIP3    H156714   0.891   3.729  15.782  1.1187 -1.1590 -0.1350
11741TIP3    H256715   0.992   3.836  15.820  0.2273 -0.6401  0.8002
11742TIP3   OH256716   4.040   3.905  11.612 -0.1089 -0.8504  0.6321
11742TIP3    H156717   3.970   3.948  11.564  0.4991 -1.5109 -0.9205
11742TIP3    H256718   4.024   3.928  11.703 -0.3844  1.8265  0.0048
11743TIP3   OH256719   3.677   1.463   4.541 -0.0829  0.1616 -0.0475
11743TIP3    H156720   3.685   1.454   4.636 -1.7895  0.4498  0.1616
11743TIP3    H256721   3.766   1.452   4.508  0.6580  0.7346  1.6367
11744TIP3   OH256722   3.848   3.453   2.311  0.0743 -0.5942  0.6044
11744TIP3    H156723   3.753   3.444   2.303  0.1913 -0.7493 -0.9134
11744TIP3    H256724   3.874   3.497   2.230  1.2246  0.0965  1.3259
11745TIP3   OH256725   2.676   6.319  13.194  0.5734  0.1808  0.1889
11745TIP3    H156726   2.586   6.317  13.161  0.9933 -0.9592 -0.9712
11745TIP3    H256727   2.730   6.331  13.116  1.4101  2.3318  1.0175
11746TIP3   OH256728   4.016   3.076   2.081  0.3625  0.5518 -0.3397
11746TIP3    H156729   4.038   3.052   1.991 -0.4755  1.0250 -0.6811
11746TIP3    H256730   3.925   3.048   2.092  0.6011  0.0965  0.5132
11747TIP3   OH256731   4.824   6.473  16.407 -0.3660 -0.3003 -0.1735
11747TIP3    H156732   4.773   6.471  16.326 -0.3950 -0.2434 -0.1565
11747TIP3    H256733   4.767   6.515  16.470 -0.1594  0.1043 -0.2494
11748TIP3   OH256734   3.028   2.418  10.725  0.0455  0.4101  0.0378
11748TIP3    H156735   3.050   2.398  10.816  2.1219 -0.0157 -0.5218
11748TIP3    H256736   2.996   2.509  10.728 -0.2651  0.2724  1.2328
11749TIP3   OH256737   1.604   5.322   2.065 -0.2311  0.2807 -0.2979
11749TIP3    H156738   1.595   5.269   1.986  0.5955  0.4512 -0.5080
11749TIP3    H256739   1.698   5.334   2.076 -0.3479  0.4691  0.5736
11750TIP3   OH256740   4.203   3.780   3.880 -0.0335  0.7816  0.0195
11750TIP3    H156741   4.113   3.749   3.884  0.0984  0.4846  1.8072
11750TIP3    H256742   4.199   3.870   3.913 -0.0358  1.8340 -2.6145
11751TIP3   OH256743   5.109   1.818   1.068 -0.0256 -0.5527  0.2253
11751TIP3    H156744   5.076   1.893   1.116  0.4992 -0.8500  1.0687
11751TIP3    H256745   5.110   1.846   0.976  1.9221  1.1285  0.7110
11752TIP3   OH256746   1.390   0.138   5.224  0.2276  0.7996  0.0145
11752TIP3    H156747   1.335   0.195   5.277 -0.9694 -2.3467  2.5477
11752TIP3    H256748   1.480   0.163   5.247 -0.2721  0.8923  2.0816
11753TIP3   OH256749   1.419   5.980  12.260  0.1506  0.4302  0.3004
11753TIP3    H156750   1.478   6.048  12.291 -0.0933  0.0026  1.7699
11753TIP3    H256751   1.336   6.025  12.245  0.2904  0.6530  0.1924
11754TIP3   OH256752   4.670   1.115   2.932 -0.2182  0.6301 -0.5504
11754TIP3    H156753   4.730   1.088   2.863 -0.1573  0.7951 -0.5628
11754TIP3    H256754   4.633   1.197   2.900 -1.2465  0.0015 -1.0280
11755TIP3   OH256755   5.010   2.060  16.366  0.1521 -0.3916  0.2848
11755TIP3    H156756   4.973   2.149  16.368 -0.4307 -0.5952 -0.8391
11755TIP3    H256757   5.102   2.074  16.342 -0.2104 -0.1388 -1.0766
11756TIP3   OH256758   2.008   4.351   3.377 -0.2095  0.2220  0.6379
11756TIP3    H156759   2.087   4.341   3.323  0.4412  1.3354  1.3508
11756TIP3    H256760   1.965   4.266   3.371  0.1490  0.1252 -1.1399
11757TIP3   OH256761   5.664   4.189  15.659 -0.4582 -0.6053  0.4052
11757TIP3    H156762   5.661   4.157  15.569  0.4113 -3.3953  1.2738
11757TIP3    H256763   5.574   4.214  15.678 -0.6470  0.1101 -1.2182
11758TIP3   OH256764   4.084   4.883  14.793 -0.5638 -0.8937  0.7107
11758TIP3    H156765   4.126   4.968  14.781 -1.2842 -0.6752 -0.3806
11758TIP3    H256766   4.145   4.834  14.848  0.4755 -0.1216  0.2837
11759TIP3   OH256767   6.116   4.232  13.886 -0.4553 -0.2418  1.0556
11759TIP3    H156768   6.127   4.186  13.969  0.0341  0.1572  1.2236
11759TIP3    H256769   6.194   4.289  13.881 -0.7548  0.1296  0.5853
11760TIP3   OH256770   3.397   6.142   5.411 -0.7175  0.4273 -0.2182
11760TIP3    H156771   3.470   6.101   5.458 -2.3606 -2.1461  0.2745
11760TIP3    H256772   3.328   6.149   5.476 -1.8891  0.0072 -1.3840
11761TIP3   OH256773   4.246   0.031  13.171  0.3640 -0.0740 -0.0028
11761TIP3    H156774   4.224  -0.035  13.105  1.9374  0.6461 -1.3183
11761TIP3    H256775   4.337   0.052  13.154  0.3568  1.2793  1.4316
11762TIP3   OH256776   3.581   0.456  14.756 -0.4401 -0.4639 -0.0133
11762TIP3    H156777   3.659   0.404  14.777 -1.1092 -2.3431 -1.7511
11762TIP3    H256778   3.594   0.539  14.801  1.4828 -1.5459  1.5860
11763TIP3   OH256779   1.914   2.502  12.414 -0.0189  0.4111  0.2784
11763TIP3    H156780   1.861   2.433  12.374  0.3068  0.0587  0.4483
11763TIP3    H256781   1.907   2.576  12.353  1.1933 -0.4077 -0.9160
11764TIP3   OH256782   6.231   5.221   5.385  0.5569 -0.1999  0.6809
11764TIP3    H156783   6.251   5.295   5.441 -0.4379 -0.2768  1.1632
11764TIP3    H256784   6.316   5.186   5.359  1.0453  1.1920  0.3162
11765TIP3   OH256785   4.423   3.428  11.095 -0.1484 -0.2241 -0.3105
11765TIP3    H156786   4.514   3.404  11.112 -1.1113 -2.2394  2.8907
11765TIP3    H256787   4.403   3.388  11.010  1.8509  0.1769 -1.0307
11766TIP3   OH256788   0.059   3.775   2.160  0.7121  0.1653  0.0880
11766TIP3    H156789   0.081   3.711   2.091 -1.3532  2.2843 -2.7581
11766TIP3    H256790  -0.036   3.770   2.168  0.7285  1.3416  1.4565
11767TIP3   OH256791   0.763   4.950  16.951  0.0240 -0.5815  0.1929
11767TIP3    H156792   0.809   4.913  16.876  1.0246  0.5897  0.1882
11767TIP3    H256793   0.833   4.973  17.013 -0.3757  2.2271 -0.2524
11768TIP3   OH256794   5.168   5.164   0.476  0.0959 -0.3514 -0.3813
11768TIP3    H156795   5.177   5.229   0.407  1.7968  0.3340  0.4354
11768TIP3    H256796   5.240   5.103   0.462 -0.6329 -1.2746 -0.2778
11769TIP3   OH256797   6.292   3.993   6.386  0.1380  0.1503  0.1541
11769TIP3    H156798   6.211   3.958   6.425 -0.0581  0.0441 -0.3374
11769TIP3    H256799   6.362   3.951   6.435 -0.1068 -0.0915  0.3012
11770TIP3   OH256800   0.726   3.171  12.145  0.0846  0.1107 -0.4273
11770TIP3    H156801   0.801   3.148  12.200  0.1778  0.1418 -0.5419
11770TIP3    H256802   0.764   3.206  12.065 -0.0529  0.1656 -0.4693
11771TIP3   OH256803   3.604   6.308   3.719 -0.1739  0.7527  0.0053
11771TIP3    H156804   3.691   6.345   3.706 -0.6302  1.7676 -0.1910
11771TIP3    H256805   3.570   6.351   3.797 -0.0069 -0.5878  0.8549
11772TIP3   OH256806   2.225   1.149  12.190 -0.7156 -0.1765  0.1051
11772TIP3    H156807   2.283   1.211  12.235 -0.6198  0.2512 -0.5996
11772TIP3    H256808   2.185   1.099  12.261  0.1186 -0.1282  0.6322
11773TIP3   OH256809   5.585   2.629  12.706  0.0234  0.2705  0.2007
11773TIP3    H156810   5.498   2.661  12.726  0.0456  1.1164 -0.9291
11773TIP3    H256811   5.641   2.706  12.713  0.8721 -0.4369  1.8258
11774TIP3   OH256812   5.866   4.898   0.217 -0.1865  0.2670  0.7019
11774TIP3    H156813   5.929   4.830   0.244 -1.5654 -1.1652  0.4483
11774TIP3    H256814   5.781   4.860   0.235 -1.0787  1.0574 -1.5074
11775TIP3   OH256815   4.748   2.225   6.763  0.2045 -0.0322  0.1190
11775TIP3    H156816   4.667   2.201   6.809  1.1167 -0.6329  1.4859
11775TIP3    H256817   4.756   2.319   6.778 -0.3427  0.0807 -0.2301
11776TIP3   OH256818   2.211   2.550  16.702  0.0092 -0.2809 -0.2620
11776TIP3    H156819   2.132   2.566  16.754 -0.8752 -1.2551 -1.2614
11776TIP3    H256820   2.212   2.455  16.689  1.6193 -0.3472  0.1261
11777TIP3   OH256821   0.794   3.582  13.553 -0.3781  0.0773  0.2215
11777TIP3    H156822   0.885   3.606  13.537 -0.4482  2.1997  2.3378
11777TIP3    H256823   0.752   3.665  13.579 -1.7351 -1.5385  3.8511
11778TIP3   OH256824   0.621   6.578   5.679 -0.1544  0.0525  0.0106
11778TIP3    H156825   0.656   6.667   5.679  0.4485 -0.1641 -0.8917
11778TIP3    H256826   0.674   6.532   5.744 -0.4476  0.3386  0.4579
11779TIP3   OH256827   6.027   3.164  15.897  0.5717 -0.0832 -0.0854
11779TIP3    H156828   6.059   3.074  15.887 -0.1785 -0.3024 -0.6073
11779TIP3    H256829   6.099   3.211  15.938  1.7326 -0.4614 -1.5988
11780TIP3   OH256830   1.029   4.531   1.521 -0.0720 -0.0769  1.1305
11780TIP3    H156831   1.122   4.530   1.541  0.8197 -0.2616 -2.4935
11780TIP3    H256832   1.008   4.439   1.502 -0.9601  0.0074  1.6363
11781TIP3   OH256833   5.854   6.355   4.252  0.1722 -0.0306  0.1778
11781TIP3    H156834   5.803   6.328   4.175 -1.3388  0.0844  1.0967
11781TIP3    H256835   5.873   6.274   4.299 -1.0497  0.0993  0.9410
11782TIP3   OH256836   3.378   5.191   2.039 -0.0990 -0.0947 -0.0071
11782TIP3    H156837   3.367   5.107   1.995 -2.6673  0.8821 -1.4973
11782TIP3    H256838   3.324   5.183   2.118  1.0279 -0.3805  0.7538
11783TIP3   OH256839   5.222   5.883  16.355  0.3671 -0.2358  0.0027
11783TIP3    H156840   5.299   5.920  16.311  1.1423 -1.3743  0.3355
11783TIP3    H256841   5.190   5.954  16.410  0.5417  0.5934 -0.9289
11784TIP3   OH256842   0.511   5.354  11.433 -0.3750  0.3478  0.2644
11784TIP3    H156843   0.486   5.277  11.485  0.0685 -0.1736 -0.2708
11784TIP3    H256844   0.519   5.320  11.344  1.4817  0.6213  0.2806
11785TIP3   OH256845   2.769   0.448   0.565 -1.3205  1.0426  0.1309
11785TIP3    H156846   2.790   0.372   0.511  0.0801  1.0768  0.5922
11785TIP3    H256847   2.775   0.522   0.505 -3.4052  0.7714 -0.4959
11786TIP3   OH256848   2.223   1.246  15.971  0.6008 -0.2020 -0.3604
11786TIP3    H156849   2.214   1.287  15.885 -0.4477 -0.8084 -0.5610
11786TIP3    H256850   2.146   1.190  15.979  0.2773  0.4125  1.3005
11787TIP3   OH256851   5.672   1.891  12.994  0.5605  0.4319 -0.6199
11787TIP3    H156852   5.753   1.938  12.973  0.6910  0.8532  0.7058
11787TIP3    H256853   5.622   1.953  13.047 -0.2885 -0.1125 -0.7715
11788TIP3   OH256854   2.516   6.478   1.904  0.0282 -0.7011  0.1906
11788TIP3    H156855   2.429   6.515   1.918  0.4772 -0.0325  1.4118
11788TIP3    H256856   2.505   6.419   1.830 -0.9787  0.9871 -1.0804
11789TIP3   OH256857   4.873   4.541  10.778 -0.2433  0.2513  0.0650
11789TIP3    H156858   4.948   4.598  10.763 -0.2866  0.5574  0.9437
11789TIP3    H256859   4.909   4.464  10.823 -0.5798  0.8782  1.4788
11790TIP3   OH256860   0.930   2.838  11.494  0.2756 -0.3605 -0.4971
11790TIP3    H156861   0.909   2.776  11.425 -1.4815  0.5532 -0.8437
11790TIP3    H256862   0.955   2.918  11.447 -1.1992  0.3524 -0.1098
11791TIP3   OH256863   2.049   1.507  13.941  0.4389 -0.3470  0.1161
11791TIP3    H156864   2.133   1.553  13.936  0.0745  0.2962 -0.1841
11791TIP3    H256865   2.011   1.516  13.853  0.0099 -0.5313  0.2792
11792TIP3   OH256866   2.149   3.793  13.182 -0.1822  0.2197 -0.4059
11792TIP3    H156867   2.067   3.749  13.201 -0.3770 -0.0649 -1.7976
11792TIP3    H256868   2.194   3.735  13.120  1.9008 -0.5301  1.6503
11793TIP3   OH256869   2.180   0.078   5.246 -0.3091  0.1148 -0.2538
11793TIP3    H156870   2.108   0.066   5.307  0.1710  0.0645  0.3108
11793TIP3    H256871   2.197  -0.009   5.211  0.2859 -0.0990  0.5450
11794TIP3   OH256872   5.418   3.242   4.953 -0.4216 -0.4535 -0.0333
11794TIP3    H156873   5.382   3.292   5.026 -2.0907 -0.5954 -0.7256
11794TIP3    H256874   5.484   3.185   4.993 -1.5201 -0.7639  1.4300
11795TIP3   OH256875   6.371   1.910  15.686  0.0026 -0.3882 -0.0483
11795TIP3    H156876   6.378   2.004  15.700 -0.1074 -0.4003  0.0945
11795TIP3    H256877   6.439   1.872  15.743 -1.6394 -0.5509  1.9166
11796TIP3   OH256878   1.576   3.865   4.331 -0.0983 -0.2562 -0.2119
11796TIP3    H156879   1.610   3.836   4.416 -0.8747 -1.6164 -0.3404
11796TIP3    H256880   1.481   3.868   4.344 -0.3712 -2.1864 -1.5180
11797TIP3   OH256881   0.415   3.111  14.359  0.0583 -0.5301  0.1242
11797TIP3    H156882   0.341   3.061  14.326 -1.6148  1.4911  0.6106
11797TIP3    H256883   0.484   3.096  14.295 -2.4011  1.6139 -3.3557
11798TIP3   OH256884   5.544   3.460   4.420  0.0517 -0.1532 -0.0373
11798TIP3    H156885   5.632   3.480   4.452 -1.1133  0.4252  3.1100
11798TIP3    H256886   5.517   3.540   4.374  0.2753  0.6257  1.1456
11799TIP3   OH256887   0.291   0.546   2.967 -0.2916 -0.1236 -0.4675
11799TIP3    H156888   0.382   0.561   2.994 -0.7074  0.7217  0.5255
11799TIP3    H256889   0.269   0.461   3.003 -0.2452  0.1697  0.2557
11800TIP3   OH256890   0.184   1.615   1.232 -0.1375 -0.2783 -0.3393
11800TIP3    H156891   0.208   1.552   1.163  0.3101  0.9419 -1.3373
11800TIP3    H256892   0.200   1.568   1.314  0.2924 -1.4265 -1.0511
11801TIP3   OH256893   4.339   2.592   4.866  0.1920  0.0102 -0.3634
11801TIP3    H156894   4.355   2.679   4.830  0.9298  0.2797  0.5702
11801TIP3    H256895   4.396   2.534   4.816 -0.4898  0.0139 -1.1580
11802TIP3   OH256896   3.869   3.273  16.624  0.3134 -0.4602  0.3742
11802TIP3    H156897   3.820   3.246  16.546 -1.4162  0.3261  1.1533
11802TIP3    H256898   3.955   3.233  16.612 -0.0246 -0.6947 -1.7438
11803TIP3   OH256899   3.356   0.533  13.535 -0.0807  0.3115  0.1372
11803TIP3    H156900   3.294   0.596  13.497  0.2672  0.5484 -0.0424
11803TIP3    H256901   3.361   0.558  13.627 -0.1596  0.3686  0.1265
11804TIP3   OH256902   2.085   4.469   6.031  0.7520 -0.7572  0.3660
11804TIP3    H156903   2.121   4.500   6.114 -1.1412 -0.6137  1.1935
11804TIP3    H256904   1.995   4.443   6.053  0.6026 -1.8930 -1.3917
11805TIP3   OH256905   2.091   6.179  12.702 -0.3321  0.2897  0.2952
11805TIP3    H156906   2.148   6.128  12.760 -1.0447  0.5827  1.2747
11805TIP3    H256907   2.141   6.258  12.682  0.2238 -0.1594 -0.1144
11806TIP3   OH256908   6.090   3.822   6.202 -0.7313 -0.1428 -0.3454
11806TIP3    H156909   6.120   3.782   6.283  0.2703 -1.9410 -1.5312
11806TIP3    H256910   6.005   3.780   6.185 -0.3301 -0.7548 -0.8782
11807TIP3   OH256911   3.109   5.829  16.239  0.1276 -0.0201 -0.1857
11807TIP3    H156912   3.204   5.819  16.236  0.0698 -0.8200  0.3520
11807TIP3    H256913   3.085   5.855  16.150  0.6721 -1.6400 -0.8405
11808TIP3   OH256914   6.712   3.122  14.895 -0.5155  0.0057 -0.2233
11808TIP3    H156915   6.648   3.051  14.895 -0.7003  0.1727 -0.3454
11808TIP3    H256916   6.686   3.178  14.823 -0.2624  0.1039 -0.2406
11809TIP3   OH256917   4.277   4.145  16.352 -0.1797 -0.1034 -0.6304
11809TIP3    H156918   4.347   4.151  16.287 -1.5211 -0.2885 -2.1775
11809TIP3    H256919   4.257   4.051  16.357  0.5648 -0.2162  0.8399
11810TIP3   OH256920   2.380   6.464   4.289 -0.0095 -0.2086 -0.1196
11810TIP3    H156921   2.350   6.399   4.353  0.0887  0.4569  0.6216
11810TIP3    H256922   2.419   6.533   4.342  0.9094 -0.0634 -0.9557
11811TIP3   OH256923   5.390   1.715  10.968 -0.9509  0.3285 -0.1916
11811TIP3    H156924   5.375   1.635  10.917  0.0244  0.8883 -1.4086
11811TIP3    H256925   5.349   1.785  10.916 -1.9027  0.6283  0.9173
11812TIP3   OH256926   4.467   6.474   6.743 -0.0514  0.0977 -0.5207
11812TIP3    H156927   4.468   6.382   6.718 -1.4472 -0.0564 -0.0671
11812TIP3    H256928   4.396   6.512   6.693  0.2139  0.8328 -0.3493
11813TIP3   OH256929   2.319   0.889   0.689 -0.9213  0.3356 -0.5300
11813TIP3    H156930   2.409   0.915   0.711 -0.8988 -0.1580 -0.0258
11813TIP3    H256931   2.316   0.892   0.593 -0.7743  1.6955 -0.5029
11814TIP3   OH256932   3.829   3.520  12.463  0.2169 -0.0610  0.4269
11814TIP3    H156933   3.744   3.506  12.505  0.1730  3.5542  1.9550
11814TIP3    H256934   3.887   3.547  12.534  2.3657 -1.2451 -0.7695
11815TIP3   OH256935   6.134   5.228   0.149 -0.6894  0.2878 -0.2268
11815TIP3    H156936   6.173   5.151   0.190  1.7947  1.4660 -0.2074
11815TIP3    H256937   6.074   5.193   0.083  2.4885 -1.7743 -2.2544
11816TIP3   OH256938   5.127   5.267   3.107  0.2703  0.4183  0.2554
11816TIP3    H156939   5.057   5.224   3.157  1.2361 -0.6593  0.7253
11816TIP3    H256940   5.154   5.341   3.161 -0.6247  0.9731 -0.0262
11817TIP3   OH256941   1.638   0.244   4.971 -0.2002  0.3293  0.3563
11817TIP3    H156942   1.673   0.302   5.038  0.2968  0.7919 -0.2878
11817TIP3    H256943   1.715   0.207   4.929 -0.4924  0.4295 -0.2804
11818TIP3   OH256944   6.182   1.845  15.176  0.0774 -0.2512  0.3242
11818TIP3    H156945   6.267   1.868  15.139 -0.1241  0.7984  0.4779
11818TIP3    H256946   6.188   1.871  15.268  0.5144 -2.6563  1.0571
11819TIP3   OH256947   2.199   2.757  17.038  0.2180 -0.4241 -0.4550
11819TIP3    H156948   2.201   2.664  17.059  1.5482  0.1175  2.2837
11819TIP3    H256949   2.106   2.776  17.021 -0.2374 -2.0159  0.0883
11820TIP3   OH256950   5.690   2.043   1.030  0.6751 -0.2334 -0.3171
11820TIP3    H156951   5.602   2.078   1.013  0.5363 -0.1620  0.5078
11820TIP3    H256952   5.747   2.090   0.969  0.4823  1.4128  0.7070
11821TIP3   OH256953   2.550   0.951  11.630  0.5829 -0.2145 -0.2454
11821TIP3    H156954   2.564   1.045  11.644  1.3988 -0.2471 -0.7561
11821TIP3    H256955   2.555   0.913  11.717 -0.8512  0.3361  0.1016
11822TIP3   OH256956   4.185   6.256   3.380  0.4963  0.0054 -0.1797
11822TIP3    H156957   4.252   6.189   3.362  0.1682  0.0055 -1.4433
11822TIP3    H256958   4.151   6.232   3.466  1.3715 -0.6263  0.0088
11823TIP3   OH256959   4.200   4.864   2.795 -0.1032  0.3535 -0.0524
11823TIP3    H156960   4.107   4.849   2.776 -0.1991  0.3768  0.4041
11823TIP3    H256961   4.204   4.955   2.825 -0.3137 -0.3730  2.3335
11824TIP3   OH256962   6.379   6.314  16.211 -0.0923 -0.1332  0.9318
11824TIP3    H156963   6.381   6.251  16.139  0.8840 -1.6093  2.1905
11824TIP3    H256964   6.286   6.321  16.233 -0.1360 -2.2468  1.6477
11825TIP3   OH256965   5.764   2.799   3.357  0.9081  0.1008  0.2740
11825TIP3    H156966   5.829   2.868   3.367 -1.7124  2.4921  3.0353
11825TIP3    H256967   5.701   2.835   3.294 -0.9548  0.8212  2.4038
11826TIP3   OH256968   0.280   4.571  11.731 -0.2275  0.7945  0.7514
11826TIP3    H156969   0.350   4.587  11.795 -0.9231  1.0235  1.4665
11826TIP3    H256970   0.303   4.626  11.656 -0.2716  1.8158  1.4646
11827TIP3   OH256971   5.491   0.212  12.193 -0.0611 -0.5392  0.4863
11827TIP3    H156972   5.402   0.247  12.182 -0.7655 -2.6562 -1.2574
11827TIP3    H256973   5.548   0.284  12.164 -1.4068 -0.4107 -2.2196
11828TIP3   OH256974   5.085   1.845   0.366  0.2359  0.1973  0.3027
11828TIP3    H156975   5.068   1.764   0.414  1.2993  0.2793  0.8330
11828TIP3    H256976   5.178   1.840   0.341  0.3946  1.3798  0.5937
11829TIP3   OH256977   3.577   5.167  14.890 -0.1130  0.2441 -0.3484
11829TIP3    H156978   3.609   5.079  14.911 -0.0361  0.3480 -0.0300
11829TIP3    H256979   3.654   5.214  14.858  0.1239  0.5879  0.7106
11830TIP3   OH256980   4.403   5.862   2.903 -0.1271 -0.0149 -0.3893
11830TIP3    H156981   4.418   5.795   2.836  0.2188 -0.2110 -0.1228
11830TIP3    H256982   4.372   5.813   2.979  1.2004 -0.0285  0.1744
11831TIP3   OH256983   1.831   1.723  12.165  0.6525  0.1067 -0.5609
11831TIP3    H156984   1.816   1.809  12.202 -1.9719 -0.1105 -0.9659
11831TIP3    H256985   1.827   1.736  12.070  0.6258 -0.4104 -0.6370
11832TIP3   OH256986   1.696   3.407   0.011 -0.6774  0.3570 -0.3429
11832TIP3    H156987   1.609   3.432   0.043 -1.6204 -2.9703  0.1059
11832TIP3    H256988   1.678   3.351  -0.065  1.1288  0.5641 -0.9512
11833TIP3   OH256989   2.896   2.640  11.044  0.2794  0.4029  0.0880
11833TIP3    H156990   2.859   2.554  11.060  1.2234 -0.1486 -0.5868
11833TIP3    H256991   2.900   2.682  11.131 -2.2198  0.6508  0.1441
11834TIP3   OH256992   0.173   1.524  11.467  0.3437 -0.1435  0.3739
11834TIP3    H156993   0.123   1.509  11.547  0.4848 -0.7645  0.3549
11834TIP3    H256994   0.263   1.507  11.492  0.6201  1.4541  0.5278
11835TIP3   OH256995   3.583   0.318   6.912 -0.9750  0.0657  0.2641
11835TIP3    H156996   3.595   0.227   6.884  1.2213  0.6076 -0.7719
11835TIP3    H256997   3.509   0.349   6.861 -0.1567 -0.4353 -1.2950
11836TIP3   OH256998   2.560   6.485  15.287 -0.4552 -0.0711  0.1578
11836TIP3    H156999   2.503   6.523  15.353 -0.7688  1.2522 -0.8241
11836TIP3    H257000   2.501   6.447  15.222 -0.1777 -0.4877  0.1455
11837TIP3   OH257001   0.015   5.003  14.708 -0.1588  0.4388  0.3339
11837TIP3    H157002  -0.018   5.065  14.772 -2.5012  0.6910 -0.9914
11837TIP3    H257003   0.036   5.056  14.631 -0.9080 -0.2283 -0.3528
11838TIP3   OH257004   6.544   2.738   2.946  0.0797 -0.1921 -0.1309
11838TIP3    H157005   6.628   2.704   2.916  0.8650  1.3156  0.2851
11838TIP3    H257006   6.521   2.684   3.021  2.0928  1.1141  1.5314
11839TIP3   OH257007   2.933   2.070  15.136  0.4485  0.2091  0.3304
11839TIP3    H157008   2.944   2.093  15.044 -1.0320  1.9361  0.5254
11839TIP3    H257009   2.996   2.126  15.182  1.0159 -0.4777  0.4032
11840TIP3   OH257010   1.855   4.082  11.376 -0.6080 -0.6260 -0.5514
11840TIP3    H157011   1.887   4.144  11.310 -1.1774 -1.0937 -1.2809
11840TIP3    H257012   1.890   4.116  11.459 -2.9653  2.1512 -0.5424
11841TIP3   OH257013   1.819   6.007  14.755  0.8639 -0.3941 -0.6470
11841TIP3    H157014   1.885   6.041  14.696  0.2819 -1.6739 -2.1088
11841TIP3    H257015   1.843   6.041  14.841  0.8112  2.8982 -1.7981
11842TIP3   OH257016   1.124   5.931  10.845 -0.0207 -0.8806 -0.4913
11842TIP3    H157017   1.176   5.894  10.774  1.1096  1.2125 -0.8590
11842TIP3    H257018   1.096   6.016  10.812  1.2285  0.5221  1.7718
11843TIP3   OH257019   4.239   3.820   6.280  0.4860  0.7000 -0.6737
11843TIP3    H157020   4.172   3.867   6.329  1.6295  1.0194  0.6515
11843TIP3    H257021   4.261   3.745   6.336 -0.0965 -0.4903 -1.9736
11844TIP3   OH257022   5.060   4.857   5.610  0.3601 -0.1230 -0.1381
11844TIP3    H157023   5.154   4.840   5.604  0.5052  0.8255 -0.7473
11844TIP3    H257024   5.034   4.817   5.693  1.5260  0.5564  0.5905
11845TIP3   OH257025   3.223   2.848  11.992 -0.4677  0.1825  0.7977
11845TIP3    H157026   3.195   2.901  12.066  0.3738  0.1443  1.1465
11845TIP3    H257027   3.144   2.803  11.964 -0.6586 -0.3242  2.0982
11846TIP3   OH257028   2.506   0.423   0.911 -0.3048 -0.2220 -0.2197
11846TIP3    H157029   2.445   0.493   0.887 -0.2737 -0.2512 -0.3868
11846TIP3    H257030   2.457   0.367   0.971  0.6666  1.7073  2.5576
11847TIP3   OH257031   3.911   1.343   5.931  0.5747  0.0010 -0.0108
11847TIP3    H157032   3.900   1.263   5.879  1.5683 -0.6932  0.8059
11847TIP3    H257033   3.918   1.312   6.021 -2.1398  1.2500  0.7233
11848TIP3   OH257034   4.878   6.752   0.421 -0.7845  0.8182  0.2649
11848TIP3    H157035   4.923   6.834   0.398 -1.2007  0.5537 -1.6311
11848TIP3    H257036   4.939   6.683   0.394 -1.2647  0.4901  0.0012
11849TIP3   OH257037   3.181   5.505  15.018 -0.1501 -0.1585 -0.0193
11849TIP3    H157038   3.106   5.564  15.029  0.2212  0.1830  0.7865
11849TIP3    H257039   3.255   5.564  15.005  0.3610 -0.3805  1.6078
11850TIP3   OH257040   6.271   6.340   3.482  0.4124 -0.2477  0.2402
11850TIP3    H157041   6.316   6.321   3.564  2.1839  1.4840 -0.2575
11850TIP3    H257042   6.219   6.418   3.500 -0.4004 -0.7407  0.1005
11851TIP3   OH257043   3.504   4.475   3.120  0.1472 -0.3522 -0.3547
11851TIP3    H157044   3.501   4.385   3.151  0.7879 -0.4913 -0.6933
11851TIP3    H257045   3.489   4.528   3.199 -2.7925 -0.7644 -0.5424
11852TIP3   OH257046   0.033   5.728   2.534  0.7623  0.4478 -0.3065
11852TIP3    H157047  -0.062   5.737   2.526  0.8884  1.4619 -0.8562
11852TIP3    H257048   0.047   5.704   2.626 -0.0905 -0.9718 -0.5250
11853TIP3   OH257049   5.687   3.883  16.103 -0.5804  0.5383 -0.2656
11853TIP3    H157050   5.750   3.949  16.133  0.3116 -0.6455  0.5126
11853TIP3    H257051   5.677   3.902  16.009  0.8518  0.8329 -0.3848
11854TIP3   OH257052   3.654   5.336  13.388 -0.1839  0.0590 -0.0071
11854TIP3    H157053   3.608   5.415  13.358  0.1473  0.4393  0.4717
11854TIP3    H257054   3.613   5.265  13.340  0.8957  0.7284 -2.0249
11855TIP3   OH257055   4.552   1.485  12.999 -0.0358  0.4919 -0.6940
11855TIP3    H157056   4.553   1.578  12.977  0.6192  0.7090  0.1953
11855TIP3    H257057   4.474   1.475  13.054  0.1484  0.6109 -0.4097
11856TIP3   OH257058   0.666   0.534  15.739 -0.4817 -0.5348 -0.3259
11856TIP3    H157059   0.656   0.613  15.791 -1.8669  0.5606 -2.1572
11856TIP3    H257060   0.743   0.491  15.776  0.5029  1.8050  0.5443
11857TIP3   OH257061   1.887   2.698  10.977  0.6103 -0.0158  0.2231
11857TIP3    H157062   1.917   2.763  11.040  0.9725 -0.7162  0.7865
11857TIP3    H257063   1.968   2.661  10.941  0.6073  2.8788 -3.4295
11858TIP3   OH257064   4.366   2.205  17.037 -0.2689 -0.0732 -0.0465
11858TIP3    H157065   4.324   2.124  17.067 -1.1234 -0.0644 -1.1777
11858TIP3    H257066   4.423   2.176  16.965  0.3228  0.1771  0.3118
11859TIP3   OH257067   3.157   4.301  13.251  0.3427 -0.2786 -0.1563
11859TIP3    H157068   3.221   4.257  13.194 -1.2022 -1.7668 -0.8327
11859TIP3    H257069   3.074   4.260  13.229 -1.0544  2.2967 -0.0043
11860TIP3   OH257070   2.523   1.417  13.132 -0.5220  0.0254  0.0501
11860TIP3    H157071   2.612   1.449  13.123 -0.2913 -1.0108 -1.8554
11860TIP3    H257072   2.531   1.338  13.187  0.2029 -1.6080 -2.2555
11861TIP3   OH257073   5.243   3.722   5.274 -0.3222 -0.5307  0.5949
11861TIP3    H157074   5.319   3.691   5.223  0.5898 -0.8215  2.0655
11861TIP3    H257075   5.167   3.687   5.227  0.5161 -1.3513 -0.2003
11862TIP3   OH257076   3.727   2.718  13.459 -0.2297 -0.0099  0.1097
11862TIP3    H157077   3.662   2.769  13.410  0.0177  0.2169  0.0134
11862TIP3    H257078   3.676   2.653  13.507 -0.7960  1.6917  1.9548
11863TIP3   OH257079   5.633   5.558   5.601  0.3195  0.3578 -0.3756
11863TIP3    H157080   5.722   5.594   5.600  1.5849 -2.4386  0.0748
11863TIP3    H257081   5.580   5.627   5.639  2.5347  1.7164  0.4745
11864TIP3   OH257082   1.927   1.253  14.516  0.3972  0.7326 -0.1452
11864TIP3    H157083   1.898   1.162  14.521  0.6927  0.6827  0.9429
11864TIP3    H257084   1.846   1.305  14.520  0.2949  0.5385  0.3238
11865TIP3   OH257085   1.627   5.910   0.030 -0.1378 -0.3636 -0.3137
11865TIP3    H157086   1.709   5.886   0.072  0.0850 -0.9546 -1.0647
11865TIP3    H257087   1.630   5.867  -0.056 -2.0843 -2.0695  0.3831
11866TIP3   OH257088   2.181   3.695   5.810  0.1087 -0.5631 -0.1618
11866TIP3    H157089   2.192   3.667   5.901 -2.5077 -1.2363  0.0319
11866TIP3    H257090   2.133   3.778   5.817  1.8682  0.5640 -0.9194
11867TIP3   OH257091   0.739   3.885  15.518  1.1636 -0.2997 -0.1167
11867TIP3    H157092   0.822   3.837  15.511  0.3995 -1.7931  0.5457
11867TIP3    H257093   0.763   3.977  15.509  2.7163 -0.7877 -1.3147
11868TIP3   OH257094   3.542   0.218   5.313 -0.3292  0.0414 -0.2105
11868TIP3    H157095   3.622   0.177   5.345 -0.2007 -0.2947 -0.9414
11868TIP3    H257096   3.551   0.218   5.218 -1.5391 -0.7081 -0.3487
11869TIP3   OH257097   3.211   3.667   5.495  0.3555  0.8172  0.1256
11869TIP3    H157098   3.201   3.649   5.589  1.1664 -2.0519 -0.2199
11869TIP3    H257099   3.305   3.682   5.484  0.2847  0.9961 -0.2423
11870TIP3   OH257100   4.170   6.457   4.941  0.6212 -0.0198 -0.4871
11870TIP3    H157101   4.173   6.552   4.937  0.5898  0.2140  2.5349
11870TIP3    H257102   4.229   6.434   5.013 -1.4107 -2.0140  0.6948
11871TIP3   OH257103   1.184   4.033  16.583  0.1741  0.1104 -0.2467
11871TIP3    H157104   1.143   4.059  16.500  1.3158  0.9237 -0.5896
11871TIP3    H257105   1.236   3.956  16.561 -1.8699 -1.5630  0.4067
11872TIP3   OH257106   5.576   2.112   2.108 -0.0028 -0.0877  0.0249
11872TIP3    H157107   5.492   2.113   2.155 -0.4739 -1.0431 -0.7319
11872TIP3    H257108   5.551   2.097   2.017  0.9069  1.4503 -0.4996
11873TIP3   OH257109   2.268   6.693   0.875  0.0482 -0.0882  0.0151
11873TIP3    H157110   2.287   6.699   0.968  0.3432  0.0474 -0.0509
11873TIP3    H257111   2.274   6.783   0.843  0.1562 -0.1604 -0.1725
11874TIP3   OH257112   1.645   6.204  14.449  0.4952  0.1214  0.3999
11874TIP3    H157113   1.609   6.118  14.472  1.4098 -0.0826  1.0965
11874TIP3    H257114   1.641   6.206  14.354 -0.0208 -0.4832  0.3980
11875TIP3   OH257115   2.597   5.917   5.976  0.4405 -0.1329  0.3945
11875TIP3    H157116   2.628   5.976   5.906  0.8270 -0.4733  0.2785
11875TIP3    H257117   2.630   5.957   6.057 -1.8272  1.4778  0.6233
11876TIP3   OH257118   2.470   3.651   6.010 -0.1716  0.0021  0.4768
11876TIP3    H157119   2.529   3.636   6.084 -0.3119  0.6757  0.7360
11876TIP3    H257120   2.383   3.659   6.050 -0.6517 -2.1168  0.0014
11877TIP3   OH257121   1.766   0.574  10.388 -0.6252 -0.4086  0.9277
11877TIP3    H157122   1.706   0.546  10.319  1.3133 -1.5473 -0.3806
11877TIP3    H257123   1.804   0.656  10.355 -0.4172 -0.4311  1.1082
11878TIP3   OH257124   0.196   1.136  16.215  0.5892 -0.3079  0.2762
11878TIP3    H157125   0.245   1.113  16.136 -0.8121  0.1168 -0.7455
11878TIP3    H257126   0.187   1.231  16.210 -1.9235 -0.5227 -0.5705
11879TIP3   OH257127   4.434   1.337   3.791  0.2603  0.1659 -0.1770
11879TIP3    H157128   4.400   1.412   3.838 -0.2088 -0.1906  0.0597
11879TIP3    H257129   4.513   1.369   3.748 -0.7506  1.2104 -1.3334
11880TIP3   OH257130   0.129   0.642  10.552  0.1709 -0.2824  0.5456
11880TIP3    H157131   0.064   0.623  10.620 -2.0111 -0.9203 -1.5420
11880TIP3    H257132   0.164   0.728  10.575  0.3430 -0.9433  3.0006
11881TIP3   OH257133   4.640   6.461   3.888 -0.4764  0.7507 -0.0195
11881TIP3    H157134   4.621   6.452   3.982 -1.1183 -0.1161 -0.2263
11881TIP3    H257135   4.591   6.539   3.862  0.0213  1.2266  0.4432
11882TIP3   OH257136   6.658   1.069   1.131  0.2417  0.5383  0.0703
11882TIP3    H157137   6.607   1.147   1.151 -2.3015 -1.2370  1.0656
11882TIP3    H257138   6.686   1.081   1.040 -1.9969  1.6184 -0.5423
11883TIP3   OH257139   6.041   6.277  11.871 -0.3749 -0.6850  0.3715
11883TIP3    H157140   6.047   6.202  11.811  0.6409 -0.2603 -0.0816
11883TIP3    H257141   6.131   6.289  11.903 -0.4738  0.4915  0.2518
11884TIP3   OH257142   0.070   3.744   4.806  0.2319 -0.4255  0.4959
11884TIP3    H157143   0.005   3.789   4.752  0.4671 -1.5361 -0.7697
11884TIP3    H257144   0.031   3.659   4.826  0.8736 -0.7040  0.5934
11885TIP3   OH257145   3.475   3.961   1.438 -0.7071  0.2036  0.2524
11885TIP3    H157146   3.395   4.004   1.408 -0.1691  1.7893  0.9898
11885TIP3    H257147   3.463   3.951   1.532  0.0981  0.7888  0.4267
11886TIP3   OH257148   4.138   3.770   0.963 -0.0119 -0.2302 -0.6098
11886TIP3    H157149   4.176   3.826   0.895 -0.9371  2.2831  0.8314
11886TIP3    H257150   4.213   3.727   1.003  1.1385  2.3114  0.1797
11887TIP3   OH257151   5.387   0.782   3.730 -0.1218 -0.0037 -0.7417
11887TIP3    H157152   5.443   0.754   3.658 -0.1550 -0.9870 -0.4011
11887TIP3    H257153   5.441   0.770   3.808  0.0648  1.4688 -0.6211
11888TIP3   OH257154   5.310   5.521  17.150 -0.0703 -0.1874  0.6455
11888TIP3    H157155   5.362   5.495  17.073 -2.3068  0.4256 -1.2063
11888TIP3    H257156   5.374   5.525  17.221  2.0533 -1.2859 -1.0330
11889TIP3   OH257157   6.132   2.744  10.867  0.4515 -0.2078  0.3126
11889TIP3    H157158   6.193   2.674  10.889  1.4371  0.5513  0.0723
11889TIP3    H257159   6.045   2.706  10.880  0.9756 -1.2048  0.9911
11890TIP3   OH257160   3.383   3.320   0.428 -0.2599 -0.4306  0.2119
11890TIP3    H157161   3.465   3.272   0.418  0.3531  0.6410 -0.1045
11890TIP3    H257162   3.390   3.361   0.515 -0.6068 -0.6134  0.3258
11891TIP3   OH257163   0.899   2.624  16.153 -0.0508 -0.4898  0.1658
11891TIP3    H157164   0.805   2.625  16.134 -0.3267 -1.8860  1.2760
11891TIP3    H257165   0.941   2.635  16.068 -1.1727  2.7827 -0.0881
11892TIP3   OH257166   3.804   6.228  15.478  0.2280 -0.0282  0.0534
11892TIP3    H157167   3.888   6.183  15.487  0.0396 -0.2139  0.9532
11892TIP3    H257168   3.775   6.243  15.568  0.5263  2.3699 -0.1900
11893TIP3   OH257169   3.651   4.241   1.996  0.4552 -0.1709 -0.7035
11893TIP3    H157170   3.603   4.159   1.984  0.1070  0.0069 -0.5528
11893TIP3    H257171   3.743   4.217   1.986  0.6635 -1.2295  2.5280
11894TIP3   OH257172   0.780   1.925  16.828 -0.2033  0.1771 -0.1527
11894TIP3    H157173   0.859   1.882  16.862 -0.1659  1.8498  2.0893
11894TIP3    H257174   0.803   1.951  16.739  0.6252 -2.1182 -0.6896
11895TIP3   OH257175   2.123   2.324   1.920 -0.1337  0.1900 -0.5425
11895TIP3    H157176   2.190   2.259   1.940 -0.3611 -0.0567 -0.5784
11895TIP3    H257177   2.084   2.294   1.838  0.5913  1.0321 -1.2149
11896TIP3   OH257178   0.999   1.650  10.808  0.3808  0.1934 -0.1728
11896TIP3    H157179   0.947   1.649  10.728 -0.8253  0.2791  0.5910
11896TIP3    H257180   1.049   1.568  10.805 -1.6430 -1.1435  0.2249
11897TIP3   OH257181   4.923   1.828  10.510  0.4403 -0.6340 -0.0165
11897TIP3    H157182   4.919   1.813  10.605 -1.9274 -1.5446 -0.1905
11897TIP3    H257183   4.942   1.922  10.501  2.6419 -0.8888  1.2846
11898TIP3   OH257184   5.961   6.838  12.252 -0.6127  0.6496 -0.6523
11898TIP3    H157185   6.031   6.901  12.237  0.3391 -0.2430 -0.1557
11898TIP3    H257186   5.989   6.790  12.330 -1.7619  0.2323 -0.4712
11899TIP3   OH257187   2.469   1.527   3.316 -0.3854 -0.1627 -0.2101
11899TIP3    H157188   2.479   1.432   3.314  0.4869 -0.0760 -1.2165
11899TIP3    H257189   2.558   1.559   3.335 -0.7017  0.4510  0.2586
11900TIP3   OH257190   3.564   2.492   1.928 -0.5021  0.1252 -0.6767
11900TIP3    H157191   3.504   2.429   1.970  1.3475 -1.5020 -0.3129
11900TIP3    H257192   3.633   2.506   1.992  2.1875 -2.0829 -2.8310
11901TIP3   OH257193   5.644   5.044  12.201 -0.3000  0.0490 -0.9459
11901TIP3    H157194   5.648   5.140  12.202 -1.1289  0.0838 -1.0640
11901TIP3    H257195   5.736   5.017  12.197  0.3103  0.7819  3.1347
11902TIP3   OH257196   1.307   5.000   4.849 -1.1159 -0.2680 -0.5774
11902TIP3    H157197   1.340   5.036   4.931 -0.4592 -0.7432 -0.6235
11902TIP3    H257198   1.280   4.911   4.870 -1.4639 -0.2076 -0.7573
11903TIP3   OH257199   5.155   6.264   4.684 -0.6346 -0.4659 -0.0449
11903TIP3    H157200   5.180   6.211   4.609  0.9153  1.3439 -0.8816
11903TIP3    H257201   5.214   6.236   4.754 -2.4881 -2.5996  0.8166
11904TIP3   OH257202   4.062   0.948  13.509  0.4777  0.0905  0.2450
11904TIP3    H157203   3.999   0.913  13.571 -2.8617  1.0062 -2.3498
11904TIP3    H257204   4.089   0.872  13.457 -0.8848  0.1138 -0.5373
11905TIP3   OH257205   3.371   0.771  14.363 -0.0437  0.3512 -0.1241
11905TIP3    H157206   3.278   0.783  14.383 -0.6133 -4.9393  2.0804
11905TIP3    H257207   3.373   0.692  14.308  3.1753  0.1771  0.0654
11906TIP3   OH257208   6.345   2.459   2.733  0.1033  0.1402 -0.0263
11906TIP3    H157209   6.356   2.553   2.749  1.8176  0.0602 -0.5304
11906TIP3    H257210   6.306   2.454   2.646  0.6363  0.3872 -0.2854
11907TIP3   OH257211   4.260   1.233   5.917  0.0822 -0.2354  0.5773
11907TIP3    H157212   4.228   1.159   5.969 -0.2038  0.5944  1.5946
11907TIP3    H257213   4.303   1.291   5.980  0.4074  0.4208 -0.2255
11908TIP3   OH257214   5.626   5.658  12.545  0.6487  0.2707 -0.1687
11908TIP3    H157215   5.567   5.680  12.472 -0.2469 -0.7285  0.2274
11908TIP3    H257216   5.620   5.563  12.553  1.0395  0.3246  0.9524
11909TIP3   OH257217   1.214   1.939  13.693 -0.6650  0.6372 -0.3336
11909TIP3    H157218   1.129   1.914  13.728 -1.0005  2.1066 -0.0752
11909TIP3    H257219   1.269   1.951  13.770  0.2869 -1.8230 -0.5137
11910TIP3   OH257220   1.601   3.182  14.507 -0.5115 -0.5683  0.0257
11910TIP3    H157221   1.548   3.121  14.456 -0.7819  0.1644 -0.5807
11910TIP3    H257222   1.540   3.249  14.536 -0.4495 -1.1919  1.7002
11911TIP3   OH257223   4.800   1.601   4.752 -0.3171  0.1996  0.0706
11911TIP3    H157224   4.832   1.529   4.806  0.1337  1.4217  1.5271
11911TIP3    H257225   4.705   1.597   4.759 -0.2587  0.4883  1.1984
11912TIP3   OH257226   6.715   0.919   0.470 -0.2396 -0.4807  0.0857
11912TIP3    H157227   6.674   0.979   0.408 -2.6160 -1.8978  0.1429
11912TIP3    H257228   6.780   0.972   0.516 -0.5578  1.3852 -1.4849
11913TIP3   OH257229   5.863   3.733  12.546 -0.7599  0.0248 -0.3595
11913TIP3    H157230   5.934   3.716  12.607 -0.0953  1.2979 -0.7506
11913TIP3    H257231   5.823   3.815  12.576 -0.1109  0.9399 -1.8647
11914TIP3   OH257232   5.820   3.956  17.061  0.4931 -0.0240 -0.3921
11914TIP3    H157233   5.880   4.021  17.099 -0.4880  1.7647 -1.7354
11914TIP3    H257234   5.743   3.958  17.118 -0.8208  2.3798 -2.0760
11915TIP3   OH257235   6.355   4.121  10.801 -0.1720 -0.5563 -0.0596
11915TIP3    H157236   6.311   4.176  10.736 -2.6599 -0.8399  1.2521
11915TIP3    H257237   6.401   4.183  10.858  0.9787 -0.2276 -1.2974
11916TIP3   OH257238   0.447   1.428   3.524 -0.0994  0.2240 -0.0219
11916TIP3    H157239   0.421   1.495   3.587 -0.9242 -0.7976  0.7717
11916TIP3    H257240   0.478   1.355   3.578 -1.0507 -0.7672 -0.7551
11917TIP3   OH257241   4.100   2.887   4.575 -0.0588  0.0321 -0.6123
11917TIP3    H157242   4.049   2.912   4.498  1.2902 -0.8433 -1.8282
11917TIP3    H257243   4.191   2.890   4.547  0.4249 -1.2332  0.6633
11918TIP3   OH257244   2.031   2.780   5.795  0.2366  0.2469 -0.0164
11918TIP3    H157245   1.996   2.839   5.862  1.7942  1.2186 -0.0141
11918TIP3    H257246   2.122   2.766   5.820  0.3456 -0.8538 -0.9381
11919TIP3   OH257247   3.049   5.408   1.643 -0.3585 -0.0252  0.2914
11919TIP3    H157248   3.063   5.475   1.709  0.7969 -0.7486  0.8205
11919TIP3    H257249   3.123   5.348   1.654  0.4679  0.3699 -2.3251
11920TIP3   OH257250   0.839   1.769  14.214 -0.6587 -0.0003  0.5297
11920TIP3    H157251   0.759   1.726  14.245 -0.9844  0.5404  0.4547
11920TIP3    H257252   0.813   1.861  14.200  0.5404  0.7400  2.7348
11921TIP3   OH257253   2.602   2.289   4.048 -0.3152 -0.0547 -1.2497
11921TIP3    H157254   2.592   2.301   4.143 -1.0894  0.8306 -1.4250
11921TIP3    H257255   2.527   2.235   4.023 -1.3939  1.5580 -1.6651
11922TIP3   OH257256   2.053   2.587   2.048 -0.3094  0.2841 -0.1941
11922TIP3    H157257   1.992   2.568   2.120 -0.0940 -0.1697 -0.1283
11922TIP3    H257258   2.074   2.501   2.011 -1.8923  0.6269 -2.0367
11923TIP3   OH257259   1.341   6.011  14.496  0.1610 -0.0407 -0.1348
11923TIP3    H157260   1.423   5.995  14.543 -0.2194 -0.4486  0.4023
11923TIP3    H257261   1.305   5.924  14.480  0.1803  0.1066 -1.0013
11924TIP3   OH257262   5.328   6.026  12.475  0.0440  0.1930  0.1117
11924TIP3    H157263   5.260   6.058  12.533 -0.2196  0.4853 -0.3573
11924TIP3    H257264   5.307   6.062  12.389  0.0616 -0.7540 -0.3073
11925TIP3   OH257265   3.140   6.672   5.935 -0.1000 -0.3227 -0.1190
11925TIP3    H157266   3.161   6.668   5.842  2.3122  0.2537  0.3408
11925TIP3    H257267   3.195   6.741   5.970 -3.2710  1.7549  1.2478
11926TIP3   OH257268   4.438   4.662  15.745 -0.4837  0.6397 -0.4402
11926TIP3    H157269   4.517   4.609  15.752  0.2906  1.9761  3.4544
11926TIP3    H257270   4.373   4.616  15.798 -1.0497  1.5659 -0.3008
11927TIP3   OH257271   1.896   3.789  12.399  0.5311 -0.1284  0.5468
11927TIP3    H157272   1.940   3.874  12.401  2.3612 -0.7587 -3.3875
11927TIP3    H257273   1.803   3.811  12.388  1.1368  1.5469 -2.3582
11928TIP3   OH257274   6.627   0.186   1.007  0.5735 -0.2244 -0.3726
11928TIP3    H157275   6.662   0.244   0.939  0.9938 -0.6967 -0.5704
11928TIP3    H257276   6.654   0.227   1.089 -0.6095  0.7654 -0.4622
11929TIP3   OH257277   3.228   4.990   2.883 -0.3578  0.1984  0.0299
11929TIP3    H157278   3.190   4.910   2.918 -0.0557  0.2122  0.3952
11929TIP3    H257279   3.308   4.962   2.838  1.1875  0.5424  2.3648
11930TIP3   OH257280   0.475   5.965  13.040 -0.3108 -0.2733 -0.3152
11930TIP3    H157281   0.563   5.934  13.061  0.2098  1.6219  0.5684
11930TIP3    H257282   0.422   5.886  13.036  1.3959 -1.4549 -0.7263
11931TIP3   OH257283   0.259   2.543  15.981 -0.6682  0.1361  0.0936
11931TIP3    H157284   0.281   2.608  16.047 -0.5958 -1.9790  2.2666
11931TIP3    H257285   0.165   2.529  15.990 -0.5174 -0.7797  0.3752
11932TIP3   OH257286   2.880   1.156  10.488 -0.0815  0.6786  0.2153
11932TIP3    H157287   2.798   1.175  10.444  0.1159  2.1617  0.4254
11932TIP3    H257288   2.946   1.205  10.440  0.5781  0.0921  0.4908
11933TIP3   OH257289   3.754   2.286   4.911  0.5027 -0.2085 -0.1149
11933TIP3    H157290   3.815   2.347   4.952 -0.7528  1.2354 -0.2682
11933TIP3    H257291   3.711   2.242   4.984 -0.6650  1.2776  0.1667
11934TIP3   OH257292   3.609   6.006  12.551 -0.5637  0.0227 -0.7487
11934TIP3    H157293   3.646   6.017  12.463  0.3622  0.1857 -0.3490
11934TIP3    H257294   3.514   6.012  12.538 -0.3869  2.4319 -1.4162
11935TIP3   OH257295   0.987   1.451   1.045 -0.2215 -0.0708 -0.1233
11935TIP3    H157296   1.073   1.440   1.085 -0.7501 -1.0703  0.7939
11935TIP3    H257297   0.964   1.364   1.012  0.2882  0.7487 -2.9045
11936TIP3   OH257298   3.770   3.255   0.085  0.6591  0.8953  0.0079
11936TIP3    H157299   3.822   3.182   0.054 -0.1664 -0.9196  2.5670
11936TIP3    H257300   3.688   3.249   0.036 -0.3438 -1.4604  1.7805
11937TIP3   OH257301   0.855   0.925   1.523 -0.3178  0.4176  0.0040
11937TIP3    H157302   0.805   0.867   1.466  2.3516  1.3425 -3.7042
11937TIP3    H257303   0.926   0.870   1.557 -1.5497  0.0232  2.0568
11938TIP3   OH257304   3.813   4.005  13.700 -0.3039  0.7306  0.1894
11938TIP3    H157305   3.858   4.045  13.774  0.5144 -1.3316  0.8792
11938TIP3    H257306   3.759   4.075  13.664 -0.0634  2.0335  2.2007
11939TIP3   OH257307   4.353   0.087  11.690  0.4865 -0.9349 -0.5805
11939TIP3    H157308   4.382   0.163  11.741  0.5407 -0.9274 -0.6227
11939TIP3    H257309   4.426   0.026  11.694 -0.4938 -2.0866  1.6169
11940TIP3   OH257310   5.395   2.721  13.932  0.2560  0.3051 -0.3514
11940TIP3    H157311   5.379   2.651  13.996  0.1356  1.0194  0.4084
11940TIP3    H257312   5.401   2.801  13.984  1.8599  0.6839 -1.0632
11941TIP3   OH257313   2.778   3.294  10.722  0.7216  0.0942  0.2145
11941TIP3    H157314   2.722   3.274  10.647 -1.5374  1.7609  1.3283
11941TIP3    H257315   2.840   3.360  10.689 -0.5842  1.2008 -0.1328
11942TIP3   OH257316   6.802   4.601   0.270  0.6402  0.3675  0.1027
11942TIP3    H157317   6.888   4.620   0.233  1.0133  0.1943  0.8644
11942TIP3    H257318   6.788   4.671   0.333 -0.1377  0.8495 -0.5798
11943TIP3   OH257319   3.131   0.012   4.305 -0.5950 -0.3937 -0.1457
11943TIP3    H157320   3.121  -0.078   4.274  2.1361 -0.4149 -1.2844
11943TIP3    H257321   3.184   0.005   4.385  0.6713  0.2196 -0.8968
11944TIP3   OH257322   5.357   5.904   4.554 -0.3730 -0.0181 -0.1421
11944TIP3    H157323   5.420   5.975   4.539  0.4760 -0.7812 -0.2808
11944TIP3    H257324   5.400   5.847   4.617 -0.9540 -0.5294 -0.1962
11945TIP3   OH257325   3.029   2.908  11.703  0.0088 -0.2147 -0.2498
11945TIP3    H157326   2.970   2.878  11.773  1.5771  0.1517  1.3090
11945TIP3    H257327   3.027   3.003  11.710  1.5891 -0.2136  0.5768
11946TIP3   OH257328   5.653   0.408   3.206 -0.4243 -0.4587 -0.9364
11946TIP3    H157329   5.699   0.351   3.268 -1.9327  0.6569  1.3801
11946TIP3    H257330   5.576   0.358   3.180  0.0961 -0.8417 -1.7629
11947TIP3   OH257331   0.779   6.171  11.432 -0.2281 -0.5970  0.7590
11947TIP3    H157332   0.777   6.203  11.342 -1.8132  0.7001  1.1943
11947TIP3    H257333   0.846   6.224  11.475 -0.8807  0.2181  0.7980
11948TIP3   OH257334   6.503   1.462   3.758  0.3102  0.0603  0.0559
11948TIP3    H157335   6.556   1.501   3.827 -0.6065 -2.2539  2.1955
11948TIP3    H257336   6.566   1.412   3.706  0.6067 -0.6043  1.0322
11949TIP3   OH257337   3.653   1.725  14.479 -0.2167 -0.7984 -0.1530
11949TIP3    H157338   3.738   1.684  14.468 -0.0077 -0.1225 -1.2544
11949TIP3    H257339   3.672   1.818  14.488 -0.7779 -0.7570  0.7513
11950TIP3   OH257340   3.443   2.870   2.944 -0.6236 -0.1598  0.3176
11950TIP3    H157341   3.464   2.777   2.935 -1.9497 -1.1343  4.6569
11950TIP3    H257342   3.525   2.915   2.923  1.1745 -2.6174  1.4828
11951TIP3   OH257343   5.369   2.782  17.167 -0.2567  0.0820 -0.1371
11951TIP3    H157344   5.329   2.835  17.235 -0.0664 -0.7495  0.6483
11951TIP3    H257345   5.336   2.818  17.085  0.1901  1.6558  0.3427
11952TIP3   OH257346   4.196   5.260   2.452  0.4522 -0.9251 -0.5022
11952TIP3    H157347   4.164   5.292   2.367 -0.0184  0.3067  0.1134
11952TIP3    H257348   4.188   5.165   2.446 -2.3942 -0.7529 -0.7693
11953TIP3   OH257349   5.793   4.793  16.704  0.1191 -0.1180 -0.1516
11953TIP3    H157350   5.733   4.738  16.755  1.0167 -1.2411 -0.2641
11953TIP3    H257351   5.875   4.744  16.702 -0.1558 -0.7185 -3.5930
11954TIP3   OH257352   5.742   0.082   6.674 -0.6755  0.4343 -0.0460
11954TIP3    H157353   5.775   0.093   6.763 -3.2137 -1.7260  1.3138
11954TIP3    H257354   5.720   0.170   6.645  1.7857  1.3848  0.7233
11955TIP3   OH257355   2.836   3.624   2.620  0.6172  0.0664  0.3661
11955TIP3    H157356   2.798   3.578   2.545  0.9409  0.2442  0.0923
11955TIP3    H257357   2.786   3.705   2.626  0.6396  0.0842  0.3032
11956TIP3   OH257358   1.028   2.060   1.913 -0.1047  0.0946  0.1347
11956TIP3    H157359   1.003   2.040   2.003  0.8814  1.4344  0.7521
11956TIP3    H257360   1.016   1.978   1.865 -0.2603 -0.7521  1.5679
11957TIP3   OH257361   6.219   3.811   4.328  0.0504  0.5284 -0.0382
11957TIP3    H157362   6.232   3.846   4.240  1.1447 -0.8538 -0.4767
11957TIP3    H257363   6.261   3.876   4.386 -0.2897  1.2303 -0.5681
11958TIP3   OH257364   4.577   0.439  16.590 -0.7953 -0.1387 -0.0589
11958TIP3    H157365   4.524   0.377  16.641 -0.3819  0.5755  1.2663
11958TIP3    H257366   4.656   0.452  16.642 -2.1501  3.8449  1.2992
11959TIP3   OH257367   4.199   0.859  15.956  0.3912  1.0170 -0.8816
11959TIP3    H157368   4.256   0.931  15.983  1.1761 -0.9464  3.4995
11959TIP3    H257369   4.125   0.863  16.015  0.3373 -1.5402 -0.6597
11960TIP3   OH257370   5.023   4.849  12.012  0.6919  0.2562 -0.2218
11960TIP3    H157371   4.935   4.858  11.975  1.4730  1.1332 -1.9857
11960TIP3    H257372   5.055   4.939  12.021  2.2077 -0.0618 -1.7396
11961TIP3   OH257373   5.801   5.578   2.630  0.4740  0.0817  0.1728
11961TIP3    H157374   5.831   5.587   2.720 -0.0971 -0.6971  0.4589
11961TIP3    H257375   5.869   5.619   2.577  1.1662 -0.0903  0.9104
11962TIP3   OH257376   3.586   0.715   6.697  0.5717  0.3860  0.1637
11962TIP3    H157377   3.607   0.795   6.745 -2.7144  1.3082  0.3178
11962TIP3    H257378   3.645   0.649   6.733  1.8101  2.2082  1.6695
11963TIP3   OH257379   2.825   3.652  11.302  0.0301 -0.5035 -0.0645
11963TIP3    H157380   2.801   3.603  11.223 -1.1928  0.1839 -0.1454
11963TIP3    H257381   2.741   3.679  11.339  0.6536  0.7279  0.4948
11964TIP3   OH257382   3.026   5.866  12.371  0.0177 -0.5238 -0.3001
11964TIP3    H157383   3.014   5.773  12.393 -0.9605 -0.5215 -0.8045
11964TIP3    H257384   3.121   5.876  12.364  0.4400 -0.6612  3.3021
11965TIP3   OH257385   3.049   4.151  16.729  0.4137 -0.1977  0.0013
11965TIP3    H157386   3.114   4.145  16.799  0.2440 -0.0464  0.1738
11965TIP3    H257387   3.018   4.061  16.718 -3.0029  0.2693  3.4081
11966TIP3   OH257388   1.675   1.557   0.288  0.2297 -0.0801 -0.4798
11966TIP3    H157389   1.656   1.633   0.233  0.3853 -0.6196 -1.2897
11966TIP3    H257390   1.707   1.595   0.370  1.8141  0.7216 -1.4214
11967TIP3   OH257391   3.640   5.374  11.834 -0.2626 -0.7000 -0.2208
11967TIP3    H157392   3.591   5.424  11.900 -0.3636 -1.4393  0.2754
11967TIP3    H257393   3.573   5.347  11.771  0.1599  2.1337 -2.0757
11968TIP3   OH257394   1.782   3.775   0.091 -0.0117  0.3199  0.8971
11968TIP3    H157395   1.826   3.732   0.164  1.2422  0.9949  0.5655
11968TIP3    H257396   1.773   3.706   0.025 -0.5723 -0.1294  1.4359
11969TIP3   OH257397   3.471   5.857   4.622 -0.7287 -0.3828  0.4348
11969TIP3    H157398   3.485   5.945   4.657 -2.1009  0.4550 -1.0267
11969TIP3    H257399   3.496   5.799   4.694  1.4127  1.1266  1.0345
11970TIP3   OH257400   5.059   6.598   2.641  0.1840  0.9079  0.3238
11970TIP3    H157401   5.018   6.666   2.694 -0.2052  1.0248 -0.1139
11970TIP3    H257402   5.059   6.521   2.696  1.9198  1.5947  1.3612
11971TIP3   OH257403   6.732   2.124   2.836 -0.1934  0.0854  0.1139
11971TIP3    H157404   6.822   2.136   2.866 -0.0309 -1.9101  0.6242
11971TIP3    H257405   6.739   2.053   2.771 -1.0262  1.9282 -2.0998
11972TIP3   OH257406   5.655   1.070   3.668  0.3344 -0.8436 -0.2307
11972TIP3    H157407   5.625   1.161   3.676 -1.0312 -1.3447  0.7602
11972TIP3    H257408   5.702   1.068   3.585 -0.8796  0.4307 -1.0023
11973TIP3   OH257409   4.446   0.206  10.981 -0.2711  0.2259  0.4277
11973TIP3    H157410   4.525   0.255  11.002  0.5760 -1.0120  0.2381
11973TIP3    H257411   4.403   0.257  10.913  0.2128  1.0627  0.7422
11974TIP3   OH257412   2.294   4.281  11.901  0.1124  0.2956  0.1752
11974TIP3    H157413   2.223   4.344  11.898  0.7470  1.0246  0.1866
11974TIP3    H257414   2.253   4.199  11.930 -1.1050  0.1378 -1.8556
11975TIP3   OH257415   1.444   3.541  17.189  0.2535 -0.1496  0.5780
11975TIP3    H157416   1.405   3.457  17.163 -0.8666  1.1548 -2.4792
11975TIP3    H257417   1.384   3.607  17.153  1.8795  1.9723  1.5538
11976TIP3   OH257418   0.181   2.295  12.067  0.2402  0.1979  0.1678
11976TIP3    H157419   0.113   2.267  12.006  0.2523 -0.2658  0.3670
11976TIP3    H257420   0.245   2.340  12.013 -0.4983  1.1513  0.0504
11977TIP3   OH257421   2.302   3.808  11.829 -0.3343  0.4137 -0.4443
11977TIP3    H157422   2.381   3.804  11.882  1.1947  3.1106 -2.2632
11977TIP3    H257423   2.253   3.882  11.865 -1.3210 -0.3223 -0.2441
11978TIP3   OH257424   5.984   4.165   5.663 -0.1543 -0.0421 -0.0079
11978TIP3    H157425   5.918   4.222   5.701  0.9522 -1.3589  4.5905
11978TIP3    H257426   6.065   4.216   5.666  0.1386 -0.5200  0.4913
11979TIP3   OH257427   3.806   3.085   0.697  0.5154 -0.6049  0.3819
11979TIP3    H157428   3.778   3.042   0.617  2.5707 -1.0497 -0.1474
11979TIP3    H257429   3.835   3.014   0.754 -0.5223 -0.2555  1.3813
11980TIP3   OH257430   3.504   5.738  16.913  0.1619  0.4754 -0.0084
11980TIP3    H157431   3.592   5.764  16.941  0.1495  1.8551 -1.1587
11980TIP3    H257432   3.514   5.648  16.884  1.1697  0.5674  0.0094
11981TIP3   OH257433   6.466   3.144   2.945  0.2584  0.0361  0.6952
11981TIP3    H157434   6.496   3.167   2.857  0.2549 -0.6495  0.5087
11981TIP3    H257435   6.371   3.138   2.937  0.3619 -1.4918  0.3753
11982TIP3   OH257436   6.212   5.341   5.145  0.4779 -0.3108  0.0965
11982TIP3    H157437   6.220   5.289   5.225 -1.9076  1.2928  1.4660
11982TIP3    H257438   6.223   5.277   5.074 -0.2636 -2.3019  1.6889
11983TIP3   OH257439   4.381   1.022  11.813  0.2214  0.6428  0.4841
11983TIP3    H157440   4.336   1.014  11.897  0.3837  1.3711  0.6530
11983TIP3    H257441   4.346   0.951  11.760 -1.2098  1.2468  0.5733
11984TIP3   OH257442   0.757   3.222   3.932  0.3694  0.4752 -0.3900
11984TIP3    H157443   0.758   3.318   3.933  2.2944  0.5149 -1.0357
11984TIP3    H257444   0.849   3.197   3.945 -0.4414 -1.3793  2.8279
11985TIP3   OH257445   4.809   1.836  17.045  0.2823  0.1615  0.0043
11985TIP3    H157446   4.880   1.900  17.052 -1.0492  1.5703  1.8300
11985TIP3    H257447   4.842   1.758  17.090  1.0188  0.4485 -0.0304
11986TIP3   OH257448   4.508   0.904   2.862 -0.3435  0.1308  0.1561
11986TIP3    H157449   4.420   0.916   2.897 -0.9413  1.3824 -1.6377
11986TIP3    H257450   4.565   0.945   2.928 -1.0294 -0.9488  1.4716
11987TIP3   OH257451   0.004   1.216  11.435  0.3043  0.5342 -0.1103
11987TIP3    H157452  -0.034   1.226  11.348  0.5575 -1.6054 -0.5180
11987TIP3    H257453   0.096   1.240  11.425  0.5686 -0.6515 -0.7021
11988TIP3   OH257454   6.307   0.790  16.912 -0.5456 -0.0897  0.2111
11988TIP3    H157455   6.353   0.809  16.830 -1.1168  0.2804 -0.0304
11988TIP3    H257456   6.261   0.871  16.934 -0.1782 -0.1000  1.0489
11989TIP3   OH257457   4.951   0.713  16.090  0.1962 -0.2726 -0.0517
11989TIP3    H157458   5.005   0.777  16.043 -0.2066 -1.2564 -1.9648
11989TIP3    H257459   4.870   0.708  16.039  0.4444 -2.7155 -0.3042
11990TIP3   OH257460   3.775   6.367  11.614  1.0146 -0.2987 -0.4717
11990TIP3    H157461   3.742   6.302  11.552  1.3858 -0.1945 -0.7796
11990TIP3    H257462   3.835   6.421  11.563  0.0719  0.8279 -0.4412
11991TIP3   OH257463   1.596   3.658   1.611  1.2603  0.3931  0.0507
11991TIP3    H157464   1.555   3.745   1.605 -0.1094 -0.1198  1.3577
11991TIP3    H257465   1.539   3.602   1.559 -0.9762 -0.7126  3.3830
11992TIP3   OH257466   3.056   4.536   0.029 -0.0285 -0.2809  1.2135
11992TIP3    H157467   3.067   4.584  -0.053  0.2104  2.0513  2.5154
11992TIP3    H257468   3.141   4.543   0.073 -0.4941 -0.4690  2.1800
11993TIP3   OH257469   3.011   2.139  11.852 -0.0838 -0.4197 -0.0452
11993TIP3    H157470   2.977   2.227  11.837 -1.8864 -1.3628 -2.1194
11993TIP3    H257471   3.070   2.122  11.779  0.3731 -0.8797  0.4190
11994TIP3   OH257472   2.439   5.728  11.359  0.0785  0.2941  0.5853
11994TIP3    H157473   2.410   5.726  11.450  1.7280  1.8626  1.2162
11994TIP3    H257474   2.533   5.711  11.364  0.2669  0.8212 -0.7805
11995TIP3   OH257475   0.134   2.802  15.335  0.3702 -0.1430 -0.0601
11995TIP3    H157476   0.186   2.866  15.383 -2.1702  1.0675  1.2486
11995TIP3    H257477   0.082   2.757  15.402 -0.1890 -1.4038 -1.2761
11996TIP3   OH257478   2.182   0.568   2.695 -0.3805 -0.3730 -0.2650
11996TIP3    H157479   2.255   0.518   2.731  0.2559 -0.0403 -1.0566
11996TIP3    H257480   2.223   0.642   2.651 -1.2789  0.5315  0.3857
11997TIP3   OH257481   3.159   1.639   4.716  0.5164 -0.2701  0.3250
11997TIP3    H157482   3.242   1.609   4.680 -0.1941 -1.8931 -0.0517
11997TIP3    H257483   3.097   1.634   4.643 -0.2123 -0.4563  0.9393
11998TIP3   OH257484   1.168   1.313   2.230  0.2664 -0.1998  0.2322
11998TIP3    H157485   1.233   1.383   2.219 -3.2630  3.4952  0.6070
11998TIP3    H257486   1.194   1.247   2.166  2.6790  2.4426 -1.8210
11999TIP3   OH257487   5.733   6.051   5.504 -0.5045  0.1029  0.4704
11999TIP3    H157488   5.823   6.036   5.530 -0.5189  0.2073  0.5831
11999TIP3    H257489   5.697   6.106   5.573 -0.7945 -0.3326  0.6682
12000TIP3   OH257490   5.094   1.067  14.553  0.3775  0.1915  0.0935
12000TIP3    H157491   5.130   0.990  14.508 -0.3516  0.1816 -0.4819
12000TIP3    H257492   5.171   1.110  14.591  0.8245 -0.6874  0.2289
12001TIP3   OH257493   2.005   1.114  13.156  0.3197 -0.1077 -0.2229
12001TIP3    H157494   2.101   1.109  13.158  0.4670  0.5680  4.1525
12001TIP3    H257495   1.986   1.163  13.076  3.3759 -2.3562 -2.5690
12002TIP3   OH257496   0.889   3.144   5.789 -0.1050 -0.0445 -0.2264
12002TIP3    H157497   0.970   3.183   5.758  0.5870 -1.0204  0.2802
12002TIP3    H257498   0.854   3.098   5.713 -0.8468  1.3984 -0.7809
12003TIP3   OH257499   0.889   2.666   6.328  0.4260  0.0766  0.1811
12003TIP3    H157500   0.870   2.628   6.243  2.0587  3.1396 -1.7253
12003TIP3    H257501   0.918   2.591   6.382 -3.7168 -2.4899 -0.7504
12004TIP3   OH257502   3.898   0.916   2.608  0.1915 -0.1022 -0.3252
12004TIP3    H157503   3.819   0.862   2.616 -0.7795  1.3719  0.5232
12004TIP3    H257504   3.966   0.864   2.651 -0.8790 -0.3735  1.1312
12005TIP3   OH257505   0.278   3.020  16.108 -0.7366 -0.1196  0.6333
12005TIP3    H157506   0.213   3.011  16.039 -0.7455 -0.9994  0.7483
12005TIP3    H257507   0.247   3.094  16.161 -1.7553 -0.6543  0.8039
12006TIP3   OH257508   6.715   3.514   4.846 -0.0467 -0.1690 -0.3371
12006TIP3    H157509   6.694   3.428   4.885  0.7224  1.3017  3.8499
12006TIP3    H257510   6.631   3.545   4.811 -0.6459 -1.9840 -0.6388
12007TIP3   OH257511   3.498   4.609  12.625 -0.1127 -0.6087  0.3283
12007TIP3    H157512   3.523   4.517  12.617 -1.2395 -0.9271  0.1860
12007TIP3    H257513   3.407   4.606  12.655  0.0550  0.4705  1.0120
12008TIP3   OH257514   4.991   1.290   2.268  0.7146 -0.2552 -0.7328
12008TIP3    H157515   4.997   1.321   2.359  2.6487 -0.4357 -0.7609
12008TIP3    H257516   4.915   1.336   2.233 -0.6730 -0.8935  1.2352
12009TIP3   OH257517   0.480   3.124  10.956 -0.0537 -0.2538  0.5271
12009TIP3    H157518   0.442   3.203  10.993 -1.2241 -0.3756 -0.3739
12009TIP3    H257519   0.549   3.156  10.897 -0.1186  0.0640  0.6236
12010TIP3   OH257520   4.036   1.177   0.887  0.4836  0.4673 -0.2951
12010TIP3    H157521   4.007   1.210   0.972  0.8303 -0.2578  0.1160
12010TIP3    H257522   3.993   1.233   0.823  1.4638  2.0690  0.3860
12011TIP3   OH257523   2.711   4.240   2.506 -0.2187 -0.1637 -0.2160
12011TIP3    H157524   2.678   4.286   2.583  0.5972 -0.5401  0.3725
12011TIP3    H257525   2.637   4.189   2.474 -0.4738 -0.2533  0.5133
12012TIP3   OH257526   1.802   1.128  17.181 -0.6940 -0.2982 -0.4725
12012TIP3    H157527   1.807   1.033  17.171  2.7360 -0.2053 -0.7273
12012TIP3    H257528   1.803   1.143  17.276 -1.1198 -0.4893 -0.4364
12013TIP3   OH257529   4.364   5.539   5.336  0.2391 -0.2459  0.3499
12013TIP3    H157530   4.417   5.538   5.415  0.5171  0.4368  0.1743
12013TIP3    H257531   4.331   5.628   5.330  0.3191 -0.2632 -0.3737
12014TIP3   OH257532   5.241   5.198  15.155  0.4590 -0.1163  0.7049
12014TIP3    H157533   5.251   5.103  15.148 -0.8138 -0.2649  0.5560
12014TIP3    H257534   5.272   5.219  15.243  0.9090 -0.6415  0.6822
12015TIP3   OH257535   5.910   0.136  14.925  0.4597 -0.0881  0.0175
12015TIP3    H157536   5.976   0.205  14.922 -0.1506  0.5626  1.1977
12015TIP3    H257537   5.833   0.175  14.883  1.4869 -1.7054 -3.8396
12016TIP3   OH257538   5.575   4.493  13.841  0.2344  0.4001 -0.2308
12016TIP3    H157539   5.533   4.478  13.756  0.3836  1.0530 -0.4259
12016TIP3    H257540   5.516   4.451  13.904 -0.7547  1.3398 -0.4967
12017TIP3   OH257541   3.074   1.848  11.652  0.0409  0.1154 -0.1225
12017TIP3    H157542   3.122   1.930  11.642 -1.1863  0.8446 -0.2142
12017TIP3    H257543   3.107   1.809  11.732  0.7030  0.6537 -0.1331
12018TIP3   OH257544   0.753   3.129  13.260 -0.1470  0.5171  0.7745
12018TIP3    H157545   0.704   3.208  13.285 -0.8794  1.1102 -2.0458
12018TIP3    H257546   0.823   3.162  13.203 -0.9118 -0.8431 -1.0564
12019TIP3   OH257547   1.697   5.737   4.009 -0.0673  0.0248  0.2548
12019TIP3    H157548   1.603   5.732   4.026 -0.0449  1.4241  0.8985
12019TIP3    H257549   1.733   5.661   4.055 -1.0527 -1.6446 -1.6100
12020TIP3   OH257550   4.406   0.755  15.513  0.3366 -0.4374  0.2693
12020TIP3    H157551   4.312   0.758  15.498 -0.2836  2.0524  3.5371
12020TIP3    H257552   4.427   0.662  15.517 -2.2874 -1.0870  0.8129
12021TIP3   OH257553   3.436   5.533  11.965  0.2363  0.0695 -0.3992
12021TIP3    H157554   3.351   5.499  11.939  0.4941  0.1203 -1.3673
12021TIP3    H257555   3.418   5.589  12.041 -0.3936 -0.9948  0.2557
12022TIP3   OH257556   6.683   4.673   3.306  0.0912  0.0376 -0.4301
12022TIP3    H157557   6.719   4.726   3.377  1.4876 -2.0358  0.5350
12022TIP3    H257558   6.590   4.694   3.304 -0.0712 -0.0586  2.2900
12023TIP3   OH257559   6.048   2.983  14.759 -0.4209 -0.1363  0.0253
12023TIP3    H157560   6.100   3.061  14.741 -1.5519  0.5054 -0.5900
12023TIP3    H257561   6.018   2.954  14.673  0.1599 -1.3918  0.2266
12024TIP3   OH257562   2.121   4.895   4.236 -0.4026  0.6181  0.1604
12024TIP3    H157563   2.162   4.853   4.312  0.4185  1.6961  0.3342
12024TIP3    H257564   2.179   4.874   4.163 -1.1413 -0.3373 -0.1717
12025TIP3   OH257565   1.496   2.900  16.604  0.4884 -0.3490  0.1955
12025TIP3    H157566   1.550   2.964  16.558  0.0352 -0.2455 -0.2049
12025TIP3    H257567   1.406   2.933  16.592  0.3797 -0.1960  1.3402
12026TIP3   OH257568   3.831   2.170  15.901  0.1986  0.1491 -0.1995
12026TIP3    H157569   3.816   2.123  15.983  0.5515  1.4775  0.6606
12026TIP3    H257570   3.759   2.142  15.844  0.3399 -1.3180  0.3045
12027TIP3   OH257571   0.473   5.243   3.378 -0.0356  0.2702 -0.0545
12027TIP3    H157572   0.521   5.300   3.317 -0.1501  0.7365  0.2915
12027TIP3    H257573   0.392   5.222   3.332  0.4110 -0.3818 -0.5730
12028TIP3   OH257574   0.724   1.653   1.734 -0.0202 -0.0759  0.6795
12028TIP3    H157575   0.744   1.618   1.647 -1.7902 -2.9340  1.3041
12028TIP3    H257576   0.791   1.616   1.791  1.2683  1.9710  0.5880
12029TIP3   OH257577   1.239   2.666   3.898  0.2964 -0.0274 -0.0650
12029TIP3    H157578   1.315   2.620   3.933 -1.6875 -3.4102  0.2590
12029TIP3    H257579   1.270   2.705   3.816  2.5700 -0.4096  0.5323
12030TIP3   OH257580   4.021   5.043  12.629  0.1241 -0.4462 -0.0793
12030TIP3    H157581   3.994   5.117  12.574  0.5082 -0.4502 -0.2796
12030TIP3    H257582   4.018   4.967  12.571 -0.2454 -0.5880  0.1200
12031TIP3   OH257583   5.370   6.382  11.157  0.2466 -0.1890  0.1083
12031TIP3    H157584   5.432   6.455  11.161 -0.7173  0.6237  1.0889
12031TIP3    H257585   5.314   6.395  11.234 -1.0127 -0.9942 -0.6433
12032TIP3   OH257586   3.012   4.536  16.901  0.0370  0.3486 -0.1295
12032TIP3    H157587   3.010   4.449  16.940  2.3926  0.8179  1.2324
12032TIP3    H257588   3.025   4.520  16.807 -1.0707 -0.7393 -0.1231
12033TIP3   OH257589   5.297   1.851  13.742  0.2240  0.0433 -0.1446
12033TIP3    H157590   5.214   1.891  13.717  0.1886  0.1203  0.0867
12033TIP3    H257591   5.290   1.760  13.712 -1.3116 -0.9325  2.7189
12034TIP3   OH257592   1.002   1.170   3.357  0.2848  0.3731  0.2422
12034TIP3    H157593   0.931   1.166   3.420  1.4099 -4.1913  1.6026
12034TIP3    H257594   0.960   1.157   3.272 -0.7572  1.3465  0.5828
12035TIP3   OH257595   4.503   4.228  11.516  0.4757  0.2871  0.1659
12035TIP3    H157596   4.441   4.161  11.544  0.2788  0.7407  0.8468
12035TIP3    H257597   4.589   4.188  11.527  0.2990 -0.5687 -1.3863
12036TIP3   OH257598   1.870   5.228  14.880  0.4337  0.2156  0.9030
12036TIP3    H157599   1.911   5.274  14.807  0.7824 -1.2119  0.1534
12036TIP3    H257600   1.886   5.283  14.956  1.2322  1.0870  0.1239
12037TIP3   OH257601   0.215   2.987   2.818 -0.3315 -0.3894 -0.1318
12037TIP3    H157602   0.297   2.940   2.806 -0.4550 -0.8270  0.7229
12037TIP3    H257603   0.231   3.045   2.892 -0.2012  0.8961 -1.1257
12038TIP3   OH257604   2.285   5.427   3.222  0.1361  0.1837  0.0932
12038TIP3    H157605   2.312   5.407   3.311 -0.1154  2.1089  0.6267
12038TIP3    H257606   2.344   5.497   3.194  0.1045 -0.2812 -1.2149
12039TIP3   OH257607   4.283   2.774   1.039  0.3582  0.1157  0.1125
12039TIP3    H157608   4.366   2.731   1.020 -0.7377 -0.4418 -4.4656
12039TIP3    H257609   4.218   2.703   1.040 -0.3784  0.7475  1.7502
12040TIP3   OH257610   5.021   5.616   0.279 -0.3392 -0.4998 -0.0308
12040TIP3    H157611   5.090   5.549   0.276  1.1609  0.9623  0.7001
12040TIP3    H257612   4.986   5.609   0.368  2.4939  2.1652  1.4718
12041TIP3   OH257613   1.549   1.517   4.353 -0.2185  0.2872 -0.3873
12041TIP3    H157614   1.591   1.525   4.267  1.1101 -0.3556  0.1885
12041TIP3    H257615   1.603   1.570   4.411 -0.7548  0.2151  0.1846
12042TIP3   OH257616   2.537   0.492   3.359  0.0901 -0.2144 -1.0346
12042TIP3    H157617   2.457   0.509   3.409  0.0727  0.1641 -1.1849
12042TIP3    H257618   2.572   0.579   3.339  1.1597 -0.3885 -0.0076
12043TIP3   OH257619   4.085   1.208  14.063 -0.2242 -0.1861  0.1589
12043TIP3    H157620   4.171   1.197  14.022 -0.4058 -1.3218  0.0296
12043TIP3    H257621   4.069   1.302  14.061  0.7461 -0.0138 -0.3704
12044TIP3   OH257622   2.581   0.860  14.940 -0.4971  0.2780  0.2875
12044TIP3    H157623   2.508   0.888  14.995 -0.8681  1.7277 -0.8865
12044TIP3    H257624   2.648   0.927  14.951  0.4339 -0.7110  0.8593
12045TIP3   OH257625   5.652   4.707  15.692 -0.0860 -0.8351  0.0236
12045TIP3    H157626   5.705   4.705  15.772 -0.4722 -1.8141  0.2686
12045TIP3    H257627   5.637   4.615  15.672 -1.1675 -0.5741 -0.3958
12046TIP3   OH257628   3.202   6.713   0.418 -0.0538  0.2818  0.3149
12046TIP3    H157629   3.264   6.656   0.462  0.3521  1.3106  1.1257
12046TIP3    H257630   3.162   6.764   0.488 -0.2199  1.1645 -0.3954
12047TIP3   OH257631   0.606   0.196   2.717 -0.4686  0.0186 -0.0105
12047TIP3    H157632   0.632   0.104   2.714  2.1619  0.7036 -1.0175
12047TIP3    H257633   0.687   0.243   2.736 -1.7062  2.1668  0.2855
12048TIP3   OH257634   0.317   2.297   2.244  0.3987 -0.0298  0.1854
12048TIP3    H157635   0.273   2.382   2.243  0.6501  0.0969 -0.1667
12048TIP3    H257636   0.377   2.302   2.318  1.3996  0.6112 -0.6361
12049TIP3   OH257637   3.293   0.483   0.282  0.2426 -0.3820  0.3059
12049TIP3    H157638   3.318   0.396   0.315  0.3035  0.6373  3.2149
12049TIP3    H257639   3.215   0.506   0.332 -0.9701  0.4586 -1.8755
12050TIP3   OH257640   2.299   2.590  15.853 -0.7108 -0.6730  0.1550
12050TIP3    H157641   2.215   2.634  15.837  0.3791  0.6522 -2.5136
12050TIP3    H257642   2.307   2.528  15.780  1.1986  0.1536 -0.3844
12051TIP3   OH257643   3.317   0.102   5.069 -0.2192 -0.0716  0.4022
12051TIP3    H157644   3.405   0.139   5.081  0.1689 -0.5759 -0.6663
12051TIP3    H257645   3.322   0.015   5.110  0.5239 -1.0277 -1.5560
12052TIP3   OH257646   4.585   1.828   2.426 -0.1625  0.1398  0.5269
12052TIP3    H157647   4.540   1.845   2.509 -0.1464 -1.8267  0.9830
12052TIP3    H257648   4.522   1.778   2.374  0.2808  0.2755 -0.1439
12053TIP3   OH257649   0.261   1.105  11.555 -0.4526  0.0288  0.0680
12053TIP3    H157650   0.280   1.076  11.465 -4.0679 -2.5704 -0.0798
12053TIP3    H257651   0.317   1.049  11.610 -0.2195 -0.2944 -0.4878
12054TIP3   OH257652   3.553   3.269  12.195 -0.0678  0.7958 -0.8416
12054TIP3    H157653   3.496   3.192  12.190  0.3915  0.5103 -2.2746
12054TIP3    H257654   3.525   3.315  12.274  0.3929 -1.4334  0.7202
12055TIP3   OH257655   3.993   6.421  15.397 -0.4747  0.1773 -0.3654
12055TIP3    H157656   4.042   6.398  15.476  1.5663  0.4106 -1.4914
12055TIP3    H257657   3.913   6.370  15.404 -0.1257 -0.2124  1.5900
12056TIP3   OH257658   5.763   1.322  12.004 -0.2162  0.2699 -0.3509
12056TIP3    H157659   5.752   1.417  12.015 -0.6430  0.4137 -1.7492
12056TIP3    H257660   5.713   1.283  12.075 -0.7390  1.0956 -0.2524
12057TIP3   OH257661   1.650   0.774   2.400  0.0590  0.8810  0.1666
12057TIP3    H157662   1.683   0.725   2.325 -0.3429  3.2361 -1.6699
12057TIP3    H257663   1.558   0.790   2.379 -0.0087  1.7419  1.0662
12058TIP3   OH257664   3.478   5.541   3.440  0.0202 -0.1671 -0.2230
12058TIP3    H157665   3.413   5.505   3.380 -1.5129 -0.1162  1.3165
12058TIP3    H257666   3.524   5.608   3.390  1.2623 -2.4966 -2.4146
12059TIP3   OH257667   3.440   0.759   5.995 -0.1572 -0.1003  0.5334
12059TIP3    H157668   3.397   0.842   5.977  0.5199 -0.0228 -0.8562
12059TIP3    H257669   3.512   0.782   6.055  1.2782  0.7001 -1.4030
12060TIP3   OH257670   5.249   1.084   3.734  0.3087  0.2225 -0.2956
12060TIP3    H157671   5.255   1.153   3.668 -0.3973  1.8415  1.2696
12060TIP3    H257672   5.317   1.105   3.798  1.2351 -1.5384 -0.6082
12061TIP3   OH257673   2.389   5.598   1.361  0.2414 -0.3729  0.3830
12061TIP3    H157674   2.435   5.517   1.381  1.8836  0.1962 -0.8184
12061TIP3    H257675   2.384   5.599   1.265  1.6382  1.6064  0.2530
12062TIP3   OH257676   2.772   2.205   2.250  0.0768 -0.2592 -0.0803
12062TIP3    H157677   2.785   2.121   2.293  1.6489  1.1032  2.3945
12062TIP3    H257678   2.698   2.191   2.191 -1.4134 -2.7132  2.1359
12063TIP3   OH257679   6.413   6.672   0.489 -0.6128 -0.1728  0.0162
12063TIP3    H157680   6.459   6.705   0.412 -0.3867  0.0421  0.2393
12063TIP3    H257681   6.406   6.578   0.473  2.3473 -0.7141  1.1650
12064TIP3   OH257682   2.492   2.598  13.916  0.6742  0.2343  0.5545
12064TIP3    H157683   2.466   2.606  13.825  0.2728  0.9822  0.7317
12064TIP3    H257684   2.494   2.503  13.932  0.0592  0.1201 -0.0231
12065TIP3   OH257685   2.766   6.126   0.707 -0.8322  0.1290 -0.1663
12065TIP3    H157686   2.830   6.063   0.741 -0.1088  1.5911  1.3555
12065TIP3    H257687   2.711   6.147   0.783  0.9980  3.7278  0.3859
12066TIP3   OH257688   2.106   1.527  13.085 -0.3598 -0.0481 -0.0525
12066TIP3    H157689   2.015   1.547  13.106 -0.1334  0.9131  0.0955
12066TIP3    H257690   2.119   1.566  12.998 -0.7755 -2.3851 -1.2466
12067TIP3   OH257691   4.941   6.684  12.108  0.0834  0.0257  0.0561
12067TIP3    H157692   4.964   6.600  12.147 -1.0662 -0.3481 -0.0457
12067TIP3    H257693   5.004   6.696  12.037  0.6766 -0.4258  0.5040
12068TIP3   OH257694   6.498   5.701  14.069  0.4199 -0.1625  0.2848
12068TIP3    H157695   6.444   5.629  14.038  1.6011  0.1941 -3.0064
12068TIP3    H257696   6.556   5.662  14.134  0.5267 -2.0655 -0.8715
12069TIP3   OH257697   4.873   2.050  15.240 -0.1261 -0.6919  0.0018
12069TIP3    H157698   4.908   2.120  15.296  0.5483  1.1272 -2.4898
12069TIP3    H257699   4.940   1.982  15.242  2.3655  1.4358 -2.2733
12070TIP3   OH257700   0.868   3.210  15.916 -0.0009 -0.4108  0.2241
12070TIP3    H157701   0.939   3.219  15.979  0.5499  0.1116 -0.4517
12070TIP3    H257702   0.910   3.184  15.835 -0.3797  1.2943 -0.5615
12071TIP3   OH257703   6.510   0.894   0.860 -0.4553  0.4333  0.4117
12071TIP3    H157704   6.475   0.891   0.949 -1.5748  0.6743 -0.0083
12071TIP3    H257705   6.438   0.862   0.805  0.3702 -0.1213 -0.3647
12072TIP3   OH257706   1.050   4.097  15.320  0.3110 -0.1813  0.1609
12072TIP3    H157707   0.971   4.082  15.372 -1.1976 -0.2474 -2.0290
12072TIP3    H257708   1.049   4.190  15.300  0.6261 -0.2302 -0.0898
12073TIP3   OH257709   4.965   3.927  15.472 -0.2913 -0.5102 -0.3777
12073TIP3    H157710   4.984   4.016  15.443 -0.2280 -0.1899  0.5836
12073TIP3    H257711   4.951   3.936  15.567 -0.4804 -1.4901 -0.3059
12074TIP3   OH257712   1.607   2.418  14.093  0.0498 -0.0951 -0.1000
12074TIP3    H157713   1.577   2.501  14.055 -0.6364 -0.6697 -0.8386
12074TIP3    H257714   1.559   2.411  14.175  1.0126  0.8141  0.5588
12075TIP3   OH257715   4.814   4.517  16.359 -0.0101  0.3831  0.7170
12075TIP3    H157716   4.894   4.565  16.380 -0.2172  1.9389 -1.6594
12075TIP3    H257717   4.844   4.444  16.305 -0.0328 -0.2140  1.4927
12076TIP3   OH257718   0.772   6.603  14.435  0.0313 -0.5892 -0.3968
12076TIP3    H157719   0.760   6.638  14.346 -1.0150 -1.0160 -0.4292
12076TIP3    H257720   0.826   6.669  14.479 -1.3707  0.7764 -0.6573
12077TIP3   OH257721   2.827   1.646   2.742  0.1887 -0.1692 -0.6568
12077TIP3    H157722   2.902   1.588   2.757 -0.2279  0.0422  3.4756
12077TIP3    H257723   2.752   1.596   2.773 -0.9569  0.7674 -1.8057
12078TIP3   OH257724   3.791   2.566   3.901  0.5274  0.0788 -0.0378
12078TIP3    H157725   3.742   2.634   3.854 -0.2614  1.3192  2.4483
12078TIP3    H257726   3.727   2.526   3.959  1.4711 -1.4464  0.0115
12079TIP3   OH257727   3.139   2.103  11.586  0.8105 -0.0380  0.2193
12079TIP3    H157728   3.181   2.172  11.637 -0.3061 -0.2009  1.4084
12079TIP3    H257729   3.100   2.149  11.511  1.2580  0.4144  0.2586
12080TIP3   OH257730   1.826   2.018   2.642 -0.1372  0.1191  0.3503
12080TIP3    H157731   1.902   2.073   2.621 -0.5521  1.0442  1.1477
12080TIP3    H257732   1.829   2.009   2.737 -1.0722  0.2558  0.4062
12081TIP3   OH257733   1.951   3.010  14.258  0.2199 -0.3030 -0.0576
12081TIP3    H157734   2.022   3.030  14.197  0.7457  0.7213  0.8641
12081TIP3    H257735   1.933   3.092  14.303 -1.3870 -0.6087 -0.0779
12082TIP3   OH257736   6.462   2.916  12.657  0.4403 -0.2520 -0.1583
12082TIP3    H157737   6.520   2.869  12.596 -1.5953 -1.0343 -1.6030
12082TIP3    H257738   6.374   2.900  12.623 -0.5597  1.9813  1.1900
12083TIP3   OH257739   1.021   0.960  11.932 -0.1327  0.3171  0.1789
12083TIP3    H157740   1.114   0.956  11.910 -0.2226  1.0706 -0.3692
12083TIP3    H257741   0.977   0.922  11.856 -0.3564  1.4407 -0.2634
12084TIP3   OH257742   2.726   5.761  11.849  0.3769  0.5478 -0.7339
12084TIP3    H157743   2.753   5.770  11.941  2.4252 -0.1415 -1.2271
12084TIP3    H257744   2.695   5.848  11.825  0.3112  0.8741  0.4432
12085TIP3   OH257745   6.204   4.688   2.327  0.0566  0.1237 -0.2686
12085TIP3    H157746   6.240   4.725   2.408  1.5002 -0.0210 -0.8048
12085TIP3    H257747   6.270   4.709   2.260 -2.3116  2.6071 -2.0123
12086TIP3   OH257748   5.976   1.702  15.918 -0.6144  0.4992 -0.0234
12086TIP3    H157749   5.983   1.627  15.860 -1.7082  0.6543 -0.3635
12086TIP3    H257750   6.058   1.751  15.904  0.2354 -0.7465  0.4104
12087TIP3   OH257751   4.744   4.477   4.801 -0.1413 -0.4831 -0.0015
12087TIP3    H157752   4.675   4.414   4.781  1.0423 -1.4669 -1.1345
12087TIP3    H257753   4.812   4.425   4.844 -0.6607  0.7356  2.4775
12088TIP3   OH257754   3.760   4.377   2.313  0.2502  0.1026  0.4224
12088TIP3    H157755   3.728   4.290   2.288  2.2383 -0.3909 -0.5565
12088TIP3    H257756   3.687   4.415   2.362 -1.8458 -0.9064 -1.6921
12089TIP3   OH257757   1.219   2.259   4.081 -0.1552 -0.4581  0.2070
12089TIP3    H157758   1.215   2.284   3.989  0.3974 -0.2594  0.2305
12089TIP3    H257759   1.238   2.165   4.080  1.7087 -0.1194  0.0961
12090TIP3   OH257760   2.944   3.441  11.412  0.4672  0.6366  0.0200
12090TIP3    H157761   2.887   3.516  11.391 -2.1575 -1.5636 -1.5113
12090TIP3    H257762   2.999   3.431  11.334 -0.0991  0.2292 -0.3352
12091TIP3   OH257763   0.045   2.649   1.436 -0.0034  0.0648 -0.0150
12091TIP3    H157764   0.050   2.683   1.347  0.8932 -0.0493 -0.0196
12091TIP3    H257765   0.136   2.629   1.459 -0.4559 -2.1676  0.0571
12092TIP3   OH257766   3.196   6.486   5.200  0.2552 -0.4315  0.0442
12092TIP3    H157767   3.115   6.493   5.148  0.1922 -0.1439  0.1775
12092TIP3    H257768   3.249   6.560   5.170  0.5645 -0.7505 -0.2051
12093TIP3   OH257769   0.346   1.974   3.066 -0.0158 -0.3440  0.5878
12093TIP3    H157770   0.411   1.991   3.135  1.9216  1.0332 -1.4480
12093TIP3    H257771   0.307   2.060   3.049 -0.6629 -0.7258  0.1263
12094TIP3   OH257772   1.169   0.925   0.778  0.0852 -0.0381  0.5888
12094TIP3    H157773   1.230   0.985   0.736  1.1751 -1.0273  0.6911
12094TIP3    H257774   1.133   0.873   0.706  0.9475 -0.8329  0.7014
12095TIP3   OH257775   4.836   4.910  15.886  0.0369 -0.2527 -0.3869
12095TIP3    H157776   4.746   4.879  15.882  0.2595 -0.8031 -1.3943
12095TIP3    H257777   4.848   4.935  15.978 -1.0395 -0.4584 -0.1759
12096TIP3   OH257778   3.458   5.770  14.488 -0.7949 -0.8129  0.4427
12096TIP3    H157779   3.400   5.783  14.564  0.9839  0.8667  1.5969
12096TIP3    H257780   3.466   5.857  14.450  2.2964 -0.5948  1.3697
12097TIP3   OH257781   6.528   1.361  14.939 -0.3310  0.0738 -0.3530
12097TIP3    H157782   6.480   1.379  14.859 -0.9206 -3.0685 -0.8267
12097TIP3    H257783   6.590   1.292  14.915  0.6243  0.1996  1.5384
12098TIP3   OH257784   1.916   5.906   4.049 -0.0957  0.0353  0.4683
12098TIP3    H157785   1.857   5.839   4.015  0.4010  0.6250 -1.7767
12098TIP3    H257786   1.859   5.979   4.072 -0.5462 -0.7638  2.0086
12099TIP3   OH257787   0.810   0.370  14.144 -0.6348  0.1284 -0.2259
12099TIP3    H157788   0.791   0.446  14.089  0.7368  1.6643  1.2979
12099TIP3    H257789   0.806   0.296  14.084  0.7138  1.6893 -2.4232
12100TIP3   OH257790   0.792   5.744   3.947 -0.4825 -0.2167  0.2716
12100TIP3    H157791   0.732   5.802   3.899 -1.0837 -1.3789 -0.4283
12100TIP3    H257792   0.820   5.681   3.882 -1.9688 -2.3644  1.5893
12101TIP3   OH257793   2.049   5.225   3.503 -0.3837 -0.4793 -1.0977
12101TIP3    H157794   2.139   5.208   3.531  0.2067  0.5383 -2.2418
12101TIP3    H257795   2.053   5.216   3.407 -1.1635  0.9408 -1.2809
12102TIP3   OH257796   6.276   3.212  10.602  0.4519 -0.0196 -0.5644
12102TIP3    H157797   6.364   3.243  10.584  0.7336  1.2501  2.3821
12102TIP3    H257798   6.285   3.159  10.681 -1.3713 -0.1190 -0.3785
12103TIP3   OH257799   0.283   2.285  11.331 -0.0356  0.1184 -0.2665
12103TIP3    H157800   0.374   2.255  11.334 -1.1987 -4.1455 -0.3238
12103TIP3    H257801   0.269   2.311  11.240  0.7807 -0.5453 -0.5955
12104TIP3   OH257802   1.388   4.508  15.851  0.6153  0.3600  0.7277
12104TIP3    H157803   1.481   4.507  15.874  0.4782  2.0241  1.5320
12104TIP3    H257804   1.345   4.461  15.922  0.7828  0.1270  0.6757
12105TIP3   OH257805   5.117   1.383   3.028 -0.1384 -0.0419 -0.1210
12105TIP3    H157806   5.021   1.382   3.025 -0.1769 -2.2876  0.3221
12105TIP3    H257807   5.138   1.438   3.103 -1.0510  0.5854 -0.2950
12106TIP3   OH257808   4.768   6.206  12.951  0.0856 -0.7622  0.2524
12106TIP3    H157809   4.704   6.197  12.880  0.1698  1.3472 -0.1504
12106TIP3    H257810   4.832   6.268  12.918 -0.7860  1.6656  2.7554
12107TIP3   OH257811   5.515   6.784   4.082 -0.9606 -0.0706 -0.0357
12107TIP3    H157812   5.450   6.729   4.127 -2.1363  2.2218  1.2307
12107TIP3    H257813   5.485   6.873   4.097  2.8434  1.1703  1.1925
12108TIP3   OH257814   5.596   1.223  13.987 -0.0938  0.1368 -0.1077
12108TIP3    H157815   5.577   1.215  14.080  0.3496  0.3522  0.0011
12108TIP3    H257816   5.561   1.142  13.949 -0.4731  0.1490  0.2100
12109TIP3   OH257817   1.606   0.180   1.943 -0.4894  0.2806  0.4798
12109TIP3    H157818   1.668   0.234   1.991 -0.2947  0.3568  0.1402
12109TIP3    H257819   1.539   0.241   1.913 -0.5794  0.2423  0.6024
12110TIP3   OH257820   2.489   4.005  14.519  0.4463 -0.1800  0.3402
12110TIP3    H157821   2.472   3.948  14.444  0.3207 -0.9166  0.9211
12110TIP3    H257822   2.473   4.094  14.486  0.0173 -0.5242 -0.3912
12111TIP3   OH257823   5.294   5.612  12.987  0.1043 -0.4931 -0.0986
12111TIP3    H157824   5.284   5.596  12.894  0.9021  1.8844 -0.6412
12111TIP3    H257825   5.384   5.644  12.997 -0.3118  0.3454  1.3259
12112TIP3   OH257826   1.906   3.949   1.081 -0.3417  0.3965  0.6290
12112TIP3    H157827   1.914   3.859   1.113 -0.0587  0.1719 -0.0595
12112TIP3    H257828   1.830   3.948   1.023 -0.2180  0.5595  0.4629
12113TIP3   OH257829   2.784   0.019   1.295 -0.4385 -0.3202 -0.1610
12113TIP3    H157830   2.812  -0.030   1.373  0.2842 -1.1397 -0.9171
12113TIP3    H257831   2.856   0.079   1.278 -1.7738  1.8798  1.4046
12114TIP3   OH257832   4.220   2.572  12.083  0.3809  0.3803  0.6491
12114TIP3    H157833   4.301   2.522  12.082  0.4238  0.4433  0.9828
12114TIP3    H257834   4.201   2.586  12.176 -0.2322  0.0010  0.5828
12115TIP3   OH257835   4.668   1.517  14.021 -0.1930  0.1338  0.1090
12115TIP3    H157836   4.669   1.423  14.041 -2.8378 -0.1265 -0.5766
12115TIP3    H257837   4.633   1.523  13.932 -1.8714  1.7920  0.7958
12116TIP3   OH257838   2.535   5.982  13.935 -0.2017 -0.3193  0.2057
12116TIP3    H157839   2.620   5.944  13.914 -0.2552 -0.1416 -0.3397
12116TIP3    H257840   2.505   5.934  14.012 -0.4869 -1.6958 -0.7406
12117TIP3   OH257841   4.086   2.789   5.993 -0.6055  0.0456 -0.5411
12117TIP3    H157842   4.097   2.877   5.959 -0.9911  0.4737  0.4074
12117TIP3    H257843   4.061   2.737   5.917 -2.2213  1.1236 -0.8046
12118TIP3   OH257844   5.945   5.468  14.220  0.6766 -0.2866 -0.3028
12118TIP3    H157845   6.019   5.430  14.174 -0.1265 -0.7942 -1.2032
12118TIP3    H257846   5.970   5.465  14.312  1.7045 -0.5943 -0.5825
12119TIP3   OH257847   6.100   1.262  11.305  0.0322  1.0394  0.4694
12119TIP3    H157848   6.163   1.274  11.234  0.6041  1.4887  1.0393
12119TIP3    H257849   6.133   1.186  11.353 -1.1135 -0.1203 -0.5262
12120TIP3   OH257850   0.431   4.800   6.199  0.2135 -0.6011 -0.2694
12120TIP3    H157851   0.364   4.742   6.163 -0.6995  0.7489 -0.7998
12120TIP3    H257852   0.514   4.759   6.174 -0.3984 -0.9368 -1.8676
12121TIP3   OH257853   3.722   4.417  11.691  0.8956 -0.0709 -0.0004
12121TIP3    H157854   3.796   4.457  11.644  1.8305 -1.2850  0.3788
12121TIP3    H257855   3.672   4.373  11.623 -0.0862  1.5949 -0.4074
12122TIP3   OH257856   5.034   2.899  15.585  0.0145 -0.8457  0.6152
12122TIP3    H157857   5.022   2.984  15.542  1.6451 -2.0177 -2.4037
12122TIP3    H257858   5.127   2.878  15.573 -0.3246 -3.0452  1.3245
12123TIP3   OH257859   0.949   4.016  11.426  0.1538  0.5300  0.1945
12123TIP3    H157860   0.859   4.026  11.457 -0.0479 -0.5749  0.0339
12123TIP3    H257861   0.955   3.923  11.401  1.0977  0.7787 -0.5535
12124TIP3   OH257862   2.196   4.864  14.823 -0.5382 -0.1568 -0.6316
12124TIP3    H157863   2.181   4.931  14.889  0.5949 -0.3926 -0.1202
12124TIP3    H257864   2.187   4.781  14.871  0.0474 -0.3344 -0.8290
12125TIP3   OH257865   3.852   3.727   4.210 -0.0300  0.1851 -0.4476
12125TIP3    H157866   3.880   3.818   4.207 -1.4731  0.6603 -0.5466
12125TIP3    H257867   3.875   3.698   4.298 -0.8189  1.0996  0.0876
12126TIP3   OH257868   3.765   3.885   4.607 -0.1750  0.3313 -0.1482
12126TIP3    H157869   3.854   3.854   4.623 -0.6451 -1.1041 -0.1527
12126TIP3    H257870   3.776   3.961   4.551  0.9926 -0.9319 -1.7478
12127TIP3   OH257871   6.747   5.006   6.036 -0.1661 -0.3096 -0.2911
12127TIP3    H157872   6.736   4.954   5.956  1.5381  0.9357 -1.4013
12127TIP3    H257873   6.841   5.013   6.047 -0.3422  2.0028  0.1733
12128TIP3   OH257874   5.043   0.352   4.873 -0.4983 -0.0432  0.3820
12128TIP3    H157875   5.039   0.427   4.814 -0.2511 -0.4373 -0.1444
12128TIP3    H257876   5.109   0.376   4.938 -1.6856  0.9303  1.2795
12129TIP3   OH257877   0.982   0.298   5.493  1.1115 -0.0328  0.1829
12129TIP3    H157878   1.011   0.349   5.418  1.5482 -1.3328 -0.5732
12129TIP3    H257879   1.018   0.344   5.569 -1.8036  3.0103 -0.0579
12130TIP3   OH257880   2.871   0.326   2.479 -0.4646 -0.3737  0.9204
12130TIP3    H157881   2.953   0.320   2.527  0.2867  1.6120 -0.0193
12130TIP3    H257882   2.888   0.283   2.395  0.4021  1.8781 -0.1532
12131TIP3   OH257883   1.781   3.018   6.201 -0.3471  0.1309  0.2798
12131TIP3    H157884   1.748   2.928   6.195 -1.2535  0.4679  0.0296
12131TIP3    H257885   1.743   3.052   6.282  1.6330 -0.3377  1.4689
12132TIP3   OH257886   5.285   5.037   3.978 -0.3865  0.0060 -0.2350
12132TIP3    H157887   5.311   4.958   4.026  0.1883  1.7637  2.5901
12132TIP3    H257888   5.203   5.064   4.020 -1.0363  0.4646 -1.7411
12133TIP3   OH257889   0.420   4.513   0.881  0.7973 -0.6410 -0.2053
12133TIP3    H157890   0.376   4.448   0.827 -1.8750  0.3861  0.5991
12133TIP3    H257891   0.364   4.523   0.957  1.6240  1.9245  0.1493
12134TIP3   OH257892   0.395   5.252   6.239  0.3417 -0.0180 -0.4879
12134TIP3    H157893   0.439   5.171   6.263 -1.0892 -0.2314  1.6572
12134TIP3    H257894   0.420   5.315   6.306 -2.6475 -0.2214  1.0097
12135TIP3   OH257895   1.217   4.945  15.205 -0.1632 -0.4704 -0.0798
12135TIP3    H157896   1.243   5.021  15.152  0.1964 -1.1602 -0.9195
12135TIP3    H257897   1.173   4.887  15.143  2.7038 -2.5676 -0.3319
12136TIP3   OH257898   4.841   0.394   1.327 -0.2881  0.2128  0.3574
12136TIP3    H157899   4.766   0.346   1.291  1.4187 -1.5051 -1.0914
12136TIP3    H257900   4.850   0.470   1.270  0.9761 -1.2876 -1.5864
12137TIP3   OH257901   4.159   3.765   5.019  0.1337 -0.3463 -0.4145
12137TIP3    H157902   4.221   3.732   5.084  1.0291  0.5537 -0.7814
12137TIP3    H257903   4.168   3.860   5.025 -1.3095 -0.1972 -0.4053
12138TIP3   OH257904   4.546   1.603   6.125  0.4384  0.1230  0.1390
12138TIP3    H157905   4.496   1.671   6.081  1.4230  0.4859 -0.4472
12138TIP3    H257906   4.613   1.578   6.062  2.7177  1.5541  1.8228
12139TIP3   OH257907   0.471   5.912  12.691 -0.1455  0.0037  0.3952
12139TIP3    H157908   0.530   5.976  12.650 -0.8529  0.6610  0.3903
12139TIP3    H257909   0.398   5.964  12.724 -0.5156 -0.7522  0.8010
12140TIP3   OH257910   4.225   3.186   3.694 -0.1109  0.3921 -0.5066
12140TIP3    H157911   4.183   3.166   3.778  1.2207  1.3383  0.4297
12140TIP3    H257912   4.193   3.119   3.634 -1.5483  0.0339  0.6043
12141TIP3   OH257913   3.598   1.509  13.033  0.8289  0.0528  0.4488
12141TIP3    H157914   3.546   1.588  13.017 -1.4975 -0.9627  2.3552
12141TIP3    H257915   3.597   1.462  12.950 -2.1603 -0.3475  0.6152
12142TIP3   OH257916   2.531   5.922   3.241  0.2566 -0.1952 -0.3367
12142TIP3    H157917   2.493   5.947   3.326 -0.1179  2.0670 -1.0879
12142TIP3    H257918   2.602   5.862   3.263 -0.3896 -0.3515  1.5104
12143TIP3   OH257919   0.221   4.492   5.079  0.5162  0.4955 -0.4555
12143TIP3    H157920   0.257   4.532   5.159  1.2187  0.5833 -0.8155
12143TIP3    H257921   0.297   4.478   5.022  0.0543  0.1736 -1.0001
12144TIP3   OH257922   1.821   6.518  13.142 -0.5169  0.7760  0.3341
12144TIP3    H157923   1.805   6.598  13.192  0.8645  1.4386 -0.2178
12144TIP3    H257924   1.791   6.447  13.199 -1.6238  1.6625  0.8978
12145TIP3   OH257925   4.518   6.031   0.450 -0.4705 -0.1469  0.3201
12145TIP3    H157926   4.522   5.937   0.467  0.1380  0.1698  2.1833
12145TIP3    H257927   4.461   6.066   0.519  0.8803  1.0808  0.8622
12146TIP3   OH257928   2.775   0.509  13.744 -0.2196  0.7786 -0.6863
12146TIP3    H157929   2.707   0.575  13.760 -2.0707 -1.0248 -0.7033
12146TIP3    H257930   2.748   0.434  13.798  1.4798 -0.1976 -1.1317
12147TIP3   OH257931   6.789   2.931  13.866  0.3733 -0.1623 -0.0435
12147TIP3    H157932   6.721   2.870  13.836 -0.3641  1.4972 -1.9472
12147TIP3    H257933   6.787   2.923  13.962 -1.4996 -1.2141 -0.1075
12148TIP3   OH257934   0.673   0.691  16.770 -0.4575 -0.4587  0.4792
12148TIP3    H157935   0.749   0.746  16.753 -1.8269  1.7301  1.0545
12148TIP3    H257936   0.681   0.620  16.706  2.6791 -1.0429  1.3625
12149TIP3   OH257937   1.635   4.384  11.295  0.0532  0.1523  0.9289
12149TIP3    H157938   1.657   4.309  11.239 -1.9098  0.3706 -0.2183
12149TIP3    H257939   1.691   4.454  11.265  0.5096 -0.3215  0.6581
12150TIP3   OH257940   5.668   4.687   1.540  0.2645 -0.4632  0.3879
12150TIP3    H157941   5.617   4.766   1.523  1.5909  0.1417 -1.1385
12150TIP3    H257942   5.664   4.675   1.635 -2.3083 -0.2412  0.3719
12151TIP3   OH257943   5.620   3.773  14.807 -0.4841 -0.1886  0.2561
12151TIP3    H157944   5.705   3.808  14.783 -0.6365 -1.4556 -2.5051
12151TIP3    H257945   5.574   3.848  14.847  1.1396  1.1148 -0.1930
12152TIP3   OH257946   3.898   2.524   3.298 -0.0321  0.4597 -0.5121
12152TIP3    H157947   3.804   2.531   3.317  0.1461  0.3928  0.4688
12152TIP3    H257948   3.903   2.518   3.203 -1.1811 -1.6884 -0.4983
12153TIP3   OH257949   0.510   4.447   5.265  0.5941  0.2215  0.5220
12153TIP3    H157950   0.506   4.389   5.341  2.7294  0.9008  1.2227
12153TIP3    H257951   0.468   4.528   5.295 -0.8818 -0.3570  0.0918
12154TIP3   OH257952   1.656   3.691  15.887  0.4738  0.3969 -0.2884
12154TIP3    H157953   1.719   3.635  15.933 -1.2054 -1.2612  0.1133
12154TIP3    H257954   1.641   3.764  15.947  0.2231 -0.4296  0.6732
12155TIP3   OH257955   6.008   0.600  10.864 -0.7255 -0.1574 -0.0087
12155TIP3    H157956   5.932   0.544  10.879 -0.4169 -0.6484 -0.2599
12155TIP3    H257957   6.068   0.579  10.936 -0.7766  0.1478  0.1253
12156TIP3   OH257958   5.025   6.581  12.916 -0.7183  0.2544  0.6218
12156TIP3    H157959   4.976   6.506  12.883 -0.3588  0.1981  0.2235
12156TIP3    H257960   4.978   6.606  12.996 -0.5779 -0.6617  0.9933
12157TIP3   OH257961   0.673   3.351  10.548  0.3589 -0.0975  0.0298
12157TIP3    H157962   0.716   3.416  10.604  1.3435 -0.5101 -0.2168
12157TIP3    H257963   0.583   3.381  10.540  0.3272  0.2258  1.4425
12158TIP3   OH257964   4.523   6.113  10.541 -0.3993 -0.1045  0.2917
12158TIP3    H157965   4.526   6.176  10.469 -1.5389  0.3724  0.6291
12158TIP3    H257966   4.613   6.105  10.570 -0.1878  1.1439  0.0346
12159TIP3   OH257967   6.152   3.790   4.720  0.2528 -0.7183  0.2589
12159TIP3    H157968   6.109   3.858   4.668  0.3470 -0.9215 -0.0891
12159TIP3    H257969   6.212   3.838   4.777 -2.2063 -0.1660  2.6089
12160TIP3   OH257970   2.040   1.552   1.557  0.4574 -0.1060 -0.3240
12160TIP3    H157971   2.057   1.467   1.598  0.9730  0.4986  0.7706
12160TIP3    H257972   2.111   1.607   1.588 -0.3601  0.9635 -0.2986
12161TIP3   OH257973   3.796   6.370   1.420 -0.3823 -0.2801 -0.1798
12161TIP3    H157974   3.799   6.417   1.503 -0.8729  1.1686 -0.9537
12161TIP3    H257975   3.703   6.348   1.408 -0.4404  0.2240 -0.7117
12162TIP3   OH257976   0.273   2.866   1.225 -0.1601  0.5086 -0.6186
12162TIP3    H157977   0.220   2.797   1.185 -0.1351  1.1663 -1.8323
12162TIP3    H257978   0.363   2.838   1.208 -0.0754 -0.4419  1.1568
12163TIP3   OH257979   6.503   2.313   1.311 -0.6232  0.1880  0.0022
12163TIP3    H157980   6.535   2.224   1.294  0.7190  0.5363  0.5766
12163TIP3    H257981   6.563   2.348   1.377 -0.9804  1.6214 -0.3980
12164TIP3   OH257982   3.941   4.529   5.872  0.4898 -0.0481  0.2270
12164TIP3    H157983   4.000   4.454   5.879 -1.3118 -1.6947 -1.0937
12164TIP3    H257984   3.938   4.565   5.961 -0.4638 -3.1282  1.6061
12165TIP3   OH257985   6.352   5.581   0.494 -0.5962 -0.7751 -0.4743
12165TIP3    H157986   6.293   5.511   0.521 -1.6766  0.7278  1.3814
12165TIP3    H257987   6.437   5.555   0.529 -0.0476 -2.8943 -3.0555
12166TIP3   OH257988   4.566   4.837  16.103 -0.1718 -0.6788  0.1329
12166TIP3    H157989   4.596   4.768  16.043  0.5031  0.0055 -0.3283
12166TIP3    H257990   4.472   4.844  16.085 -0.3251 -1.7258  0.4446
12167TIP3   OH257991   5.901   5.725  11.309 -0.0775 -0.3975 -0.8858
12167TIP3    H157992   5.992   5.713  11.335 -0.3341 -1.4644 -0.4342
12167TIP3    H257993   5.900   5.810  11.264  1.0221 -0.1102 -0.4059
12168TIP3   OH257994   3.075   6.309   0.258 -0.5784 -0.3464  0.0409
12168TIP3    H157995   2.995   6.341   0.300 -0.9513  0.8109 -1.4744
12168TIP3    H257996   3.045   6.262   0.180  0.1664 -1.2900  0.2988
12169TIP3   OH257997   2.807   0.970   4.844 -0.1204 -0.1882  0.1735
12169TIP3    H157998   2.806   0.878   4.818 -2.0285 -0.2544  0.2922
12169TIP3    H257999   2.810   0.969   4.939  1.8956 -0.0453  0.1542
12170TIP3   OH258000   1.075   2.584   1.981 -0.1821 -0.2801 -0.3884
12170TIP3    H158001   0.981   2.601   1.971 -0.4279 -1.2683  0.1461
12170TIP3    H258002   1.081   2.489   1.990  0.5476 -0.0127  2.8772
12171TIP3   OH258003   2.706   3.022   4.839  0.1989  0.0272  0.1947
12171TIP3    H158004   2.798   3.020   4.865  0.1769 -0.6248  0.2321
12171TIP3    H258005   2.689   3.114   4.817  0.3521  0.5213  1.9828
12172TIP3   OH258006   3.975   1.622   0.404 -0.3815  0.5225 -0.1776
12172TIP3    H158007   4.046   1.650   0.347 -0.7232  0.8896 -0.4238
12172TIP3    H258008   3.906   1.593   0.345 -0.4327  0.1439  0.0609
12173TIP3   OH258009   6.376   5.207  11.170 -0.3351 -0.5983 -0.0940
12173TIP3    H158010   6.334   5.179  11.089 -1.3685  1.5512 -0.3703
12173TIP3    H258011   6.323   5.281  11.200  1.2458 -0.0195  1.4357
12174TIP3   OH258012   6.282   2.578   5.524  0.1475  0.2481  0.1050
12174TIP3    H158013   6.252   2.504   5.577  0.4634  0.0129 -0.0475
12174TIP3    H258014   6.214   2.589   5.458 -0.5539  0.9246  0.9147
12175TIP3   OH258015   5.435   0.139  11.410  0.3366  0.1577 -0.2070
12175TIP3    H158016   5.412   0.053  11.375 -1.6132  0.0497  1.1674
12175TIP3    H258017   5.468   0.121  11.498 -3.0192  0.8618  1.3895
12176TIP3   OH258018   5.594   5.676   1.149 -0.9753 -0.0013 -0.3628
12176TIP3    H158019   5.530   5.706   1.214 -1.1907 -0.4019 -0.3867
12176TIP3    H258020   5.676   5.718   1.175 -1.2835  0.6692 -0.4417
12177TIP3   OH258021   5.875   1.256  12.598  0.1148  0.4606  0.6170
12177TIP3    H158022   5.928   1.336  12.604  1.4826 -0.2267 -1.3225
12177TIP3    H258023   5.937   1.189  12.569 -1.2130 -1.1003  1.2954
12178TIP3   OH258024   1.887   1.223  10.510  0.2573  0.2524 -0.1203
12178TIP3    H158025   1.970   1.242  10.553 -0.6026  0.0993  1.6945
12178TIP3    H258026   1.828   1.293  10.539 -1.4815 -2.0547  2.3622
12179TIP3   OH258027   2.222   1.536  12.254  0.7298  0.3275 -0.5652
12179TIP3    H158028   2.251   1.465  12.311  2.0392  0.2664 -1.2574
12179TIP3    H258029   2.131   1.551  12.279  0.8501 -0.6251  0.5712
12180TIP3   OH258030   2.773   5.372   6.218 -0.2311  0.2833 -0.1873
12180TIP3    H158031   2.712   5.322   6.273 -0.2897  0.8260  0.2426
12180TIP3    H258032   2.832   5.415   6.280  0.6095 -0.2511 -0.5998
12181TIP3   OH258033   4.511   1.074  14.219 -0.5446  0.0850 -0.1592
12181TIP3    H158034   4.603   1.068  14.194 -0.5258  0.6468 -0.2476
12181TIP3    H258035   4.468   1.117  14.145 -0.7355  0.5179  0.1943
12182TIP3   OH258036   3.935   4.289  14.782 -1.0795 -0.4806 -0.0519
12182TIP3    H158037   3.872   4.245  14.725 -2.9804 -0.1436  1.6638
12182TIP3    H258038   3.979   4.352  14.726 -1.8642 -1.1321 -1.4378
12183TIP3   OH258039   5.276   1.574  11.249 -0.5356 -0.1967 -0.1604
12183TIP3    H158040   5.357   1.624  11.239 -1.9533  1.8076 -3.9609
12183TIP3    H258041   5.298   1.486  11.220  0.3679  0.3107 -1.0810
12184TIP3   OH258042   1.743   0.335   3.390  0.1820  0.1209  0.0845
12184TIP3    H158043   1.828   0.304   3.421  0.7055  1.7658  0.4167
12184TIP3    H258044   1.680   0.304   3.455  0.7227  0.0608  0.5891
12185TIP3   OH258045   1.402   6.523   4.474  0.1202  0.0097 -0.3737
12185TIP3    H158046   1.375   6.478   4.394 -1.2117 -0.6307  0.4100
12185TIP3    H258047   1.493   6.497   4.487 -0.3417 -1.7298 -0.4375
12186TIP3   OH258048   5.849   1.055   6.332  0.0154  0.2715 -0.0593
12186TIP3    H158049   5.800   1.053   6.414 -0.9701  1.0257 -0.6118
12186TIP3    H258050   5.837   1.144   6.299 -0.3968 -0.2812 -1.4807
12187TIP3   OH258051   1.721   6.777   4.005 -0.1463  0.0807  0.2492
12187TIP3    H158052   1.784   6.735   4.064 -0.2008  1.6920  1.5442
12187TIP3    H258053   1.690   6.853   4.055 -0.3230  1.4367 -1.8169
12188TIP3   OH258054   1.914   3.078  12.605  0.3296 -0.1187 -0.6392
12188TIP3    H158055   1.822   3.052  12.608  0.1615  0.4660 -0.5757
12188TIP3    H258056   1.912   3.171  12.582  0.9187 -0.1839 -0.9577
12189TIP3   OH258057   2.235   5.884  17.178  0.1988  0.6236  0.4189
12189TIP3    H158058   2.315   5.889  17.127  0.1143 -0.3884  0.1597
12189TIP3    H258059   2.250   5.812  17.240 -0.3060  0.7769  0.7348
12190TIP3   OH258060   5.718   4.202   6.776  0.4017 -0.3115 -0.5204
12190TIP3    H158061   5.783   4.132   6.788  1.8727  1.1849  0.7726
12190TIP3    H258062   5.770   4.280   6.757 -1.0827  0.7632 -0.3547
12191TIP3   OH258063   6.245   2.386  16.895  0.2961  0.1023  0.5159
12191TIP3    H158064   6.177   2.343  16.844  1.7685 -0.7479 -0.8193
12191TIP3    H258065   6.293   2.314  16.937  0.7780  0.6395  0.9079
12192TIP3   OH258066   5.236   4.717  12.951 -0.5235  0.2868 -0.7333
12192TIP3    H158067   5.276   4.638  12.914 -1.4542  0.8460 -3.1401
12192TIP3    H258068   5.175   4.685  13.016  1.0727 -0.7830  0.3087
12193TIP3   OH258069   5.192   0.494  13.519  0.1167  0.5480 -0.7194
12193TIP3    H158070   5.180   0.583  13.487  0.6247  0.6448 -0.6528
12193TIP3    H258071   5.139   0.440  13.461 -0.6506  0.9546 -0.4086
12194TIP3   OH258072   2.178   6.498  13.310  0.2275  0.1632  0.1232
12194TIP3    H158073   2.213   6.448  13.383  0.2410 -0.4969 -0.3297
12194TIP3    H258074   2.083   6.482  13.315  0.3453 -0.9181 -0.7458
12195TIP3   OH258075   1.124   3.262   5.727 -0.0666 -0.1378  0.2665
12195TIP3    H158076   1.195   3.265   5.791 -0.9419  0.9806  1.2430
12195TIP3    H258077   1.166   3.279   5.643  0.8340  0.5721  0.8385
12196TIP3   OH258078   5.125   2.914   6.069 -0.0583 -0.1383 -0.0000
12196TIP3    H158079   5.181   2.884   5.997  0.1887  2.1377 -0.8455
12196TIP3    H258080   5.056   2.849   6.075  0.8669 -1.2744 -1.1561
12197TIP3   OH258081   6.462   3.316  14.588 -0.7116  0.0254 -0.1876
12197TIP3    H158082   6.438   3.234  14.632  1.4186 -1.1045 -0.9586
12197TIP3    H258083   6.462   3.293  14.495 -1.7888  1.4136 -0.5511
12198TIP3   OH258084   1.069   2.443   0.569  0.1186  0.8420  0.7667
12198TIP3    H158085   1.017   2.463   0.491 -0.0711 -2.7167 -0.1976
12198TIP3    H258086   1.157   2.427   0.536  0.6669  1.8328  1.6921
12199TIP3   OH258087   5.628   1.807   2.550 -0.1233  0.6579  0.3536
12199TIP3    H158088   5.673   1.722   2.549  1.0947  1.2807  0.6606
12199TIP3    H258089   5.613   1.827   2.457  0.8221  0.7417  0.2132
12200TIP3   OH258090   5.316   6.083   2.915 -0.0268  0.1725 -0.7607
12200TIP3    H158091   5.231   6.065   2.875  0.4913  0.7955 -2.1947
12200TIP3    H258092   5.377   6.087   2.842  1.2398 -0.1586  0.2373
12201TIP3   OH258093   2.758   6.777  11.152  0.1579 -0.2176 -0.0445
12201TIP3    H158094   2.765   6.826  11.233  0.7536  0.9105 -0.7608
12201TIP3    H258095   2.739   6.842  11.085 -0.0877 -1.0985 -0.8676
12202TIP3   OH258096   2.832   0.558  11.167 -0.2932 -0.0864  0.1580
12202TIP3    H158097   2.806   0.483  11.220 -0.1170 -0.9164 -0.8990
12202TIP3    H258098   2.916   0.533  11.129  1.5436  2.0207  2.4575
12203TIP3   OH258099   4.774   3.950   4.011  0.5674 -0.8796 -0.2683
12203TIP3    H158100   4.750   3.861   4.038  3.3272 -1.8996 -0.9034
12203TIP3    H258101   4.696   3.982   3.966 -1.3217 -2.0749  1.9135
12204TIP3   OH258102   6.655   6.219  11.398 -0.0474 -0.3747  0.3523
12204TIP3    H158103   6.741   6.246  11.429  0.6202 -0.3379 -1.4081
12204TIP3    H258104   6.624   6.292  11.345 -0.9326 -0.6116  0.5206
12205TIP3   OH258105   4.353   1.689   2.761 -0.6496  0.0406  0.9859
12205TIP3    H158106   4.339   1.783   2.767  0.7468  0.2052  2.2949
12205TIP3    H258107   4.442   1.680   2.727 -1.4864 -0.8663 -1.1493
12206TIP3   OH258108   2.304   2.665  13.342  0.0717 -0.5287 -0.4820
12206TIP3    H158109   2.291   2.726  13.269 -2.0131 -0.0031  0.2512
12206TIP3    H258110   2.397   2.644  13.340  0.7459  2.1682 -1.1535
12207TIP3   OH258111   0.069   1.742  11.148  0.7016  0.4059  0.3277
12207TIP3    H158112   0.161   1.757  11.170  0.7246 -0.6112  0.9798
12207TIP3    H258113   0.066   1.750  11.052  1.1975  1.7485  0.4031
12208TIP3   OH258114   1.480   3.664  12.919  0.0089  0.0891 -0.2473
12208TIP3    H158115   1.421   3.721  12.869  0.9303 -0.0585 -1.5578
12208TIP3    H258116   1.567   3.682  12.882  0.5351 -1.0049  0.4181
12209TIP3   OH258117   2.802   1.452  15.946 -0.2691  0.3469 -0.2546
12209TIP3    H158118   2.771   1.542  15.936  1.5734  1.0019 -0.3357
12209TIP3    H258119   2.787   1.413  15.860 -1.4622  0.4136 -0.1055
12210TIP3   OH258120   2.550   4.647   5.244 -0.2617 -0.2119 -0.0470
12210TIP3    H158121   2.498   4.710   5.194 -1.3579 -1.1413 -0.1072
12210TIP3    H258122   2.528   4.562   5.206  1.7561 -0.6009 -0.4799
12211TIP3   OH258123   6.267   1.919   0.774 -0.4381 -0.0803 -0.3071
12211TIP3    H158124   6.318   1.848   0.812 -0.7172  0.6767  1.6404
12211TIP3    H258125   6.332   1.980   0.739 -0.1665 -0.7929 -1.0664
12212TIP3   OH258126   0.297   0.074   5.717 -0.0615  0.3529 -0.0788
12212TIP3    H158127   0.317   0.087   5.810 -0.3101 -0.5068  0.1025
12212TIP3    H258128   0.307  -0.021   5.704 -0.2518  0.4405 -0.8755
12213TIP3   OH258129   1.263   3.889   1.040  0.2165  0.5770  0.3473
12213TIP3    H158130   1.301   3.829   0.975 -1.0412 -0.7319  0.7543
12213TIP3    H258131   1.194   3.837   1.082 -1.5948  2.6505  0.0576
12214TIP3   OH258132   0.083   5.498  14.702 -0.5569  0.0854  0.0945
12214TIP3    H158133   0.016   5.559  14.670 -0.8608 -2.1311 -4.0732
12214TIP3    H258134   0.159   5.514  14.647  0.5857 -0.9575  1.3024
12215TIP3   OH258135   1.112   3.675   3.851  0.0377 -0.2129  0.1719
12215TIP3    H158136   1.160   3.594   3.871 -2.2202 -2.0226 -1.1790
12215TIP3    H258137   1.128   3.732   3.926  0.0496 -2.7372  2.2397
12216TIP3   OH258138   3.986   3.361   2.511  0.2143 -0.6435 -0.7168
12216TIP3    H158139   3.931   3.410   2.572  1.4993  1.3354 -1.0741
12216TIP3    H258140   3.933   3.353   2.432  1.1768  3.5102 -2.0021
12217TIP3   OH258141   6.694   0.990  12.743  0.0066  0.2135  0.3840
12217TIP3    H158142   6.745   1.011  12.665 -0.5326  1.3261  0.3017
12217TIP3    H258143   6.625   0.932  12.712  0.8906 -0.8891  0.4032
12218TIP3   OH258144   4.519   4.550  11.027  0.2340 -0.6681 -0.0418
12218TIP3    H158145   4.443   4.586  11.073 -0.4891 -0.8936 -1.0302
12218TIP3    H258146   4.593   4.601  11.060 -0.2505 -0.8250  1.3619
12219TIP3   OH258147   4.762   5.160   1.491 -0.2146  0.7487 -0.1213
12219TIP3    H158148   4.842   5.135   1.445 -0.3163  1.3194 -0.6089
12219TIP3    H258149   4.752   5.254   1.474 -1.4010  0.5339 -0.7035
12220TIP3   OH258150   6.824   0.949  11.541 -0.0524  0.0381 -0.2907
12220TIP3    H158151   6.796   0.936  11.632  0.9491 -1.1176 -0.1177
12220TIP3    H258152   6.906   0.999  11.548 -2.1326  3.8747 -0.8147
12221TIP3   OH258153   0.183   3.331   5.502  0.0282 -0.1500  0.1105
12221TIP3    H158154   0.088   3.320   5.493  0.1824 -1.4768 -0.0873
12221TIP3    H258155   0.210   3.374   5.421 -0.3809  0.0697  0.0879
12222TIP3   OH258156   1.063   5.575  16.053  0.0608  0.0078  0.0196
12222TIP3    H158157   1.007   5.498  16.061 -0.9396  0.8379  1.5091
12222TIP3    H258158   1.049   5.606  15.964 -0.4095 -0.8854 -0.2255
12223TIP3   OH258159   3.454   4.096  15.573  0.7855  0.0874 -0.1559
12223TIP3    H158160   3.405   4.079  15.492 -1.6787  0.4716  1.1353
12223TIP3    H258161   3.538   4.131  15.544  0.3592 -0.6903 -2.5485
12224TIP3   OH258162   2.369   0.010  16.719  0.2874  0.2156  0.5069
12224TIP3    H158163   2.406   0.081  16.772  2.3278 -0.2617 -0.1776
12224TIP3    H258164   2.329  -0.049  16.783  0.7981  0.7238  1.3185
12225TIP3   OH258165   5.801   3.067  14.817  0.3739  0.2952 -0.1872
12225TIP3    H158166   5.804   3.149  14.768 -0.7589  0.3233 -0.2335
12225TIP3    H258167   5.891   3.035  14.815  1.3443  2.5638  1.5910
12226TIP3   OH258168   2.868   1.429  14.202 -0.0857  0.0547  0.0291
12226TIP3    H158169   2.875   1.464  14.291 -1.0505 -0.9261  0.5159
12226TIP3    H258170   2.815   1.494  14.155 -0.6555 -0.0342  0.5321
12227TIP3   OH258171   1.170   1.710  13.462  0.3203 -0.0423  0.4873
12227TIP3    H158172   1.254   1.664  13.463 -0.0283 -0.7389 -0.6402
12227TIP3    H258173   1.165   1.753  13.547  2.0229  0.3850  0.3978
12228TIP3   OH258174   5.734   2.121   2.391  0.5965 -0.0322 -0.1328
12228TIP3    H158175   5.639   2.133   2.398  0.3459 -1.9573  0.2438
12228TIP3    H258176   5.744   2.039   2.343  2.0529 -0.5076  0.9367
12229TIP3   OH258177   6.579   0.916   5.381  0.1002 -0.2161  0.3006
12229TIP3    H158178   6.632   0.994   5.394  1.2255 -1.1336  1.4742
12229TIP3    H258179   6.489   0.948   5.378  0.6331  1.2935 -0.9530
12230TIP3   OH258180   0.055   5.986   1.540 -0.3094  0.4827  0.1487
12230TIP3    H158181   0.041   6.006   1.633  1.3523 -0.2029  0.5815
12230TIP3    H258182  -0.015   6.033   1.495  0.7690  3.6557  1.4562
12231TIP3   OH258183   0.111   0.511   0.380 -0.1307 -0.6964  0.4102
12231TIP3    H158184   0.201   0.518   0.347  0.1475 -2.7911  0.5888
12231TIP3    H258185   0.067   0.588   0.346  1.6020  0.1076 -0.1293
12232TIP3   OH258186   2.577   3.223   6.231 -0.5096  0.4485  0.4054
12232TIP3    H158187   2.582   3.309   6.190  0.0570  0.1316 -0.2063
12232TIP3    H258188   2.536   3.168   6.164 -0.7721  0.2161  0.7559
12233TIP3   OH258189   1.589   2.696   2.000 -0.0316 -0.4029  0.3335
12233TIP3    H158190   1.505   2.717   2.041  0.3392 -0.2313  1.0174
12233TIP3    H258191   1.572   2.704   1.906 -0.2917  1.6064  0.5034
12234TIP3   OH258192   3.390   3.285  12.837  0.5248 -0.0236 -0.0760
12234TIP3    H158193   3.326   3.349  12.807  0.8466  0.3120 -0.0490
12234TIP3    H258194   3.377   3.209  12.780 -0.8985 -0.5336  0.8703
12235TIP3   OH258195   5.006   1.956   2.943  0.0588  0.2086  0.1037
12235TIP3    H158196   5.066   2.031   2.940 -0.5255  0.6707 -1.5562
12235TIP3    H258197   4.921   1.994   2.966  0.2915 -0.3963  2.1358
12236TIP3   OH258198   4.802   3.378  13.958  0.5675 -0.0291 -0.4003
12236TIP3    H158199   4.812   3.285  13.937  2.1835  0.0104  0.0093
12236TIP3    H258200   4.875   3.421  13.913 -0.3202  1.0894 -0.8175
12237TIP3   OH258201   3.917   2.195  13.483 -0.1263  0.5229  0.7416
12237TIP3    H158202   4.004   2.158  13.491 -0.6412 -0.6269  1.2776
12237TIP3    H258203   3.921   2.248  13.403  1.3888  1.5144  1.4294
12238TIP3   OH258204   2.721   1.182   1.391 -0.0460  0.7890  0.2082
12238TIP3    H158205   2.793   1.123   1.413  0.1508  1.3926  1.2541
12238TIP3    H258206   2.763   1.255   1.345 -0.2538  0.2724 -0.8402
12239TIP3   OH258207   0.960   2.839  16.827  0.8522  0.8029 -0.6333
12239TIP3    H158208   0.984   2.831  16.920 -0.5651  0.4072 -0.2804
12239TIP3    H258209   0.980   2.930  16.805 -1.3975  1.7457  0.8749
12240TIP3   OH258210   3.952   1.371   1.509 -0.4854 -0.3730 -0.4795
12240TIP3    H158211   3.985   1.281   1.514  1.3752  0.2512 -0.5139
12240TIP3    H258212   4.026   1.421   1.474 -0.8848  1.4444  1.0808
12241TIP3   OH258213   2.136   1.562   4.656  0.2096  0.2293  0.0751
12241TIP3    H158214   2.184   1.480   4.643  0.4291  0.3369  0.1901
12241TIP3    H258215   2.073   1.566   4.584 -0.6745 -0.6504  0.7797
12242TIP3   OH258216   0.289   1.271   5.611  0.4598  0.4485  0.1050
12242TIP3    H158217   0.238   1.191   5.594  0.0924  0.7327 -0.1575
12242TIP3    H258218   0.282   1.284   5.705  1.5065 -0.4815  0.3288
12243TIP3   OH258219   2.079   2.357   4.760 -0.1500  0.0344  0.3970
12243TIP3    H158220   2.031   2.440   4.766 -0.2838 -0.0186  0.0898
12243TIP3    H258221   2.032   2.308   4.692  0.3771  0.0091  0.0466
12244TIP3   OH258222   4.935   1.571   0.868  0.1965  0.2200  0.1574
12244TIP3    H158223   4.936   1.566   0.963  2.9083  0.5058  0.2021
12244TIP3    H258224   4.893   1.655   0.849  0.5404  0.6152  1.1243
12245TIP3   OH258225   4.072   4.774  12.187  0.1127 -0.3600 -0.3087
12245TIP3    H158226   4.051   4.701  12.130 -0.9223  0.7144 -1.3621
12245TIP3    H258227   4.093   4.846  12.128 -2.1604  1.1441  0.5554
12246TIP3   OH258228   6.812   2.357  15.414 -0.4527 -0.3880  0.4561
12246TIP3    H158229   6.797   2.271  15.375  1.9301 -0.8958  0.4705
12246TIP3    H258230   6.803   2.419  15.342 -2.3877 -0.5841  0.4880
12247TIP3   OH258231   0.150   6.595   3.012  0.6484 -0.4650  0.1566
12247TIP3    H158232   0.201   6.598   2.931  0.9116  0.2392  0.3495
12247TIP3    H258233   0.180   6.670   3.063 -1.0810  0.4036 -0.0295
12248TIP3   OH258234   1.658   3.510  14.878  0.6929  0.4687 -0.5791
12248TIP3    H158235   1.691   3.582  14.931 -0.0450  1.8642 -1.9460
12248TIP3    H258236   1.564   3.527  14.870  0.5814 -0.4094 -1.2788
12249TIP3   OH258237   2.735   4.754  12.710 -0.4368 -0.3222  0.1952
12249TIP3    H158238   2.673   4.743  12.782  0.7240  0.2704  1.3282
12249TIP3    H258239   2.737   4.849  12.694  0.4872 -0.2804  0.4827
12250TIP3   OH258240   3.396   5.705   5.384  0.2302 -0.4451  0.0806
12250TIP3    H158241   3.302   5.716   5.378  0.2654  0.3915  0.8612
12250TIP3    H258242   3.409   5.645   5.458  0.3811  1.4190  1.6352
12251TIP3   OH258243   6.061   5.399   1.146 -0.2834 -1.0793 -0.2131
12251TIP3    H158244   6.062   5.494   1.159 -1.6897 -1.3089  2.0030
12251TIP3    H258245   6.105   5.386   1.062  0.9256  1.4384 -0.0529
12252TIP3   OH258246   5.897   2.254  11.911  0.5299  0.1701  0.0478
12252TIP3    H158247   5.894   2.246  11.815 -0.8665  1.3205 -0.0355
12252TIP3    H258248   5.882   2.164  11.942 -3.6398  0.3241 -0.8717
12253TIP3   OH258249   3.743   2.580  16.083  0.3735  0.5619 -0.0389
12253TIP3    H158250   3.732   2.508  16.145  1.2482 -0.9225 -1.5268
12253TIP3    H258251   3.757   2.657  16.138  0.3085 -0.5425  1.6025
12254TIP3   OH258252   1.239   6.223  15.630  0.0418 -0.8794  0.2065
12254TIP3    H158253   1.207   6.133  15.621  0.2435 -0.9477  0.1875
12254TIP3    H258254   1.331   6.214  15.654  0.1328 -0.6755 -0.0637
12255TIP3   OH258255   0.821   4.711   3.563 -0.2403  1.0242 -0.5975
12255TIP3    H158256   0.869   4.659   3.627 -0.7937 -0.3541 -1.2533
12255TIP3    H258257   0.886   4.732   3.495 -0.3166 -0.0736 -1.0399
12256TIP3   OH258258   4.463   2.274   5.756  0.9454 -0.8665 -0.3613
12256TIP3    H158259   4.513   2.268   5.675 -0.9189 -2.7093 -1.4697
12256TIP3    H258260   4.481   2.363   5.789 -0.6548  1.2461 -4.4585
12257TIP3   OH258261   1.387   3.104   4.216 -0.0839  0.0946 -0.3376
12257TIP3    H158262   1.452   3.070   4.277 -0.4970 -3.0050 -1.4635
12257TIP3    H258263   1.307   3.113   4.268  0.1616 -0.2001  0.0922
12258TIP3   OH258264   6.242   4.507  15.802  0.1037 -0.0997 -0.3921
12258TIP3    H158265   6.202   4.551  15.727  0.1045  1.7027  0.6177
12258TIP3    H258266   6.170   4.462  15.846  0.0298 -0.7751 -1.1816
12259TIP3   OH258267   1.929   4.797   0.518  0.7088  0.0651  0.3525
12259TIP3    H158268   1.955   4.726   0.460 -0.4598  2.1009 -2.9642
12259TIP3    H258269   2.010   4.825   0.560  1.6417 -1.4404 -0.3618
12260TIP3   OH258270   0.176   1.432   3.384  0.4141 -0.1134 -0.2076
12260TIP3    H158271   0.265   1.436   3.420  0.4814 -2.1142 -0.0299
12260TIP3    H258272   0.174   1.350   3.335 -0.6091  1.0867 -2.3062
12261TIP3   OH258273   1.410   2.076   5.627 -0.4154  0.0719 -0.1680
12261TIP3    H158274   1.367   2.129   5.694 -1.7078  2.9089 -3.0076
12261TIP3    H258275   1.340   2.052   5.567  1.1858  1.0713 -2.6047
12262TIP3   OH258276   1.618   1.845  13.236 -0.1817 -0.4439  0.3029
12262TIP3    H158277   1.553   1.791  13.190 -1.3586  0.3271  1.0323
12262TIP3    H258278   1.577   1.931  13.244  0.9240  0.0537  0.8045
12263TIP3   OH258279   0.520   3.601   3.045  0.7158 -0.8560 -0.5726
12263TIP3    H158280   0.552   3.682   3.007  0.9369  0.0389  1.3988
12263TIP3    H258281   0.434   3.624   3.081  1.3477 -1.0832  1.1868
12264TIP3   OH258282   0.109   0.883  16.007 -0.2765  0.3339  0.3549
12264TIP3    H158283   0.190   0.834  15.995 -0.6312 -0.0360 -0.6845
12264TIP3    H258284   0.106   0.943  15.933 -1.3137 -0.1864 -0.0470
12265TIP3   OH258285   5.477   4.554   0.528  0.2044 -0.5408  0.3148
12265TIP3    H158286   5.406   4.538   0.465 -0.4949 -0.7918  1.1359
12265TIP3    H258287   5.511   4.640   0.505 -0.9951 -0.0083  0.4679
12266TIP3   OH258288   4.899   0.159  16.293  0.1401 -0.1410 -0.0795
12266TIP3    H158289   4.934   0.168  16.204  3.4207  1.0288  1.2012
12266TIP3    H258290   4.837   0.231  16.301  2.6392  2.1936 -0.2984
12267TIP3   OH258291   4.550   5.414  11.415  0.2351 -0.2248 -0.4880
12267TIP3    H158292   4.460   5.430  11.443  0.1847  2.2082 -1.7973
12267TIP3    H258293   4.544   5.336  11.360 -1.2961  0.5438 -1.4907
12268TIP3   OH258294   3.665   1.701  13.784  0.3857 -0.3591  0.1697
12268TIP3    H158295   3.722   1.633  13.818  0.1585 -0.9703 -0.6313
12268TIP3    H258296   3.676   1.775  13.845  2.8060 -0.0639 -0.5224
12269TIP3   OH258297   3.200   5.118  15.269  0.6121  0.0387 -0.1736
12269TIP3    H158298   3.278   5.079  15.309  0.4620  0.7234  0.8287
12269TIP3    H258299   3.211   5.103  15.175  1.3901 -0.8805  0.0460
12270TIP3   OH258300   1.188   3.448  13.502  0.4173 -0.2819  0.0090
12270TIP3    H158301   1.130   3.404  13.440  1.8307 -2.2687 -0.0263
12270TIP3    H258302   1.158   3.418  13.588  0.1869  0.2304  0.1056
12271TIP3   OH258303   5.207   4.308   5.045 -0.8771  0.9559  0.1706
12271TIP3    H158304   5.294   4.325   5.009 -1.2541 -0.2170 -1.4244
12271TIP3    H258305   5.174   4.234   4.994 -1.8171 -0.3197  2.4517
12272TIP3   OH258306   0.570   1.390  14.535  0.2394  0.1491 -0.0523
12272TIP3    H158307   0.497   1.424  14.585  0.8836  1.4860  0.0134
12272TIP3    H258308   0.646   1.403  14.591  0.4986 -1.7185  0.1133
12273TIP3   OH258309   6.838   0.066  15.135  0.1926  0.1371 -0.0444
12273TIP3    H158310   6.888   0.013  15.073  1.0560 -0.2415  0.9555
12273TIP3    H258311   6.902   0.094  15.200 -0.6872  0.5551  0.6625
12274TIP3   OH258312   2.648   0.921  13.540  0.4481  0.7229  0.0621
12274TIP3    H158313   2.733   0.895  13.574  0.1752  0.7605  0.8060
12274TIP3    H258314   2.659   1.013  13.515  0.4331  0.9676  0.8933
12275TIP3   OH258315   4.759   1.802  12.263 -0.4427  0.2040  0.0336
12275TIP3    H158316   4.845   1.833  12.236  0.6873 -2.8268 -0.2366
12275TIP3    H258317   4.742   1.845  12.347  2.0478 -0.2688  0.8449
12276TIP3   OH258318   4.774   4.848  10.859  0.2142  0.5888 -0.1790
12276TIP3    H158319   4.768   4.942  10.874 -0.8573  0.1595  2.6461
12276TIP3    H258320   4.687   4.822  10.829  0.5621  0.4921 -1.1459
12277TIP3   OH258321   4.019   4.649   1.786 -0.0148  0.4530  0.5843
12277TIP3    H158322   4.019   4.556   1.807  2.0915  0.2126 -0.2151
12277TIP3    H258323   3.951   4.659   1.720 -0.8201 -0.3363  1.2623
12278TIP3   OH258324   1.988   4.593  10.693  0.0761 -0.5674 -0.2920
12278TIP3    H158325   1.991   4.601  10.788  0.4742 -0.3693 -0.3163
12278TIP3    H258326   1.898   4.616  10.669  0.1527  0.0451 -0.0174
12279TIP3   OH258327   0.135   6.695  13.129 -0.0338 -0.6995  0.1277
12279TIP3    H158328   0.160   6.651  13.210  1.1053 -0.6805 -0.1998
12279TIP3    H258329   0.154   6.787  13.146  0.5989 -0.7494 -0.3018
12280TIP3   OH258330   0.676   5.295   5.551  0.5130  0.2391  0.1897
12280TIP3    H158331   0.665   5.261   5.462 -1.8831  1.8057 -0.2139
12280TIP3    H258332   0.765   5.271   5.575  1.7011  0.7934 -3.1121
12281TIP3   OH258333   5.012   2.599  15.932 -0.0596  0.1745  0.5722
12281TIP3    H158334   5.034   2.693  15.928 -1.3981  0.5124  0.8102
12281TIP3    H258335   4.985   2.578  15.843 -1.3210  0.4233  0.8851
12282TIP3   OH258336   3.697   0.003  15.715  0.2496  0.0507  0.0287
12282TIP3    H158337   3.666   0.092  15.734 -0.8082 -0.2130 -0.3723
12282TIP3    H258338   3.695  -0.042  15.799  0.8938  0.4319  0.2537
12283TIP3   OH258339   5.308   3.066  17.183 -0.1943 -0.3303 -0.3370
12283TIP3    H158340   5.363   3.053  17.106  0.3099 -0.0493 -0.0256
12283TIP3    H258341   5.285   3.159  17.181  1.9731  0.3073  1.2654
12284TIP3   OH258342   6.414   0.549  16.745  0.6496  0.3194  0.5883
12284TIP3    H158343   6.321   0.532  16.759  0.9222 -0.3971  1.6841
12284TIP3    H258344   6.455   0.528  16.829  1.8293  0.3861  0.0480
12285TIP3   OH258345   0.905   1.393  13.032 -0.1136 -0.2936  0.2003
12285TIP3    H158346   0.841   1.410  12.963 -2.4208 -2.0370  1.7720
12285TIP3    H258347   0.856   1.400  13.114  2.1828  0.2208  1.6185
12286TIP3   OH258348   5.668   4.702   1.803  0.7038  0.0372  0.1740
12286TIP3    H158349   5.588   4.728   1.849 -0.1512 -1.5042 -0.3882
12286TIP3    H258350   5.719   4.654   1.868  1.3836  1.3301  0.6397
12287TIP3   OH258351   4.169   0.084   4.636 -0.0369 -0.5621  1.0606
12287TIP3    H158352   4.088   0.124   4.605  0.4336 -0.7549 -0.5354
12287TIP3    H258353   4.223   0.158   4.665 -0.2358 -0.2893  0.7471
12288TIP3   OH258354   3.007   4.222  12.942 -0.3052 -0.2693  0.4770
12288TIP3    H158355   2.964   4.150  12.987  0.1988 -0.7003  0.2753
12288TIP3    H258356   2.995   4.203  12.849 -1.3566  0.6217  0.4036
12289TIP3   OH258357   0.910   2.664  10.291  0.0666  0.0864 -0.3484
12289TIP3    H158358   0.903   2.570  10.309  1.1848  0.3546  1.7297
12289TIP3    H258359   0.992   2.691  10.332  1.0399  1.5525 -3.0283
12290TIP3   OH258360   5.593   3.487   3.618  0.2712 -0.0500 -0.0485
12290TIP3    H158361   5.522   3.548   3.599  0.3286  0.5481  1.5033
12290TIP3    H258362   5.575   3.456   3.707  1.2584 -0.8612 -0.1110
12291TIP3   OH258363   0.845   0.061   1.036 -0.0216  0.0764 -0.1175
12291TIP3    H158364   0.823   0.098   1.122 -1.5357  0.9722 -0.8567
12291TIP3    H258365   0.905   0.124   0.998 -0.2866  0.2871 -0.1901
12292TIP3   OH258366   5.439   1.029  13.141 -0.3528 -0.6246 -0.1633
12292TIP3    H158367   5.392   0.960  13.094 -3.0852  0.4379  0.7603
12292TIP3    H258368   5.391   1.039  13.224  2.2010 -0.1034  1.3889
12293TIP3   OH258369   3.990   3.294   5.686 -0.5416 -0.5281  0.0405
12293TIP3    H158370   3.905   3.337   5.672 -0.5177 -0.9336 -1.5020
12293TIP3    H258371   4.045   3.362   5.725 -1.2057  0.1186 -0.1287
12294TIP3   OH258372   0.648   5.090  15.960  0.1024 -0.1459  0.6715
12294TIP3    H158373   0.646   4.995  15.969  0.5718 -0.0848  1.5407
12294TIP3    H258374   0.667   5.122  16.049  0.7559  0.7168  0.2381
12295TIP3   OH258375   4.583   3.042   3.216 -0.4155  0.3938 -0.1392
12295TIP3    H158376   4.659   3.098   3.235  0.3361 -0.4423 -0.5920
12295TIP3    H258377   4.533   3.091   3.150 -0.2708  0.9477  0.1571
12296TIP3   OH258378   1.639   2.226  15.305 -0.2940  0.0910 -0.0703
12296TIP3    H158379   1.631   2.307  15.254  1.2078  1.9000  2.3575
12296TIP3    H258380   1.611   2.250  15.393  0.7331 -1.8764  0.8549
12297TIP3   OH258381   3.075   4.843   0.212  0.1762  0.3873  0.4295
12297TIP3    H158382   3.138   4.894   0.262  0.7186  0.0828  0.0686
12297TIP3    H258383   3.128   4.776   0.168 -0.2524  0.7895 -0.7242
12298TIP3   OH258384   0.868   4.983   2.255 -0.9235  0.0877 -0.4372
12298TIP3    H158385   0.882   5.075   2.234 -1.9386  0.1528 -0.8881
12298TIP3    H258386   0.954   4.951   2.280 -0.4447  1.0158 -0.8350
12299TIP3   OH258387   6.223   3.779  12.251 -0.1422  0.0140 -0.3626
12299TIP3    H158388   6.272   3.711  12.205  0.9430  2.2785 -2.8388
12299TIP3    H258389   6.229   3.756  12.343  3.4946 -1.1930 -0.7601
12300TIP3   OH258390   3.424   3.882  14.666 -0.2091 -0.0147 -0.2024
12300TIP3    H158391   3.441   3.899  14.758 -0.8661 -0.9515  0.1080
12300TIP3    H258392   3.401   3.967  14.629  0.5240  0.4436  0.3825
12301TIP3   OH258393   5.424   6.344   4.051  0.2867  0.1128 -0.5990
12301TIP3    H158394   5.374   6.419   4.019  1.6088 -0.3078 -4.1126
12301TIP3    H258395   5.360   6.273   4.058 -0.7525  1.1932  1.6234
12302TIP3   OH258396   5.777   6.533  16.541 -0.0498 -0.3483  0.3482
12302TIP3    H158397   5.851   6.480  16.569  1.9277  1.1595 -1.6600
12302TIP3    H258398   5.706   6.470  16.528  1.1659 -1.9962  1.3216
12303TIP3   OH258399   3.053   2.968   4.019  0.5494  0.1040  0.6644
12303TIP3    H158400   3.139   2.985   4.056  0.5817  2.6998 -0.3838
12303TIP3    H258401   3.009   2.914   4.084  1.9053  1.2957  2.6800
12304TIP3   OH258402   0.585   3.283   5.424  0.6394 -0.4904 -0.5949
12304TIP3    H158403   0.521   3.217   5.450  1.1181 -0.4542  0.7461
12304TIP3    H258404   0.654   3.234   5.380  0.7841 -0.8332  0.0048
12305TIP3   OH258405   3.812   1.518   3.627 -0.1056  0.1663 -0.5780
12305TIP3    H158406   3.897   1.506   3.669 -0.4765  0.1283  0.1713
12305TIP3    H258407   3.821   1.473   3.543  0.8934  0.9101 -0.8846
12306TIP3   OH258408   5.753   0.206   6.406  0.3747  0.3289  0.8163
12306TIP3    H158409   5.659   0.206   6.389  0.3130  1.6266  1.0400
12306TIP3    H258410   5.787   0.278   6.352  1.1994  0.0328  0.9284
12307TIP3   OH258411   0.090   0.473  15.765 -0.2016 -0.4369 -0.1703
12307TIP3    H158412  -0.002   0.480  15.790 -0.2935 -1.5057 -0.1657
12307TIP3    H258413   0.093   0.498  15.673 -0.4164  0.1059 -0.0287
12308TIP3   OH258414   1.073   3.464  11.244 -0.3225 -0.2539 -0.2578
12308TIP3    H158415   0.982   3.460  11.274 -1.3000  0.6262 -2.8253
12308TIP3    H258416   1.104   3.373  11.250 -1.2298 -0.5091  0.9669
12309TIP3   OH258417   1.856   6.250   2.382  0.4264  0.9303  0.0693
12309TIP3    H158418   1.916   6.292   2.319  0.7686  2.2907  1.2402
12309TIP3    H258419   1.769   6.261   2.343  0.6037  2.0045 -0.0562
12310TIP3   OH258420   1.966   0.167  16.864  0.4734  0.4539  0.0774
12310TIP3    H158421   1.885   0.120  16.884  1.1761  0.2728  2.9586
12310TIP3    H258422   1.946   0.215  16.784 -2.4869  0.4101  0.6558
12311TIP3   OH258423   2.584   4.411   4.658  0.3538 -0.2483  0.3163
12311TIP3    H158424   2.657   4.407   4.597  1.2321  3.8785  0.8473
12311TIP3    H258425   2.625   4.414   4.744 -0.5102  0.6832  0.7045
12312TIP3   OH258426   5.725   3.599   4.634 -0.6160  0.6641 -0.1247
12312TIP3    H158427   5.738   3.683   4.676  1.5093 -0.1950  1.1082
12312TIP3    H258428   5.684   3.544   4.701  1.7068 -0.3659  0.5766
12313TIP3   OH258429   1.117   2.219  15.489 -0.1402 -0.2341 -0.4173
12313TIP3    H158430   1.046   2.280  15.508 -0.8549 -1.2323  0.2351
12313TIP3    H258431   1.074   2.133  15.488  0.7546 -0.6926 -1.7538
12314TIP3   OH258432   2.971   4.964  12.883 -0.7524  0.1518  0.0702
12314TIP3    H158433   2.980   4.938  12.792  0.7108  0.7077  0.0321
12314TIP3    H258434   2.957   4.882  12.930  1.6849 -0.5451 -0.2936
12315TIP3   OH258435   2.952   1.789  13.461 -0.4625  0.1772  0.3547
12315TIP3    H158436   2.910   1.845  13.526 -0.0564  1.8526 -0.7744
12315TIP3    H258437   3.009   1.847  13.412 -1.3590 -0.8460 -2.0534
12316TIP3   OH258438   4.114   5.186   0.597 -0.4345 -0.0799 -0.3319
12316TIP3    H158439   4.106   5.280   0.610  0.7955 -0.2993  3.0699
12316TIP3    H258440   4.044   5.148   0.650  0.1721 -1.0946 -0.2160
12317TIP3   OH258441   6.443   4.387  15.667  0.2853  0.3218 -0.3119
12317TIP3    H158442   6.449   4.306  15.718 -4.1069 -0.5425 -0.7936
12317TIP3    H258443   6.381   4.442  15.715 -2.4398  0.3024 -3.4611
12318TIP3   OH258444   3.280   2.737   4.104  0.4320 -0.0920  0.4950
12318TIP3    H158445   3.282   2.647   4.134 -0.5091 -0.1056  0.5372
12318TIP3    H258446   3.279   2.790   4.184 -0.4247 -0.0838  0.4805
12319TIP3   OH258447   2.011   3.192   0.358 -0.2747 -0.2698 -0.0709
12319TIP3    H158448   2.071   3.265   0.341 -0.4270 -0.2643 -0.6110
12319TIP3    H258449   1.927   3.222   0.322 -0.9489  0.2621  1.8349
12320TIP3   OH258450   4.439   5.632   4.182  0.2308 -0.3437  0.3462
12320TIP3    H158451   4.521   5.583   4.175  1.1913  1.1683  0.4172
12320TIP3    H258452   4.421   5.660   4.093  0.3819  0.2209  0.4891
12321TIP3   OH258453   5.225   5.269   4.818  0.1096 -0.3429 -0.2011
12321TIP3    H158454   5.291   5.303   4.758  1.0333 -1.0889  0.3702
12321TIP3    H258455   5.271   5.261   4.902 -1.0451  0.2993  0.5178
12322TIP3   OH258456   2.072   6.749   4.411  0.0340  0.1791 -0.4610
12322TIP3    H158457   2.137   6.816   4.433  0.3240 -0.1676 -0.2363
12322TIP3    H258458   2.093   6.676   4.470 -0.2281 -0.1362 -0.7575
12323TIP3   OH258459   4.790   2.983   1.189 -0.0529 -0.3937  0.2348
12323TIP3    H158460   4.817   3.063   1.143 -1.8883 -0.3946 -0.9521
12323TIP3    H258461   4.821   2.912   1.133  1.1201 -0.5465  1.0298
12324TIP3   OH258462   5.494   0.527   1.062  0.5243 -0.0191 -0.1446
12324TIP3    H158463   5.566   0.475   1.026  0.0026 -1.1386  0.3690
12324TIP3    H258464   5.530   0.566   1.141  0.9567  0.5216 -0.5972
12325TIP3   OH258465   4.430   5.921  16.970 -0.3685  0.2813  0.0633
12325TIP3    H158466   4.398   5.845  17.018  1.7002 -1.1826 -0.7290
12325TIP3    H258467   4.459   5.982  17.038  0.4514 -0.8181  0.7473
12326TIP3   OH258468   1.983   2.462   2.319 -0.0991 -0.8251  0.0869
12326TIP3    H158469   1.973   2.496   2.408  0.7919 -0.7097  0.1486
12326TIP3    H258470   2.070   2.421   2.318  0.8702  1.1140 -1.3426
12327TIP3   OH258471   3.212   6.789  16.211 -0.6546 -0.0679 -0.2785
12327TIP3    H158472   3.240   6.736  16.286 -2.4568  1.6403  1.7026
12327TIP3    H258473   3.140   6.740  16.172 -0.0978 -0.6688 -0.5825
12328TIP3   OH258474   5.363   1.983  11.619  0.2285  0.1869  0.0497
12328TIP3    H158475   5.417   1.913  11.582 -0.1474 -0.7080  1.1435
12328TIP3    H258476   5.297   2.000  11.552 -0.1209 -1.0376  0.0684
12329TIP3   OH258477   1.881   5.203   1.188  0.0232 -1.0218  0.3158
12329TIP3    H158478   1.886   5.174   1.279 -1.1166 -1.9906  0.1078
12329TIP3    H258479   1.847   5.292   1.193 -1.7990 -1.6955  0.8165
12330TIP3   OH258480   0.769   5.904  12.461 -0.2564 -0.3794  0.4677
12330TIP3    H158481   0.700   5.968  12.478  0.5220  0.2472  1.3464
12330TIP3    H258482   0.740   5.858  12.381 -1.6538 -0.1073  0.7923
12331TIP3   OH258483   6.735   2.789   3.613  0.2576 -0.5268 -0.2648
12331TIP3    H158484   6.743   2.704   3.657 -1.1145 -0.2276  0.6238
12331TIP3    H258485   6.825   2.816   3.596  0.7333 -1.7915  0.1585
12332TIP3   OH258486   5.746   1.715  13.268 -0.0214 -0.3708 -0.6261
12332TIP3    H158487   5.759   1.624  13.243  3.8531 -0.6746  1.6682
12332TIP3    H258488   5.824   1.760  13.235 -0.8677  1.6977  0.0338
12333TIP3   OH258489   3.775   0.505  12.448 -0.0939  0.7420  0.2713
12333TIP3    H158490   3.845   0.509  12.383 -0.6418 -0.5616 -0.4398
12333TIP3    H258491   3.697   0.482  12.398 -1.0620  2.2413  1.0494
12334TIP3   OH258492   5.049   2.687   4.154 -0.1824 -0.0835  0.0876
12334TIP3    H158493   4.962   2.677   4.114 -1.1290 -0.9330  2.1737
12334TIP3    H258494   5.034   2.747   4.227  1.0800  0.0639  0.2469
12335TIP3   OH258495   1.018   1.261   6.608  0.5163  0.1353 -0.0356
12335TIP3    H158496   0.938   1.306   6.634  0.4869  1.9608 -2.8997
12335TIP3    H258497   0.989   1.190   6.552  0.8669  0.4099 -0.5704
12336TIP3   OH258498   1.345   6.513   1.613 -0.2551  0.0680  0.0714
12336TIP3    H158499   1.281   6.486   1.547 -1.1470 -1.5118  1.4948
12336TIP3    H258500   1.303   6.492   1.696 -0.2953  4.3950  1.3853
12337TIP3   OH258501   6.305   6.192  11.941  0.3853 -0.2755 -0.2413
12337TIP3    H158502   6.379   6.198  11.881  0.1914  0.4706 -0.4147
12337TIP3    H258503   6.337   6.230  12.023  0.3925 -0.5505 -0.1138
12338TIP3   OH258504   3.618   6.072   1.154 -0.5432  0.0158 -0.2991
12338TIP3    H158505   3.548   6.137   1.154 -1.8971 -1.3556  1.2337
12338TIP3    H258506   3.677   6.101   1.084 -1.4036  2.5063 -0.1093
12339TIP3   OH258507   1.481   3.986  14.468  0.1857  0.3932  0.2426
12339TIP3    H158508   1.428   4.058  14.504  1.2672  1.4311 -0.1618
12339TIP3    H258509   1.566   3.996  14.511  1.4177  1.4624 -2.2307
12340TIP3   OH258510   5.114   2.781  15.103 -0.1836  0.0471  0.6517
12340TIP3    H158511   5.074   2.700  15.134  0.0296 -0.4373 -0.3213
12340TIP3    H258512   5.201   2.756  15.073 -0.8525  0.2315 -1.5929
12341TIP3   OH258513   4.120   6.391   2.602  0.3330 -0.5479  0.3258
12341TIP3    H158514   4.206   6.365   2.634  1.2591  1.0309 -0.7977
12341TIP3    H258515   4.062   6.320   2.631  2.2597 -2.5117 -0.3410
12342TIP3   OH258516   4.894   6.379  15.992  0.0788 -0.0700  0.0797
12342TIP3    H158517   4.965   6.431  16.029  0.8514  0.1063 -1.5812
12342TIP3    H258518   4.938   6.309  15.943 -0.8697  0.1015 -1.0590
12343TIP3   OH258519   2.480   4.410   1.826  0.3414  0.2727 -0.3222
12343TIP3    H158520   2.549   4.450   1.879  0.2739 -0.3651  0.2678
12343TIP3    H258521   2.414   4.383   1.890  0.4946 -0.9752 -0.6726
12344TIP3   OH258522   5.765   1.332   4.335 -0.1373  0.0670  0.8347
12344TIP3    H158523   5.718   1.396   4.281  0.1430  1.1438  1.8184
12344TIP3    H258524   5.802   1.270   4.273 -0.5689  0.7648 -0.1411
12345TIP3   OH258525   6.812   0.297   0.476 -0.8214  0.0599  0.0266
12345TIP3    H158526   6.861   0.377   0.459  0.5308 -0.6912  0.2386
12345TIP3    H258527   6.726   0.313   0.438  0.0989  0.8177 -1.8717
12346TIP3   OH258528   2.929   6.758  12.060 -0.1573 -0.0164  0.4704
12346TIP3    H158529   2.912   6.666  12.083  0.8040 -0.2104  0.4408
12346TIP3    H258530   2.926   6.804  12.143 -1.5813  0.0990  0.3844
12347TIP3   OH258531   4.493   4.360   1.295 -0.1469 -0.4687  0.2661
12347TIP3    H158532   4.574   4.337   1.340 -1.1372 -2.1158  1.2770
12347TIP3    H258533   4.435   4.392   1.364 -0.6564 -0.0908 -0.3209
12348TIP3   OH258534   6.380   1.079   0.607  0.0434  0.2773 -0.7724
12348TIP3    H158535   6.461   1.053   0.564  0.4597  0.7162 -0.2590
12348TIP3    H258536   6.339   1.139   0.546  0.1550  0.1365 -0.9871
12349TIP3   OH258537   2.195   4.793  16.458 -0.0443  0.3375 -0.2325
12349TIP3    H158538   2.243   4.871  16.487  0.1292  0.1213  0.0555
12349TIP3    H258539   2.103   4.816  16.470  0.0165  0.3714  0.1763
12350TIP3   OH258540   1.404   4.089  11.833  1.0618 -0.1156 -0.6483
12350TIP3    H158541   1.433   4.066  11.744  0.9969 -0.8995 -0.4731
12350TIP3    H258542   1.405   4.006  11.880 -0.4679  0.0154 -0.3480
12351TIP3   OH258543   5.641   6.543   4.886  0.2498 -0.1506  0.1471
12351TIP3    H158544   5.678   6.464   4.847  1.7493  0.8507 -0.5032
12351TIP3    H258545   5.706   6.611   4.871 -1.9003  1.7417 -1.1703
12352TIP3   OH258546   3.415   3.565   4.676  0.0346  0.0988  0.2056
12352TIP3    H158547   3.444   3.631   4.739 -2.2545 -0.4809  2.0240
12352TIP3    H258548   3.474   3.491   4.689 -0.0918  0.1774  1.3683
12353TIP3   OH258549   1.886   2.463  15.757  0.0169 -0.2181  0.1347
12353TIP3    H158550   1.820   2.486  15.691 -0.8216 -1.4616  0.5048
12353TIP3    H258551   1.953   2.415  15.709 -0.6539 -1.2307  0.1883
12354TIP3   OH258552   1.710   1.242   1.408 -0.3418 -0.5015 -0.3893
12354TIP3    H158553   1.728   1.306   1.477  0.8942 -0.9452 -0.2685
12354TIP3    H258554   1.674   1.293   1.336 -3.2801 -0.2274  1.1131
12355TIP3   OH258555   5.928   1.957   1.199 -0.4147 -0.2914 -0.4578
12355TIP3    H158556   5.937   2.035   1.144  0.1099 -0.4826 -0.6456
12355TIP3    H258557   5.857   1.979   1.259 -1.1302 -0.1525 -1.3316
12356TIP3   OH258558   0.202   5.494  16.766  0.0783 -1.0756  0.4147
12356TIP3    H158559   0.285   5.538  16.780 -0.6592  0.2036  0.8731
12356TIP3    H258560   0.216   5.406  16.802  1.3655 -1.0412  0.0571
12357TIP3   OH258561   3.925   0.798  12.179  0.3980  0.2866 -0.1537
12357TIP3    H158562   3.847   0.853  12.185  0.6582  0.9856 -2.3254
12357TIP3    H258563   3.982   0.830  12.249  0.1726  2.2098 -0.7863
12358TIP3   OH258564   4.389   5.327  16.134  0.1696 -0.6557  0.3587
12358TIP3    H158565   4.448   5.372  16.194  0.9998 -1.9197  0.5264
12358TIP3    H258566   4.316   5.388  16.121  1.8883  1.3291 -0.5223
12359TIP3   OH258567   6.026   3.378   2.103 -0.4891  0.8257 -0.5667
12359TIP3    H158568   5.990   3.298   2.063 -0.3407  0.6677 -0.3863
12359TIP3    H258569   5.952   3.418   2.147 -0.6978  1.1003 -1.1625
12360TIP3   OH258570   5.398   4.521  11.041 -0.0058  0.0917  0.2838
12360TIP3    H158571   5.446   4.460  10.985 -1.3128 -1.8418  1.1305
12360TIP3    H258572   5.459   4.540  11.113  1.5783  2.3836 -1.5317
12361TIP3   OH258573   5.724   5.528  11.343 -0.2599  0.1477  0.3801
12361TIP3    H158574   5.750   5.453  11.289 -0.9164 -0.4041  0.8286
12361TIP3    H258575   5.791   5.594  11.324  1.5788 -1.2565  1.5634
12362TIP3   OH258576   5.608   0.996  12.015 -0.4278 -0.0114  0.5118
12362TIP3    H158577   5.548   0.949  11.957  1.4076 -1.4830 -0.2896
12362TIP3    H258578   5.691   0.996  11.969  0.6137  0.5323  2.2894
12363TIP3   OH258579   2.282   5.347   2.803  0.2979  0.0660 -0.1664
12363TIP3    H158580   2.365   5.306   2.827  0.9040  0.8174 -0.9576
12363TIP3    H258581   2.261   5.309   2.718 -0.8071 -1.0282  0.5465
12364TIP3   OH258582   5.126   6.689   5.835 -0.0184 -0.3318  0.0394
12364TIP3    H158583   5.205   6.741   5.821  0.0849  0.0070  1.6555
12364TIP3    H258584   5.126   6.671   5.929 -2.1341  0.1152  0.1728
12365TIP3   OH258585   0.452   5.644  12.824  0.0796 -0.3848 -0.2800
12365TIP3    H158586   0.473   5.706  12.754  1.8457  0.1497  0.6498
12365TIP3    H258587   0.410   5.697  12.891  1.1038 -0.2588  0.2896
12366TIP3   OH258588   6.750   6.240   0.715 -0.4711  0.5892 -0.1916
12366TIP3    H158589   6.712   6.209   0.633 -1.0749  2.0888 -0.4939
12366TIP3    H258590   6.677   6.240   0.777 -0.2044  0.2784  0.1292
12367TIP3   OH258591   0.504   3.722  16.346  0.2127 -0.4701  0.6534
12367TIP3    H158592   0.536   3.715  16.256 -0.3343  0.0143  0.4150
12367TIP3    H258593   0.541   3.645  16.390  1.5735 -0.0032  0.3696
12368TIP3   OH258594   2.417   5.646  16.446  0.0260  0.1875 -0.0768
12368TIP3    H158595   2.413   5.610  16.535 -0.0127  0.9152  0.2267
12368TIP3    H258596   2.504   5.686  16.440  0.7990 -1.5335 -1.0565
12369TIP3   OH258597   6.577   0.455   0.414 -0.4225 -0.0367  0.3866
12369TIP3    H158598   6.509   0.394   0.386  0.2098 -1.3795  1.6656
12369TIP3    H258599   6.541   0.497   0.493 -1.4040  2.3040 -1.1978
12370TIP3   OH258600   3.402   1.764   6.775 -0.7241 -0.3374 -0.2675
12370TIP3    H158601   3.493   1.760   6.745 -0.7882 -0.9640 -0.3914
12370TIP3    H258602   3.374   1.853   6.754  0.1629  0.1835  0.6762
12371TIP3   OH258603   1.667   3.249  14.933  0.3249 -0.3975  0.0089
12371TIP3    H158604   1.671   3.343  14.912 -0.0549 -0.8921 -2.6088
12371TIP3    H258605   1.741   3.211  14.886 -0.2055 -1.5617  0.0964
12372TIP3   OH258606   0.704   5.410   0.207 -0.0790  0.0847  0.3862
12372TIP3    H158607   0.772   5.477   0.202 -0.7434  0.6838 -2.1204
12372TIP3    H258608   0.697   5.376   0.118 -3.0682  0.0931  0.5019
12373TIP3   OH258609   1.678   3.406  12.872 -0.6404 -0.4464  0.0362
12373TIP3    H158610   1.609   3.421  12.936  0.8330  0.3957  1.5030
12373TIP3    H258611   1.633   3.404  12.788 -2.5220 -0.6502  1.0007
12374TIP3   OH258612   6.048   4.207   4.601  0.0958  0.0046  0.3270
12374TIP3    H158613   5.998   4.135   4.563  0.5454  0.2181 -0.7249
12374TIP3    H258614   5.982   4.275   4.618 -0.3660 -0.7192  1.5578
12375TIP3   OH258615   6.099   3.896   0.318  0.4615  0.0159  0.1142
12375TIP3    H158616   6.144   3.858   0.243  0.7662 -0.3322  0.4729
12375TIP3    H258617   6.008   3.905   0.290  0.3780 -0.9934  0.0278
12376TIP3   OH258618   1.552   4.287   3.267  0.3192 -0.3125  0.5001
12376TIP3    H158619   1.507   4.253   3.344  0.3293 -1.3571  0.0525
12376TIP3    H258620   1.606   4.214   3.235  2.7826  1.0336  1.3239
12377TIP3   OH258621   4.681   1.908  16.622 -0.0580 -0.2217 -0.0152
12377TIP3    H158622   4.684   1.815  16.600  1.2658 -0.1414 -0.2551
12377TIP3    H258623   4.772   1.937  16.613 -0.7297  1.5252 -1.8480
12378TIP3   OH258624   1.993   1.620  16.016 -0.3822  0.2226 -0.1108
12378TIP3    H158625   2.087   1.635  16.020 -0.0796 -1.4468 -0.3184
12378TIP3    H258626   1.965   1.670  15.939  0.0246  1.9796  0.8065
12379TIP3   OH258627   0.966   1.798   1.841  0.2517  0.1185 -0.1802
12379TIP3    H158628   0.932   1.804   1.752  0.3570 -1.0532 -0.3087
12379TIP3    H258629   1.010   1.713   1.845  0.9382  0.4995  0.7562
12380TIP3   OH258630   0.692   0.700  13.048 -0.2147  0.1143 -0.3127
12380TIP3    H158631   0.697   0.704  13.143 -2.8520  2.5702 -0.1347
12380TIP3    H258632   0.770   0.745  13.018  2.0743 -2.9915  0.4721
12381TIP3   OH258633   6.695   1.721  12.759  0.4164  0.8613  0.1759
12381TIP3    H158634   6.631   1.761  12.701  0.3503  0.1278 -0.2630
12381TIP3    H258635   6.644   1.676  12.826  0.4820  0.5311  0.0018
12382TIP3   OH258636   5.541   1.010   2.201  0.0271 -0.4596  0.0013
12382TIP3    H158637   5.480   0.937   2.212  0.3190 -0.4217  2.1719
12382TIP3    H258638   5.627   0.972   2.216  0.1171  0.4585  2.1388
12383TIP3   OH258639   5.163   1.466   4.711 -0.7020 -0.1230  0.3459
12383TIP3    H158640   5.215   1.493   4.787  1.2755  0.6971 -1.2121
12383TIP3    H258641   5.073   1.470   4.741 -0.1315  2.3862  2.0028
12384TIP3   OH258642   1.212   4.216  12.641 -0.2076  0.1759  0.3390
12384TIP3    H158643   1.185   4.200  12.731 -0.3794  0.1931  0.2916
12384TIP3    H258644   1.248   4.305  12.642  1.1894 -0.3801  0.6956
12385TIP3   OH258645   2.641   3.256  12.432  0.1045 -0.2767 -0.2484
12385TIP3    H158646   2.732   3.277  12.409  0.3240 -1.8798 -1.0210
12385TIP3    H258647   2.616   3.322  12.497  2.2194 -0.5067  0.8727
12386TIP3   OH258648   3.419   4.514   3.907  0.1172 -0.2087 -0.6429
12386TIP3    H158649   3.362   4.450   3.863  1.5027 -0.7953 -1.6526
12386TIP3    H258650   3.436   4.476   3.993 -2.0649  0.6165  0.2194
12387TIP3   OH258651   2.815   4.600   4.684 -0.4243 -0.0431 -0.1354
12387TIP3    H158652   2.799   4.564   4.597 -3.3813 -0.6619  0.5358
12387TIP3    H258653   2.765   4.682   4.686 -2.7139 -1.3308  1.7044
12388TIP3   OH258654   1.543   3.170   6.084  0.0344  0.0780  0.2779
12388TIP3    H158655   1.492   3.160   6.164  0.6695 -0.0632  0.6698
12388TIP3    H258656   1.610   3.102   6.089  0.2976  0.2958 -0.2033
12389TIP3   OH258657   6.792   4.182   2.886 -0.3734 -0.4104  0.4948
12389TIP3    H158658   6.850   4.197   2.960  1.3717 -2.3616 -0.3615
12389TIP3    H258659   6.828   4.235   2.815 -0.1597 -0.9139  0.2178
12390TIP3   OH258660   4.982   6.167   4.102  0.1070 -0.6212 -0.4408
12390TIP3    H158661   5.067   6.149   4.060 -0.3103 -0.6710 -1.2809
12390TIP3    H258662   5.005   6.208   4.185  0.9545  1.0140 -1.4180
12391TIP3   OH258663   3.148   2.059   3.563  0.4689 -0.1733 -0.3043
12391TIP3    H158664   3.115   2.120   3.629  1.5915  0.2598 -0.1193
12391TIP3    H258665   3.073   2.041   3.507 -0.4672 -0.4142  0.9823
12392TIP3   OH258666   5.633   4.618   5.427  0.1681 -0.1039  0.4979
12392TIP3    H158667   5.574   4.692   5.442 -0.2284 -0.2600 -0.2206
12392TIP3    H258668   5.585   4.542   5.461 -1.2978 -0.6593 -2.4874
12393TIP3   OH258669   4.985   2.315  16.991  0.6467  0.0910  0.1087
12393TIP3    H158670   5.021   2.316  17.080  1.7844 -2.3242 -0.2184
12393TIP3    H258671   4.892   2.332  17.002  0.8030  0.0710  1.7425
12394TIP3   OH258672   2.603   0.660   2.712 -0.1788 -0.3345 -0.0714
12394TIP3    H158673   2.596   0.735   2.654  0.2215  0.3496  0.7552
12394TIP3    H258674   2.601   0.697   2.800 -0.3431 -1.3198  0.3536
12395TIP3   OH258675   0.979   2.318   4.890  0.5371  0.8156  0.2280
12395TIP3    H158676   0.935   2.396   4.925  0.5246  0.7687  0.3170
12395TIP3    H258677   0.983   2.334   4.796 -1.9716 -0.2814 -0.1589
12396TIP3   OH258678   1.643   6.161  14.166  0.2446  0.5264  0.0377
12396TIP3    H158679   1.616   6.081  14.121 -0.2496  0.6029  0.1922
12396TIP3    H258680   1.738   6.163  14.156  0.5245 -1.1882  1.8295
12397TIP3   OH258681   3.886   5.849   4.010  0.9716  0.2763  0.3700
12397TIP3    H158682   3.855   5.917   4.070  1.3563 -1.0160  2.1245
12397TIP3    H258683   3.962   5.887   3.967 -0.4346  1.9232 -0.7715
12398TIP3   OH258684   2.434   1.462   5.097 -0.1260  0.2061 -0.0310
12398TIP3    H158685   2.376   1.498   5.030 -1.1941 -2.7443 -0.8507
12398TIP3    H258686   2.378   1.403   5.147  1.2241  0.5739  2.0129
12399TIP3   OH258687   0.789   6.800   3.148 -0.2941  0.1513 -0.3171
12399TIP3    H158688   0.776   6.707   3.128 -1.5990  0.7401 -2.5493
12399TIP3    H258689   0.859   6.827   3.089 -0.6109  0.8002 -0.4003
12400TIP3   OH258690   5.626   4.851   0.544 -0.0703  0.0619 -0.8102
12400TIP3    H158691   5.667   4.811   0.467 -2.1993 -2.7013 -0.6948
12400TIP3    H258692   5.598   4.937   0.514  0.5293 -0.3214 -2.6358
12401TIP3   OH258693   1.978   5.248  14.321 -0.1290 -0.3680  0.5564
12401TIP3    H158694   2.061   5.278  14.284 -0.9266  1.4576  0.1270
12401TIP3    H258695   1.918   5.245  14.247 -0.7326 -0.6213  1.0399
12402TIP3   OH258696   1.153   3.403   1.094  0.3503  0.3836 -0.3114
12402TIP3    H158697   1.177   3.434   1.007 -0.7784  1.0128 -0.4163
12402TIP3    H258698   1.138   3.310   1.083  0.4907  0.4070 -0.7229
12403TIP3   OH258699   5.193   6.359  14.705 -0.1282 -0.0668  0.5288
12403TIP3    H158700   5.273   6.323  14.667 -0.8612 -2.1535  0.8297
12403TIP3    H258701   5.134   6.368  14.630  0.2256  1.0825  0.3724
12404TIP3   OH258702   1.349   1.620  14.766 -1.0412  0.6225 -0.2858
12404TIP3    H158703   1.360   1.657  14.854 -1.2069  0.0752 -0.0310
12404TIP3    H258704   1.305   1.689  14.716 -1.1178  0.8663  0.1150
12405TIP3   OH258705   2.575   4.953  11.366 -0.7887  0.0296 -0.0395
12405TIP3    H158706   2.500   4.909  11.407 -0.4007 -0.2930  0.3427
12405TIP3    H258707   2.579   4.917  11.278  0.3649 -1.7923  0.6999
12406TIP3   OH258708   1.451   5.456  11.392  0.2919 -0.1867  0.0236
12406TIP3    H158709   1.462   5.521  11.460  0.8373 -0.2831  0.0321
12406TIP3    H258710   1.359   5.461  11.368  0.3821  0.7539 -0.1428
12407TIP3   OH258711   0.618   0.958   0.197 -0.2694 -0.1461 -0.1470
12407TIP3    H158712   0.563   0.926   0.268 -1.8556  1.2500 -0.6868
12407TIP3    H258713   0.611   0.892   0.128 -0.9318 -0.1899 -0.0389
12408TIP3   OH258714   3.279   1.934  12.835 -0.0643  0.2651  0.3164
12408TIP3    H158715   3.224   1.961  12.908  0.3909  2.2088 -0.0035
12408TIP3    H258716   3.224   1.875  12.784 -0.3576 -1.1945  2.2261
12409TIP3   OH258717   1.195   5.346  14.874  0.1114  0.5068 -0.4030
12409TIP3    H158718   1.193   5.405  14.799  0.1300  0.3796 -0.5016
12409TIP3    H258719   1.200   5.405  14.950 -3.6746  0.8946 -0.2283
12410TIP3   OH258720   1.317   1.085  11.026  0.1436 -0.5556  0.0076
12410TIP3    H158721   1.372   1.013  10.995  0.6351 -0.1072 -0.1734
12410TIP3    H258722   1.340   1.158  10.969 -0.0352 -0.1360  0.4748
12411TIP3   OH258723   5.783   0.839  15.486  0.9448 -0.8597 -0.7309
12411TIP3    H158724   5.716   0.833  15.418  0.4549 -1.2209 -0.2241
12411TIP3    H258725   5.866   0.825  15.440  0.6585 -0.5835 -1.3315
12412TIP3   OH258726   4.316   2.825  12.147  0.9701  0.2428  0.5785
12412TIP3    H158727   4.278   2.743  12.115  0.1897  0.4671  0.8839
12412TIP3    H258728   4.405   2.803  12.171 -0.0987 -1.3297  3.6459
12413TIP3   OH258729   1.355   3.515   1.521  0.5829  0.0840  0.4444
12413TIP3    H158730   1.317   3.556   1.444  1.5219  2.3940  1.1162
12413TIP3    H258731   1.299   3.543   1.593  1.5020  0.6106  0.9776
12414TIP3   OH258732   1.015   6.383  16.411 -0.2857  0.2322 -0.7174
12414TIP3    H158733   1.008   6.441  16.335 -1.2667  0.7584 -0.2456
12414TIP3    H258734   0.937   6.402  16.463  0.3558 -0.1363  0.4150
12415TIP3   OH258735   5.364   2.081   4.857 -0.4887 -0.2878  0.1124
12415TIP3    H158736   5.323   2.167   4.868 -0.9143 -0.5362  0.5016
12415TIP3    H258737   5.415   2.068   4.937 -0.9002 -0.6502  0.3194
12416TIP3   OH258738   0.772   4.566  10.784  0.0699  0.0984 -0.3253
12416TIP3    H158739   0.843   4.507  10.760  0.4401  0.1152  0.6831
12416TIP3    H258740   0.726   4.583  10.702 -0.1169 -1.6630 -0.6048
12417TIP3   OH258741   2.942   6.003   4.092 -0.4271 -0.2095 -0.2131
12417TIP3    H158742   2.950   6.054   4.173  0.9797 -0.1460 -0.3705
12417TIP3    H258743   2.943   5.912   4.121 -1.4915 -0.1789 -0.0477
12418TIP3   OH258744   2.118   3.409   6.383 -0.1104  0.0839 -0.2253
12418TIP3    H158745   2.070   3.328   6.400 -2.8917  1.7018  0.1951
12418TIP3    H258746   2.061   3.478   6.417  1.7755  2.2957 -1.3007
12419TIP3   OH258747   0.546   1.793   1.888  0.3722 -0.0997 -0.1080
12419TIP3    H158748   0.616   1.756   1.833 -1.2864 -1.2188 -1.5745
12419TIP3    H258749   0.592   1.835   1.960  2.5635 -0.7252 -1.0604
12420TIP3   OH258750   2.523   3.133   3.377  0.2247  0.1620 -0.1660
12420TIP3    H158751   2.614   3.140   3.348  0.5208  0.1619  0.7387
12420TIP3    H258752   2.483   3.073   3.314  0.9123 -0.0253 -0.4364
12421TIP3   OH258753   6.825   0.410   5.865  0.1918 -0.3362  0.4785
12421TIP3    H158754   6.832   0.323   5.903  1.8535  0.1620  1.4248
12421TIP3    H258755   6.916   0.440   5.857 -0.3086  1.0109 -0.5348
12422TIP3   OH258756   2.383   0.498   3.784  0.3107  0.9038 -0.2724
12422TIP3    H158757   2.294   0.505   3.819  0.5133  0.2506  0.3953
12422TIP3    H258758   2.433   0.455   3.853  1.3045  1.8233 -0.3799
12423TIP3   OH258759   6.734   1.617  10.902  0.0777  0.7833  0.0150
12423TIP3    H158760   6.654   1.658  10.868 -1.2213 -0.9368  0.8669
12423TIP3    H258761   6.796   1.690  10.910 -1.0294  1.9922 -1.6629
12424TIP3   OH258762   6.597   0.036  16.640  0.1695  0.1907  0.2540
12424TIP3    H158763   6.658  -0.021  16.687  0.5398 -0.1957 -0.6572
12424TIP3    H258764   6.565  -0.019  16.568 -0.4172  0.7467  0.0865
12425TIP3   OH258765   4.580   6.504   5.069 -0.1730 -0.4190 -0.9351
12425TIP3    H158766   4.502   6.456   5.041 -0.3938  0.6715 -2.2951
12425TIP3    H258767   4.649   6.438   5.072 -1.5830 -2.0300  2.9538
12426TIP3   OH258768   5.178   6.241  14.296 -0.4431 -0.2900 -0.0880
12426TIP3    H158769   5.178   6.336  14.300 -1.6551 -0.2802 -0.0740
12426TIP3    H258770   5.184   6.221  14.202 -0.2123 -0.1978 -0.0918
12427TIP3   OH258771   3.847   5.393  16.374  0.4111  0.0374 -0.2344
12427TIP3    H158772   3.892   5.364  16.294  0.5782  0.7800 -0.4234
12427TIP3    H258773   3.868   5.486  16.380 -0.9647  0.3728 -0.2274
12428TIP3   OH258774   1.413   5.154  14.184  0.0510  0.0927  0.5694
12428TIP3    H158775   1.446   5.070  14.217  1.6529  0.8764  1.0717
12428TIP3    H258776   1.399   5.207  14.262 -1.9467 -0.0042  0.3244
12429TIP3   OH258777   4.588   5.260  16.897 -0.2527 -0.4669 -0.1711
12429TIP3    H158778   4.542   5.187  16.855 -0.3621 -0.6451  0.2590
12429TIP3    H258779   4.528   5.334  16.888 -0.7292 -0.7469  0.5749
12430TIP3   OH258780   5.086   5.455   1.260 -0.6795  1.1898  0.0327
12430TIP3    H158781   5.028   5.528   1.242 -1.2561  0.6867 -0.1915
12430TIP3    H258782   5.053   5.384   1.204  0.4068  1.0201 -0.4272
12431TIP3   OH258783   6.206   4.934  12.386 -0.0995 -0.0341 -0.6488
12431TIP3    H158784   6.229   5.012  12.437  2.4492 -0.5387 -0.8937
12431TIP3    H258785   6.210   4.963  12.295  1.9271 -0.6264 -0.7959
12432TIP3   OH258786   1.003   2.997   6.369 -0.5912 -0.0785  0.7040
12432TIP3    H158787   1.018   3.085   6.335 -1.0628 -0.0827  0.4803
12432TIP3    H258788   0.913   2.998   6.399 -0.6033 -0.4930  0.6880
12433TIP3   OH258789   2.871   5.991   5.474  0.8919 -0.0178 -0.0990
12433TIP3    H158790   2.923   6.063   5.439  1.4343  0.8286  2.2604
12433TIP3    H258791   2.781   6.016   5.457  1.1186 -0.4253 -2.2208
12434TIP3   OH258792   3.494   5.296   3.858  0.0748 -0.2731  0.0370
12434TIP3    H158793   3.512   5.265   3.769 -1.8423 -1.2901 -0.0598
12434TIP3    H258794   3.401   5.279   3.870  0.4709 -1.0557  2.5754
12435TIP3   OH258795   4.312   6.054  13.970  0.2057 -0.1848 -0.5860
12435TIP3    H158796   4.294   6.146  13.951  0.3942 -0.2524 -1.1034
12435TIP3    H258797   4.363   6.056  14.051 -0.1799  0.1358 -0.3445
12436TIP3   OH258798   0.172   5.564  16.478 -0.2820  0.1944  0.0973
12436TIP3    H158799   0.231   5.635  16.502 -1.1616  0.7121  0.8209
12436TIP3    H258800   0.158   5.515  16.560 -0.3843 -0.2701 -0.1932
12437TIP3   OH258801   2.624   1.184  12.892 -0.2699  0.1795 -0.0250
12437TIP3    H158802   2.598   1.260  12.944 -0.0953 -0.1045  0.4867
12437TIP3    H258803   2.711   1.160  12.925  0.4668  0.8446 -1.4138
12438TIP3   OH258804   0.781   1.408  13.269  0.7674  0.3344  1.1225
12438TIP3    H158805   0.823   1.447  13.346  2.4929  0.7689  0.0084
12438TIP3    H258806   0.691   1.438  13.273  0.8797  0.5428  2.8363
12439TIP3   OH258807   5.624   2.834  12.434 -0.5245 -0.1272 -0.0537
12439TIP3    H158808   5.667   2.854  12.517  2.2978 -0.2655 -1.3639
12439TIP3    H258809   5.532   2.857  12.449 -0.4467 -1.4950  3.5003
12440TIP3   OH258810   5.123   3.000   4.706 -0.3064 -0.3915  0.1121
12440TIP3    H158811   5.179   2.953   4.644 -0.1476 -0.3505  0.2236
12440TIP3    H258812   5.057   2.936   4.731 -0.0496 -0.5806  0.3199
12441TIP3   OH258813   2.787   3.533  11.667 -0.7690 -0.2988 -0.5967
12441TIP3    H158814   2.865   3.587  11.662 -1.2190  0.6349  1.2815
12441TIP3    H258815   2.801   3.478  11.745 -1.7506 -0.4690 -0.5283
12442TIP3   OH258816   1.694   6.436  12.835  0.4571 -0.1795 -0.9035
12442TIP3    H158817   1.653   6.523  12.835 -0.4214 -0.5730  0.3409
12442TIP3    H258818   1.749   6.435  12.913 -1.0335 -1.3801  0.1955
12443TIP3   OH258819   5.072   3.354   2.437  0.3901 -0.2432 -0.4276
12443TIP3    H158820   4.998   3.387   2.385 -0.2971  0.1620  0.7614
12443TIP3    H258821   5.034   3.284   2.490  1.1514 -0.8645 -0.6917
12444TIP3   OH258822   2.481   1.592   3.775  0.3479  0.3051  0.3865
12444TIP3    H158823   2.519   1.578   3.689 -0.7587  0.2008 -0.1017
12444TIP3    H258824   2.421   1.518   3.787 -1.3432  1.6008  0.1811
12445TIP3   OH258825   0.958   6.181   5.611  0.1378 -0.0103 -0.1229
12445TIP3    H158826   1.013   6.179   5.689  1.3144 -0.9383 -0.9394
12445TIP3    H258827   0.986   6.259   5.563 -0.8902  0.8076  0.5644
12446TIP3   OH258828   1.772   0.619  12.377 -0.5561  0.1967  0.8636
12446TIP3    H158829   1.827   0.631  12.300 -0.3140  0.7122  1.1110
12446TIP3    H258830   1.832   0.623  12.451 -0.8391  0.1122  1.1011
12447TIP3   OH258831   1.601   6.754  11.742 -0.2318  0.4382 -0.4133
12447TIP3    H158832   1.604   6.671  11.695  0.7137  0.2823 -0.0979
12447TIP3    H258833   1.534   6.740  11.810 -0.7021  0.2431 -0.9106
12448TIP3   OH258834   6.243   2.463   1.571 -0.0900 -0.4996 -0.0100
12448TIP3    H158835   6.289   2.543   1.547  0.2675 -0.5407  0.5374
12448TIP3    H258836   6.297   2.423   1.639 -0.1627 -1.3026 -0.4114
12449TIP3   OH258837   0.449   4.861  14.401  0.3646  0.0780 -0.1676
12449TIP3    H158838   0.380   4.820  14.453  0.6725 -1.0720 -0.6409
12449TIP3    H258839   0.497   4.914  14.464  0.4066 -0.8798  0.6281
12450TIP3   OH258840   4.357   1.295  16.280  0.4953  0.3066  0.0719
12450TIP3    H158841   4.446   1.307  16.247  0.8535  1.3679  1.3674
12450TIP3    H258842   4.365   1.225  16.344  0.8877  1.9116  1.8649
12451TIP3   OH258843   5.853   4.224  16.464 -0.5362 -0.3899  0.3291
12451TIP3    H158844   5.877   4.135  16.493  0.9802 -0.0205  0.3080
12451TIP3    H258845   5.861   4.277  16.543 -0.9910 -0.1834  0.2377
12452TIP3   OH258846   6.633   3.338  15.887 -0.0741  0.8200  0.2198
12452TIP3    H158847   6.611   3.278  15.958  0.4231  1.9791  1.3965
12452TIP3    H258848   6.553   3.346  15.836 -0.1227 -0.9215 -0.0676
12453TIP3   OH258849   6.097   1.138  12.429 -0.1722  0.7517 -0.4001
12453TIP3    H158850   6.118   1.045  12.438  0.1318  0.8431 -0.1585
12453TIP3    H258851   6.062   1.146  12.340  1.0291  0.6326 -0.9106
12454TIP3   OH258852   3.110   1.109  13.752  0.1686  0.4519  0.4727
12454TIP3    H158853   3.177   1.129  13.818  0.0466  1.9694  0.1877
12454TIP3    H258854   3.076   1.195  13.726  0.7250 -0.0253 -2.1105
12455TIP3   OH258855   1.587   6.438   0.875 -0.5686 -1.0562 -0.6028
12455TIP3    H158856   1.538   6.428   0.956 -0.1552  0.4885 -0.1182
12455TIP3    H258857   1.632   6.522   0.885 -1.0729 -0.4677 -2.7159
12456TIP3   OH258858   3.008   0.488   4.550 -0.7991 -0.4717 -0.1752
12456TIP3    H158859   2.954   0.495   4.629  1.8537  1.7397  1.6557
12456TIP3    H258860   3.020   0.394   4.536 -0.9699 -0.9476  2.4089
12457TIP3   OH258861   6.575   2.780   0.413 -0.3511 -0.8044  0.6438
12457TIP3    H158862   6.654   2.725   0.415 -0.5689 -1.1479  0.1217
12457TIP3    H258863   6.602   2.862   0.453 -0.1532 -1.4644  1.9203
12458TIP3   OH258864   0.626   3.987  16.496 -0.1077 -0.4712 -0.6672
12458TIP3    H158865   0.631   3.934  16.416  0.3203 -1.0140 -0.2826
12458TIP3    H258866   0.703   3.964  16.546  0.2516  0.7446 -0.6157
12459TIP3   OH258867   3.093   2.667  14.032  0.1843 -0.4348 -0.2280
12459TIP3    H158868   3.128   2.656  14.121 -0.4558  1.8295  0.3788
12459TIP3    H258869   3.023   2.602  14.026  0.0733 -0.4552  1.0263
12460TIP3   OH258870   2.427   3.887  13.290  0.3148  0.5271 -0.0616
12460TIP3    H158871   2.476   3.828  13.233  0.1247 -0.6643  0.9590
12460TIP3    H258872   2.340   3.892  13.250 -0.6386 -2.3270  1.3528
12461TIP3   OH258873   0.496   3.366  11.684 -0.1338  0.5836  0.1935
12461TIP3    H158874   0.513   3.272  11.673 -0.1633  0.6543 -0.4760
12461TIP3    H258875   0.405   3.370  11.714 -0.2908  0.4212 -0.2518
12462TIP3   OH258876   5.783   2.693  16.204  0.0005  0.0034 -0.5249
12462TIP3    H158877   5.698   2.655  16.228  0.5757 -2.3914 -1.8552
12462TIP3    H258878   5.838   2.681  16.282 -0.1224 -1.1304 -0.5875
12463TIP3   OH258879   2.079   1.994   3.239 -0.4011 -0.9599 -0.0069
12463TIP3    H158880   2.067   1.947   3.156  0.2209  1.6497 -1.6881
12463TIP3    H258881   2.169   2.024   3.237 -0.6337 -0.0922  1.2246
12464TIP3   OH258882   3.336   1.957  11.470 -0.2895 -0.1768 -0.3565
12464TIP3    H158883   3.411   1.963  11.529  0.3244 -0.2929 -1.1161
12464TIP3    H258884   3.262   1.986  11.523  0.2137 -0.4704  0.5351
12465TIP3   OH258885   6.417   6.393   0.422  0.4089  0.9328  0.4016
12465TIP3    H158886   6.461   6.308   0.427  1.2794  1.4060  0.9743
12465TIP3    H258887   6.327   6.374   0.447  1.1170  0.5503  2.9653
12466TIP3   OH258888   6.550   4.011   2.280  0.2302  0.1962 -1.2605
12466TIP3    H158889   6.638   4.049   2.283  0.5529 -0.5960  0.8013
12466TIP3    H258890   6.493   4.084   2.257  1.2101  1.1924 -0.6173
12467TIP3   OH258891   1.896   1.218   1.126 -0.5280  0.1161  0.0890
12467TIP3    H158892   1.823   1.164   1.158 -1.2572  1.6395  1.0916
12467TIP3    H258893   1.939   1.249   1.205 -0.3266  1.2611 -0.4606
12468TIP3   OH258894   1.496   3.134  16.799  0.8589 -0.2952 -0.0315
12468TIP3    H158895   1.522   3.205  16.741 -0.0769  1.2141  1.3366
12468TIP3    H258896   1.404   3.150  16.818  0.6442 -1.8407  0.3667
12469TIP3   OH258897   5.402   0.906  12.692  0.0047  0.1423 -0.2952
12469TIP3    H158898   5.486   0.942  12.720 -0.3404  0.8531 -0.1593
12469TIP3    H258899   5.341   0.979  12.696 -0.8125 -0.5481  0.3952
12470TIP3   OH258900   0.418   1.915  16.146 -0.6371 -0.2405  0.4654
12470TIP3    H158901   0.335   1.926  16.191 -2.1143 -0.6544 -1.9650
12470TIP3    H258902   0.400   1.939  16.055  1.4478 -1.9092 -0.5062
12471TIP3   OH258903   1.055   2.484  12.606  0.0856  0.0503 -0.1951
12471TIP3    H158904   1.057   2.406  12.661  2.8050  0.4038  0.3120
12471TIP3    H258905   0.989   2.541  12.647  0.3184 -0.6917  1.2623
12472TIP3   OH258906   0.937   1.657  16.891  0.0150 -0.2628 -0.3168
12472TIP3    H158907   0.900   1.593  16.830  0.2525 -0.8745  0.1654
12472TIP3    H258908   1.031   1.644  16.885  0.0973  0.3949 -0.5770
12473TIP3   OH258909   6.096   1.441  12.564  0.1913 -0.8655  0.4348
12473TIP3    H158910   6.188   1.435  12.591  1.3073  2.3201 -1.9319
12473TIP3    H258911   6.097   1.414  12.472 -0.8491  0.8676 -0.1307
12474TIP3   OH258912   1.150   1.518   5.377  0.0312  0.0374 -0.4991
12474TIP3    H158913   1.163   1.600   5.331 -0.6664 -0.3801 -1.4758
12474TIP3    H258914   1.236   1.476   5.376  1.1228  1.8833  2.3993
12475TIP3   OH258915   2.931   0.967   6.036 -0.0039 -0.1162  0.6427
12475TIP3    H158916   2.887   0.998   5.957 -0.6689  0.8722  1.3710
12475TIP3    H258917   2.997   1.034   6.054 -0.7621  0.3887  1.6613
12476TIP3   OH258918   1.302   1.854  14.614  0.2623 -0.3651  0.0592
12476TIP3    H158919   1.316   1.836  14.522  1.0296  0.9856 -0.1054
12476TIP3    H258920   1.386   1.836  14.656 -0.1148 -1.0928  0.5340
12477TIP3   OH258921   3.200   5.408  17.163 -0.1893  0.0718 -0.1568
12477TIP3    H158922   3.111   5.430  17.191  0.1338  1.1237  0.0890
12477TIP3    H258923   3.194   5.401  17.068 -0.4562  0.5830 -0.1838
12478TIP3   OH258924   3.617   2.570   5.844  0.0871  0.6474  0.0562
12478TIP3    H158925   3.665   2.591   5.764 -0.9140  0.5564 -0.5801
12478TIP3    H258926   3.551   2.638   5.852 -1.0547 -0.3765 -0.2550
12479TIP3   OH258927   3.585   3.852   3.521 -0.3289  0.2418  0.3142
12479TIP3    H158928   3.546   3.897   3.595  0.4187  2.0939 -0.3627
12479TIP3    H258929   3.640   3.784   3.561  2.7364  3.2657  1.7823
12480TIP3   OH258930   1.946   3.082   3.850  0.6339 -0.0312 -0.3028
12480TIP3    H158931   2.029   3.059   3.892  0.6419 -0.0327 -0.3194
12480TIP3    H258932   1.891   3.004   3.862 -0.1021  0.7097  1.5714
12481TIP3   OH258933   6.465   5.248  12.937 -0.0790  0.4061 -0.1172
12481TIP3    H158934   6.517   5.319  12.898  1.6483 -0.5358  0.3262
12481TIP3    H258935   6.523   5.212  13.005 -0.7512 -1.6331 -0.5644
12482TIP3   OH258936   3.056   5.906   4.930 -0.3135  0.1347 -0.7857
12482TIP3    H158937   3.077   5.896   5.023 -0.0937 -1.2722 -0.9528
12482TIP3    H258938   3.129   5.958   4.895  0.9407 -1.4102 -0.6093
12483TIP3   OH258939   4.591   5.222  12.364 -0.1775  0.1625 -0.2566
12483TIP3    H158940   4.499   5.233  12.339 -0.9379 -2.8091  0.8493
12483TIP3    H258941   4.637   5.208  12.281 -0.8741  0.6296 -0.7321
12484TIP3   OH258942   1.961   1.832  14.090 -0.5476  0.0214  0.3115
12484TIP3    H158943   2.047   1.795  14.109  0.4041  1.8664 -0.0788
12484TIP3    H258944   1.900   1.760  14.102  0.6818 -0.6665  3.6298
12485TIP3   OH258945   2.423   1.262   1.719 -0.6590  0.0745  0.0292
12485TIP3    H158946   2.386   1.245   1.633 -0.1111 -0.5234 -0.0966
12485TIP3    H258947   2.355   1.310   1.766 -0.4085  1.7689 -1.2285
12486TIP3   OH258948   5.874   5.274  15.734 -0.1928  0.0255 -0.2189
12486TIP3    H158949   5.937   5.296  15.665 -0.5366 -1.5877 -1.1098
12486TIP3    H258950   5.893   5.182  15.754 -1.8936 -0.3242 -0.1237
12487TIP3   OH258951   3.009   3.072  13.720  0.2539  0.1457  0.1465
12487TIP3    H158952   2.952   3.097  13.793 -1.2639 -1.7220 -0.3182
12487TIP3    H258953   3.041   2.985  13.743  0.0920 -0.2943 -1.1898
12488TIP3   OH258954   0.811   5.427   3.281  0.0834  0.3114 -0.0774
12488TIP3    H158955   0.817   5.363   3.351 -1.9699 -1.2961 -1.2399
12488TIP3    H258956   0.719   5.454   3.280  0.3308  1.2464 -1.3340
12489TIP3   OH258957   3.494   6.310   2.121 -0.3094  0.2339  0.5690
12489TIP3    H158958   3.528   6.263   2.045  1.0187  0.2245  1.1456
12489TIP3    H258959   3.399   6.299   2.115 -0.1217 -1.4491 -0.0201
12490TIP3   OH258960   2.530   0.827  15.235 -0.6748  0.0495  0.5646
12490TIP3    H158961   2.547   0.740  15.200 -0.1509 -0.1358  1.2635
12490TIP3    H258962   2.436   0.841  15.220 -0.1860  0.7341 -2.5347
12491TIP3   OH258963   3.633   1.837   3.870  0.0680  0.6382  0.0684
12491TIP3    H158964   3.632   1.748   3.907 -2.9689  0.7745  0.6147
12491TIP3    H258965   3.616   1.824   3.777  0.5043  0.6174 -0.0098
12492TIP3   OH258966   5.189   4.651  14.505  0.1034 -0.2002  0.1789
12492TIP3    H158967   5.161   4.567  14.541  1.5413 -0.4813  0.7057
12492TIP3    H258968   5.155   4.651  14.415  1.2267 -1.9791 -0.3164
12493TIP3   OH258969   2.279   4.769   4.437  0.1424  0.6070  0.2832
12493TIP3    H158970   2.371   4.785   4.458  0.0542  2.0432 -0.3196
12493TIP3    H258971   2.251   4.704   4.501  1.2883  0.9372  1.1548
12494TIP3   OH258972   4.198   5.193   6.054 -0.0939  0.0132 -0.1161
12494TIP3    H158973   4.200   5.261   5.987  2.7812  0.3112  0.1533
12494TIP3    H258974   4.206   5.240   6.137  0.1370 -0.5629  0.1952
12495TIP3   OH258975   6.682   6.243  15.146  0.1123 -0.0740  0.5573
12495TIP3    H158976   6.717   6.210  15.063  0.0088  0.3777  0.3295
12495TIP3    H258977   6.725   6.327  15.158 -0.5000  0.2470  0.5373
12496TIP3   OH258978   2.326   4.874   3.448 -0.1875  0.4939  0.1479
12496TIP3    H158979   2.380   4.919   3.383  0.4379  0.5810  0.7269
12496TIP3    H258980   2.348   4.914   3.531  1.8203 -2.0785  0.9962
12497TIP3   OH258981   0.538   5.966   1.808  0.5940 -0.3364 -0.2069
12497TIP3    H158982   0.622   5.921   1.821  0.7779 -0.1957 -0.8339
12497TIP3    H258983   0.472   5.899   1.825  0.8576 -0.7165 -0.6457
12498TIP3   OH258984   2.828   0.586   0.032 -0.0042 -0.0725 -0.5261
12498TIP3    H158985   2.751   0.586  -0.024 -0.2500 -0.1452 -0.1863
12498TIP3    H258986   2.895   0.539  -0.019 -0.8050 -1.9265  0.0548
12499TIP3   OH258987   5.082   2.558  14.810  0.0319 -0.4595  0.2902
12499TIP3    H158988   5.146   2.574  14.742  1.4239 -0.1785  1.6112
12499TIP3    H258989   5.009   2.616  14.789  2.0915  2.7061  1.1703
12500TIP3   OH258990   6.058   5.804   3.200 -0.1685 -0.7081  0.0321
12500TIP3    H158991   6.077   5.879   3.256  0.8423 -0.2589 -0.8830
12500TIP3    H258992   6.114   5.734   3.235 -0.4308 -0.7838  0.3119
12501TIP3   OH258993   6.090   2.471  14.861  0.2853 -0.4145 -0.3318
12501TIP3    H158994   6.091   2.390  14.913 -1.5191 -0.1905  0.1246
12501TIP3    H258995   6.144   2.532  14.912 -1.3124 -0.2457  1.2831
12502TIP3   OH258996   6.120   4.481  14.049 -0.5791 -0.6557  0.2206
12502TIP3    H158997   6.126   4.388  14.070  0.7261 -0.8374 -0.8399
12502TIP3    H258998   6.033   4.492  14.012 -1.7581 -0.9150  2.7070
12503TIP3   OH258999   1.005   5.415   6.131 -0.2751 -0.0790 -0.2391
12503TIP3    H159000   0.935   5.467   6.091 -0.1789 -0.1437 -0.4908
12503TIP3    H259001   1.071   5.406   6.062 -0.5173 -0.9672 -0.3558
12504TIP3   OH259002   1.856   5.108  10.314 -0.3851  0.0933 -0.1391
12504TIP3    H159003   1.768   5.078  10.291 -0.2078 -1.7418  1.3121
12504TIP3    H259004   1.845   5.156  10.396 -0.1349  0.4313 -0.3033
12505TIP3   OH259005   2.836   3.239   3.673 -0.0518 -0.1144 -0.6044
12505TIP3    H159006   2.769   3.292   3.716 -0.5425 -1.3950  0.2586
12505TIP3    H259007   2.824   3.256   3.580  0.7419  2.3767 -0.3222
12506TIP3   OH259008   5.353   1.902   7.132 -0.0748 -0.1340 -0.3518
12506TIP3    H159009   5.284   1.890   7.066  0.4879 -0.1588 -0.9473
12506TIP3    H259010   5.433   1.874   7.087  0.6555  1.8785 -0.3920
12507TIP3   OH259011   5.508   4.467   0.961 -0.1470  0.1131  0.4978
12507TIP3    H159012   5.517   4.490   1.054 -1.0303 -0.8305  0.8233
12507TIP3    H259013   5.558   4.386   0.951  0.5942  0.6161 -0.0378
12508TIP3   OH259014   0.776   5.616  13.712  0.2073  0.0597  0.2708
12508TIP3    H159015   0.835   5.626  13.786  0.2586  0.6825  0.1550
12508TIP3    H259016   0.766   5.705  13.677 -1.0971  0.0315  0.5145
12509TIP3   OH259017   3.464   0.573  12.289  0.8298  0.5404  0.1278
12509TIP3    H159018   3.372   0.598  12.287  1.0226  1.2661  0.0944
12509TIP3    H259019   3.464   0.486  12.329  0.0565  0.1814 -0.6197
12510TIP3   OH259020   4.091   4.834   0.457  0.1006 -0.1406 -0.4493
12510TIP3    H159021   4.068   4.816   0.366  1.1939 -0.6065 -0.6373
12510TIP3    H259022   4.154   4.766   0.480  1.1196  0.9762  0.1302
12511TIP3   OH259023   4.071   2.829  15.323 -0.0139 -0.3271  0.3460
12511TIP3    H159024   4.008   2.825  15.251  0.5104 -0.0932 -0.1378
12511TIP3    H259025   4.155   2.844  15.280  0.7274 -2.6792  0.8038
12512TIP3   OH259026   1.094   4.250   4.416 -0.6256 -1.0669 -0.1537
12512TIP3    H159027   1.112   4.197   4.494  0.9453 -1.3403 -0.6781
12512TIP3    H259028   1.133   4.335   4.435 -0.0236 -1.2055 -0.7132
12513TIP3   OH259029   1.673   0.108  16.081 -0.3753 -0.1907  0.5613
12513TIP3    H159030   1.597   0.125  16.138 -0.8531 -0.5717  0.0504
12513TIP3    H259031   1.635   0.099  15.994  0.4095  0.9076  0.0888
12514TIP3   OH259032   1.752   3.620   0.817  0.4128 -0.2951  0.1940
12514TIP3    H159033   1.719   3.671   0.743  1.5296 -0.2485 -0.2800
12514TIP3    H259034   1.759   3.531   0.783  1.4903 -0.1627  0.0550
12515TIP3   OH259035   0.581   0.808   4.040  0.3198  0.6887  0.5329
12515TIP3    H159036   0.559   0.901   4.051 -0.1389  0.4328  1.9493
12515TIP3    H259037   0.676   0.804   4.052  0.9948  1.4669 -3.3113
12516TIP3   OH259038   6.021   1.563  13.353 -1.0898  0.0085  0.7163
12516TIP3    H159039   5.979   1.495  13.298 -0.9972  0.3483  0.2182
12516TIP3    H259040   6.026   1.639  13.296  0.7053 -0.1715  0.5846
12517TIP3   OH259041   6.272   5.769  12.705 -0.0918 -0.2044 -0.2468
12517TIP3    H159042   6.332   5.774  12.631 -0.6298 -0.9956 -0.7487
12517TIP3    H259043   6.185   5.760  12.665 -0.6769  1.8232  0.4438
12518TIP3   OH259044   1.090   2.579  12.178 -0.3309  0.1470  0.2326
12518TIP3    H159045   1.106   2.503  12.233 -1.3081  0.7075  1.3430
12518TIP3    H259046   1.063   2.543  12.094 -1.1990 -0.7432  0.8735
12519TIP3   OH259047   1.853   3.869  15.761  0.8856  0.2087 -0.5770
12519TIP3    H159048   1.826   3.955  15.792  0.1527 -0.2457  0.0905
12519TIP3    H259049   1.771   3.824  15.742  1.2626 -0.3818 -0.8314
12520TIP3   OH259050   4.982   4.522   3.355 -0.2626  0.2644 -0.7097
12520TIP3    H159051   5.057   4.523   3.296 -0.2446 -0.6191 -0.7172
12520TIP3    H259052   4.973   4.430   3.380 -0.4661  0.5810  0.4200
12521TIP3   OH259053   1.091   4.700   4.161 -0.4001 -0.8563  0.2374
12521TIP3    H159054   1.076   4.790   4.134  0.6854 -0.3496  1.2277
12521TIP3    H259055   1.186   4.689   4.156 -0.3276 -1.3140  1.9893
12522TIP3   OH259056   6.726   5.358   2.530 -0.0055  0.2105 -1.0140
12522TIP3    H159057   6.644   5.398   2.499  0.4292  0.9066 -1.2784
12522TIP3    H259058   6.793   5.389   2.469  0.3420 -0.9818 -1.2654
12523TIP3   OH259059   5.819   0.113   3.141 -0.0106 -0.1353  0.2508
12523TIP3    H159060   5.815   0.022   3.111  0.2750 -0.1467  0.2452
12523TIP3    H259061   5.748   0.120   3.205 -0.5357 -0.1519 -0.3081
12524TIP3   OH259062   5.367   4.099  12.675  0.0345 -0.6462  0.2004
12524TIP3    H159063   5.421   4.128  12.602 -0.4098 -1.0420 -0.2951
12524TIP3    H259064   5.378   4.167  12.742 -0.6884  0.4919 -0.7909
12525TIP3   OH259065   6.786   3.829  12.136  0.0617  0.1036  0.2815
12525TIP3    H159066   6.724   3.860  12.070  1.3116 -0.4715 -1.2084
12525TIP3    H259067   6.780   3.733  12.132 -0.3591  0.0494  1.5337
12526TIP3   OH259068   1.796   4.262  12.939 -0.2266 -0.1903 -0.4294
12526TIP3    H159069   1.886   4.271  12.908 -0.4461 -2.5108 -1.9975
12526TIP3    H259070   1.801   4.195  13.008 -0.4756  1.3740  1.1839
12527TIP3   OH259071   2.452   6.183  15.418  0.2494 -0.5393  0.2058
12527TIP3    H159072   2.381   6.180  15.354  1.1150 -0.8167 -0.7671
12527TIP3    H259073   2.434   6.109  15.477 -1.5485  0.7725  1.4369
12528TIP3   OH259074   2.476   5.295  16.456  0.4576  0.2801  0.1153
12528TIP3    H159075   2.393   5.344  16.455  1.6074  2.5007 -3.1478
12528TIP3    H259076   2.464   5.229  16.387  1.0976  0.0409  0.2346
12529TIP3   OH259077   2.629   5.301  14.709  0.5878 -0.3651 -0.0177
12529TIP3    H159078   2.662   5.298  14.798  0.5780  0.4528  0.0155
12529TIP3    H259079   2.540   5.333  14.716  0.1727 -1.4259 -0.2213
12530TIP3   OH259080   1.249   4.311   6.534 -0.2076 -0.0842  0.4228
12530TIP3    H159081   1.170   4.355   6.501  0.9243  1.5608 -0.2099
12530TIP3    H259082   1.262   4.348   6.621  0.9628  1.1829 -0.2585
12531TIP3   OH259083   4.683   2.256  15.229 -0.0521  0.5964  0.4583
12531TIP3    H159084   4.698   2.308  15.308 -0.6373 -0.7162  1.4732
12531TIP3    H259085   4.751   2.189  15.230  0.0674  0.6941 -0.2838
12532TIP3   OH259086   1.919   0.128  15.785 -0.3476 -0.1963  0.4537
12532TIP3    H159087   1.901   0.038  15.755 -0.0452 -0.4661  1.0642
12532TIP3    H259088   1.848   0.180  15.747 -0.5229 -0.6921  0.0809
12533TIP3   OH259089   1.480   4.273   5.105 -0.3735 -0.1281 -0.6745
12533TIP3    H159090   1.388   4.293   5.089  0.1834  0.8225 -3.0167
12533TIP3    H259091   1.523   4.359   5.112  0.6038 -0.5426 -1.3788
12534TIP3   OH259092   2.216   0.761  10.569  0.3108 -0.2821 -0.6133
12534TIP3    H159093   2.121   0.775  10.567 -0.3739 -4.1069 -1.2110
12534TIP3    H259094   2.247   0.817  10.641 -2.5872  0.0676  0.4922
12535TIP3   OH259095   5.540   3.860  12.088  0.2526 -0.8051  0.2270
12535TIP3    H159096   5.604   3.928  12.112 -1.6906  0.2407  3.0566
12535TIP3    H259097   5.587   3.778  12.101  1.9782 -0.0810 -1.0456
12536TIP3   OH259098   3.554   4.187  16.602 -0.5499  0.0052  0.3646
12536TIP3    H159099   3.529   4.112  16.657 -2.5476 -0.5236 -1.1369
12536TIP3    H259100   3.495   4.182  16.527  0.3607  2.1900 -0.5751
12537TIP3   OH259101   6.431   6.381  15.095  0.3887 -0.2649  0.0137
12537TIP3    H159102   6.432   6.340  15.008  0.2210 -3.0452  1.2138
12537TIP3    H259103   6.478   6.319  15.151 -0.6115  0.8171  2.1510
12538TIP3   OH259104   0.609   3.823  11.969  0.5114 -0.1064  0.7603
12538TIP3    H159105   0.604   3.884  12.043  0.0994 -1.2055  1.6636
12538TIP3    H259106   0.522   3.824  11.930  0.9358  1.0516 -0.2147
12539TIP3   OH259107   6.722   3.244   3.188 -0.4174 -0.1763 -0.4079
12539TIP3    H159108   6.811   3.265   3.217 -0.7337  0.3699  0.2022
12539TIP3    H259109   6.719   3.273   3.097 -0.0798  0.1378 -0.3211
12540TIP3   OH259110   0.187   5.217  11.845  0.0740  0.5206 -0.3074
12540TIP3    H159111   0.246   5.198  11.917  0.5755  2.6977 -0.0624
12540TIP3    H259112   0.104   5.177  11.870  1.1656 -1.8948 -0.2823
12541TIP3   OH259113   6.197   6.671   4.166 -0.0526 -0.3390  0.5181
12541TIP3    H159114   6.227   6.581   4.172 -1.0371 -0.6267  1.3684
12541TIP3    H259115   6.128   6.678   4.231 -0.5477  0.8075 -0.0974
12542TIP3   OH259116   5.568   0.735  14.353 -0.1322  0.2601 -0.5298
12542TIP3    H159117   5.503   0.671  14.381 -0.5338  2.1981  3.8320
12542TIP3    H259118   5.652   0.692  14.369 -0.3985  0.0424  0.3690
12543TIP3   OH259119   6.719   5.543  15.816  0.4555 -0.0848  0.3185
12543TIP3    H159120   6.791   5.596  15.851 -0.2050  0.7164  0.4719
12543TIP3    H259121   6.701   5.479  15.885  2.2516 -1.5295 -0.4567
12544TIP3   OH259122   3.230   6.823   3.655 -0.0847  0.5434  0.0992
12544TIP3    H159123   3.292   6.880   3.700 -0.6006  0.2560  1.2079
12544TIP3    H259124   3.230   6.742   3.706  0.0891 -0.1940 -1.0318
12545TIP3   OH259125   5.325   0.898   5.202 -0.5044 -0.1518  0.2031
12545TIP3    H159126   5.386   0.973   5.198 -3.1553  2.1196 -0.8462
12545TIP3    H259127   5.290   0.901   5.292 -0.4534 -0.2580  0.2260
12546TIP3   OH259128   2.461   2.588  13.613 -0.5993 -0.3907 -0.1244
12546TIP3    H159129   2.552   2.617  13.604 -0.4185 -0.6542  0.7659
12546TIP3    H259130   2.437   2.557  13.525  0.4574 -1.1524 -0.1592
12547TIP3   OH259131   5.276   2.815   4.567  0.1208  0.2589  0.6048
12547TIP3    H159132   5.370   2.835   4.574  0.6242 -1.5128 -0.3002
12547TIP3    H259133   5.265   2.785   4.477 -1.2795  0.2274  0.7692
12548TIP3   OH259134   4.632   5.835  13.403 -0.3478 -0.3181  0.5870
12548TIP3    H159135   4.554   5.781  13.409 -1.7009  1.5158  0.1929
12548TIP3    H259136   4.632   5.868  13.313  1.4908 -1.1325  0.2455
12549TIP3   OH259137   3.747   3.694   0.565  0.1450  0.5175  0.2054
12549TIP3    H159138   3.817   3.691   0.630 -0.3182  0.9962  0.7307
12549TIP3    H259139   3.793   3.699   0.481  0.7423  0.5970  0.5336
12550TIP3   OH259140   0.562   1.156  15.708  0.2313 -0.3535 -0.9391
12550TIP3    H159141   0.612   1.201  15.640  0.0499 -0.3627 -1.0794
12550TIP3    H259142   0.590   1.197  15.790  1.1345 -0.9621 -0.9251
12551TIP3   OH259143   0.781   3.463  11.276 -0.6282  0.4019 -0.5879
12551TIP3    H159144   0.788   3.531  11.343  1.9632  1.4859 -1.8306
12551TIP3    H259145   0.745   3.387  11.323  0.4612  1.3049  1.8932
12552TIP3   OH259146   3.069   2.406  12.532 -0.0908 -0.4383  0.0620
12552TIP3    H159147   3.067   2.376  12.623 -1.2176 -0.8866 -0.0895
12552TIP3    H259148   3.099   2.331  12.482 -1.3985 -0.8574 -0.1407
12553TIP3   OH259149   6.629   2.776  12.202  0.0117  0.4352 -0.7570
12553TIP3    H159150   6.698   2.814  12.255  0.4949  0.9083 -1.6933
12553TIP3    H259151   6.659   2.687  12.182 -0.4998  0.0015  0.3226
12554TIP3   OH259152   6.806   2.000   1.114 -0.1401  0.3468 -0.6110
12554TIP3    H159153   6.846   2.079   1.079  0.8388 -0.1435 -0.6103
12554TIP3    H259154   6.876   1.957   1.163 -0.5956 -0.6532 -0.8201
12555TIP3   OH259155   1.083   5.908   5.621  0.2323 -0.3562  0.1909
12555TIP3    H159156   1.028   5.949   5.555  0.1811 -2.5072 -1.2028
12555TIP3    H259157   1.119   5.981   5.671 -1.0233  1.2659 -1.1539
12556TIP3   OH259158   4.667   0.468  12.420  0.0364  0.9570  0.4452
12556TIP3    H159159   4.727   0.486  12.493  1.4181 -0.1031 -0.3896
12556TIP3    H259160   4.724   0.458  12.344 -1.1332 -0.6859 -0.2663
12557TIP3   OH259161   5.029   0.217   2.301  0.6161  0.2916  0.3210
12557TIP3    H159162   4.976   0.140   2.321  0.8759  0.0756  0.1806
12557TIP3    H259163   5.014   0.276   2.375 -1.1644  0.9583 -0.5074
12558TIP3   OH259164   4.016   3.069   5.355 -0.3936  0.1562 -0.1395
12558TIP3    H159165   4.086   3.055   5.419  1.4068 -1.8282 -2.3323
12558TIP3    H259166   3.942   3.019   5.390  0.2132 -0.0930  0.8534
12559TIP3   OH259167   5.758   6.063  17.172 -1.0430  0.0630 -0.2618
12559TIP3    H159168   5.730   5.995  17.110 -0.7059  2.0163 -2.7155
12559TIP3    H259169   5.852   6.072  17.156 -0.4581 -0.8367  2.1520
12560TIP3   OH259170   1.812   0.156   2.222 -0.3010 -0.3497  0.4677
12560TIP3    H159171   1.835   0.154   2.314 -2.4983 -0.1477  1.0752
12560TIP3    H259172   1.746   0.086   2.212 -0.7673  0.2254 -0.7285
12561TIP3   OH259173   2.779   1.253   3.193  0.3098  0.2078 -0.1549
12561TIP3    H159174   2.848   1.202   3.236  0.6992  0.9675  0.1596
12561TIP3    H259175   2.708   1.191   3.179  1.6873 -1.0331 -2.0506
12562TIP3   OH259176   2.370   6.386   5.739  0.3209  0.4422 -0.1588
12562TIP3    H159177   2.399   6.462   5.790 -1.8731  1.9831 -1.0866
12562TIP3    H259178   2.450   6.355   5.697  1.4593  1.5853  1.0365
12563TIP3   OH259179   0.365   3.234   6.799  0.0263  0.2229  0.2846
12563TIP3    H159180   0.381   3.326   6.777  0.3079  0.2220  0.4803
12563TIP3    H259181   0.451   3.192   6.790 -0.6894 -0.8429 -3.5858
12564TIP3   OH259182   0.482   0.640  15.929  0.0963 -0.1926 -0.3401
12564TIP3    H159183   0.420   0.572  15.958 -0.8509  0.7454 -0.0884
12564TIP3    H259184   0.426   0.709  15.893  0.9940  0.7538  0.0340
12565TIP3   OH259185   6.304   3.325  12.275 -0.2819  0.5521  0.6018
12565TIP3    H159186   6.331   3.272  12.199  1.7875  1.2355  0.7910
12565TIP3    H259187   6.281   3.410  12.238 -1.3505  0.2579  0.5488
12566TIP3   OH259188   6.203   5.202  12.890  0.1642 -0.1026  0.5706
12566TIP3    H159189   6.183   5.283  12.935  0.7681  1.1612 -1.3187
12566TIP3    H259190   6.298   5.205  12.876  0.2045 -1.1793  0.5333
12567TIP3   OH259191   6.302   5.038  15.804 -0.2573 -0.3004 -0.0412
12567TIP3    H159192   6.239   4.992  15.748 -0.0278 -0.3626 -0.2501
12567TIP3    H259193   6.251   5.063  15.881  0.1040 -2.7648  1.0778
12568TIP3   OH259194   2.608   4.616  17.118 -0.3048  0.4106  0.0036
12568TIP3    H159195   2.648   4.598  17.033 -0.8293  0.6007 -0.2904
12568TIP3    H259196   2.555   4.695  17.104  0.2990  0.9601  0.7310
12569TIP3   OH259197   2.191   3.619   6.075  0.0790 -0.4224 -0.5256
12569TIP3    H159198   2.158   3.658   6.156 -1.3754  0.2522 -1.3980
12569TIP3    H259199   2.155   3.530   6.075  1.5257 -1.0244  0.3848
12570TIP3   OH259200   3.368   1.812   5.785 -0.6201  0.5485 -0.1447
12570TIP3    H159201   3.383   1.884   5.725 -0.0860  0.1835 -0.4582
12570TIP3    H259202   3.281   1.828   5.821 -1.2729  0.3676 -1.5824
12571TIP3   OH259203   6.767   3.718   0.165  0.0580 -0.1270 -0.5506
12571TIP3    H159204   6.730   3.636   0.197  1.5436 -1.0965 -1.2051
12571TIP3    H259205   6.703   3.785   0.191 -1.7637 -1.6002 -1.0132
12572TIP3   OH259206   0.812   5.741  17.101 -0.2728  0.8884  0.4109
12572TIP3    H159207   0.747   5.808  17.122  0.5956  2.2077 -0.8953
12572TIP3    H259208   0.870   5.784  17.038  0.4815 -1.0235 -0.2490
12573TIP3   OH259209   5.868   4.395   6.626  0.1143  0.4102  0.0749
12573TIP3    H159210   5.803   4.432   6.567  0.4328  1.2429  0.2375
12573TIP3    H259211   5.870   4.454   6.701 -1.5423 -1.5526  1.7826
12574TIP3   OH259212   2.625   3.380   1.742 -0.2433 -0.5107  0.2035
12574TIP3    H159213   2.594   3.289   1.748  1.6546 -1.3852 -1.7189
12574TIP3    H259214   2.720   3.372   1.732 -0.1099  1.6323 -0.7099
12575TIP3   OH259215   2.598   1.017  16.595 -0.5809 -0.2604 -0.2575
12575TIP3    H159216   2.682   1.039  16.554 -0.5841 -0.9592 -0.6489
12575TIP3    H259217   2.542   0.990  16.523 -1.0938  0.0343  0.0263
12576TIP3   OH259218   4.661   4.480  12.684  0.0051  0.1088 -0.3952
12576TIP3    H159219   4.566   4.490  12.693 -0.1203 -0.0335 -1.4029
12576TIP3    H259220   4.675   4.385  12.685  0.3146  0.1443  1.2187
12577TIP3   OH259221   6.704   1.941   2.625 -0.2902  0.1816 -0.0170
12577TIP3    H159222   6.676   1.876   2.689  0.1581 -0.2715 -0.2719
12577TIP3    H259223   6.788   1.909   2.593 -0.3421  0.5819 -0.5752
12578TIP3   OH259224   3.130   5.146  13.277  0.4519 -0.1792 -0.0187
12578TIP3    H159225   3.098   5.057  13.290  0.0551 -0.0383 -0.0333
12578TIP3    H259226   3.160   5.148  13.186  0.3569 -0.2624 -0.0516
12579TIP3   OH259227   3.535   1.897  16.978  0.6907 -0.5489  0.0611
12579TIP3    H159228   3.446   1.870  16.956 -0.7362  3.5099 -0.1265
12579TIP3    H259229   3.548   1.867  17.068 -0.3758 -2.1781 -0.2850
12580TIP3   OH259230   0.488   6.391  11.882  0.3910  0.1245 -0.0745
12580TIP3    H159231   0.563   6.393  11.942 -0.0417  0.2019  0.4688
12580TIP3    H259232   0.526   6.407  11.795  1.3152 -2.0947 -0.1378
12581TIP3   OH259233   4.056   0.787  16.420 -0.1480 -0.0704  0.1259
12581TIP3    H159234   3.995   0.860  16.407  0.7599  0.4172 -1.8432
12581TIP3    H259235   4.004   0.709  16.403 -0.5715  0.2547 -0.1002
12582TIP3   OH259236   5.232   4.908  10.915  0.2760  0.5801 -0.3265
12582TIP3    H159237   5.224   4.880  10.823 -1.6392 -0.7399  0.1827
12582TIP3    H259238   5.280   4.991  10.910 -1.3401  1.5140 -2.7285
12583TIP3   OH259239   1.293   5.081  15.862 -0.1203  0.1505  0.1016
12583TIP3    H159240   1.199   5.069  15.869 -0.3088  0.6047 -1.4449
12583TIP3    H259241   1.330   5.018  15.924 -1.3518 -2.1591 -1.3848
12584TIP3   OH259242   2.919   2.020  13.150  0.2168 -0.6170  0.4024
12584TIP3    H159243   2.855   2.001  13.082  0.0044 -0.2491  0.4947
12584TIP3    H259244   2.869   2.020  13.232  0.0149  1.2537  0.3108
12585TIP3   OH259245   4.552   2.746   2.234  0.3027  0.1944  0.2398
12585TIP3    H159246   4.499   2.808   2.184 -0.9442  0.4607  1.8238
12585TIP3    H259247   4.490   2.704   2.294  1.7709  0.0462  1.7134
12586TIP3   OH259248   1.122   3.426  15.425  0.0474  0.0422 -0.5656
12586TIP3    H159249   1.049   3.439  15.364  0.5731  0.5118 -1.1029
12586TIP3    H259250   1.157   3.514  15.440 -0.6438  0.0797  1.1686
12587TIP3   OH259251   2.544   2.724   2.799 -0.0904 -0.3858 -0.0119
12587TIP3    H159252   2.497   2.793   2.752 -0.5822 -1.4942 -1.2144
12587TIP3    H259253   2.476   2.679   2.849 -0.2473 -1.5615 -1.2194
12588TIP3   OH259254   4.435   3.589   0.153 -0.2041 -0.2597  0.4369
12588TIP3    H159255   4.396   3.667   0.114  1.4663 -1.3297 -4.0752
12588TIP3    H259256   4.528   3.610   0.161  0.0891 -1.3804  0.1994
12589TIP3   OH259257   3.365   6.263   5.154 -0.0547 -0.1999 -0.5018
12589TIP3    H159258   3.362   6.222   5.241  0.9457  1.4536  0.3491
12589TIP3    H259259   3.294   6.327   5.155 -1.6130 -1.7850 -1.8306
12590TIP3   OH259260   0.896   4.089   1.148  0.3187 -0.2329  0.5516
12590TIP3    H159261   0.851   4.158   1.196  0.2660 -0.4603  0.8308
12590TIP3    H259262   0.826   4.041   1.103  0.2662 -0.6519  1.0706
12591TIP3   OH259263   2.489   0.254   1.647 -0.4189  0.1483 -0.3178
12591TIP3    H159264   2.533   0.248   1.732  1.0239 -0.6612 -1.0896
12591TIP3    H259265   2.396   0.254   1.669 -0.0769  0.0545  1.2698
12592TIP3   OH259266   3.318   1.502   5.597 -0.5671  0.2268  0.0124
12592TIP3    H159267   3.384   1.472   5.660  0.1420  0.7596 -0.4637
12592TIP3    H259268   3.236   1.495   5.645 -0.1524 -0.2707  0.6855
12593TIP3   OH259269   3.604   0.164  11.504 -0.6040  0.3426  0.3655
12593TIP3    H159270   3.687   0.116  11.508 -0.6679  0.2825  1.2193
12593TIP3    H259271   3.546   0.117  11.564 -1.9277 -0.8261 -1.7068
12594TIP3   OH259272   4.661   6.473   0.445 -0.9680 -0.6045 -0.2234
12594TIP3    H159273   4.641   6.500   0.534  0.2632  0.4918 -0.2384
12594TIP3    H259274   4.578   6.479   0.399 -1.2786  0.5577  0.4518
12595TIP3   OH259275   3.143   2.714  10.913 -0.4357 -0.3220  1.1990
12595TIP3    H159276   3.052   2.689  10.902 -0.3985 -0.2151  0.6578
12595TIP3    H259277   3.145   2.808  10.900 -0.1385 -0.4192  0.4812
12596TIP3   OH259278   5.747   2.207  14.693  0.1889 -0.1823 -0.1842
12596TIP3    H159279   5.664   2.162  14.710  0.6646 -0.7580  0.6735
12596TIP3    H259280   5.721   2.297  14.672 -0.6145 -0.1890  0.7254
12597TIP3   OH259281   0.659   3.522   0.277  0.0188 -0.1708  0.1483
12597TIP3    H159282   0.602   3.580   0.328  0.0961 -1.9370  2.3843
12597TIP3    H259283   0.608   3.442   0.264  1.6408 -1.5059  1.5620
12598TIP3   OH259284   6.311   2.541  12.124  0.0235  0.1865  0.8728
12598TIP3    H159285   6.359   2.588  12.057  1.6367 -3.0258 -0.4496
12598TIP3    H259286   6.243   2.494  12.076 -0.1926 -0.4779  1.7967
12599TIP3   OH259287   2.345   6.177  13.658 -0.2196  0.1162  0.3614
12599TIP3    H159288   2.310   6.262  13.632 -1.2726 -1.0295 -2.3914
12599TIP3    H259289   2.401   6.152  13.585 -0.5897 -1.8982  0.7204
12600TIP3   OH259290   1.505   0.568  15.282  0.7147  0.3007 -0.6039
12600TIP3    H159291   1.526   0.625  15.208  0.5841 -0.3483 -1.1560
12600TIP3    H259292   1.589   0.534  15.311  0.9885  2.1097  0.8613
12601TIP3   OH259293   2.124   4.015   1.814  0.1243 -0.3576 -0.0174
12601TIP3    H159294   2.113   3.923   1.789  0.0664 -0.1221 -0.9091
12601TIP3    H259295   2.137   4.060   1.731 -0.4281  0.5233  0.3641
12602TIP3   OH259296   2.404   1.573  15.193  0.2270  0.4359  0.3627
12602TIP3    H159297   2.383   1.511  15.123 -1.5837  0.4801  0.8250
12602TIP3    H259298   2.486   1.540  15.231 -0.9276 -1.9637  0.9193
12603TIP3   OH259299   3.549   0.263  10.827  0.2132  0.0336 -0.6698
12603TIP3    H159300   3.580   0.267  10.917 -1.3405 -1.9799  0.0374
12603TIP3    H259301   3.487   0.335  10.819  3.4448  2.9745 -1.5619
12604TIP3   OH259302   5.161   0.729  11.895  0.1632  0.0150 -0.2778
12604TIP3    H159303   5.113   0.649  11.915  1.4732 -0.7476 -0.0921
12604TIP3    H259304   5.094   0.798  11.896 -0.4626 -0.4387  3.4425
12605TIP3   OH259305   0.356   3.167  13.194  0.4802  0.0916 -0.3890
12605TIP3    H159306   0.386   3.102  13.131 -1.3760 -0.6375 -0.5803
12605TIP3    H259307   0.427   3.172  13.259  0.9039 -1.7170 -0.6529
12606TIP3   OH259308   4.990   3.296   1.796 -0.1448 -0.1206  0.4151
12606TIP3    H159309   4.966   3.386   1.776 -0.6767 -0.2566  0.4188
12606TIP3    H259310   4.951   3.279   1.882 -1.0102 -0.7006 -0.0680
12607TIP3   OH259311   5.124   5.919  14.227  0.6681 -0.3721 -0.0012
12607TIP3    H159312   5.148   5.828  14.211  1.6712 -0.3952  1.4988
12607TIP3    H259313   5.165   5.968  14.155  1.1800 -0.9659 -0.1205
12608TIP3   OH259314   4.355   6.405   3.044 -0.2318 -0.1359  0.1699
12608TIP3    H159315   4.409   6.342   2.996  1.4542  0.9014  0.6163
12608TIP3    H259316   4.269   6.364   3.049  0.2367 -1.4239 -1.4376
12609TIP3   OH259317   1.392   3.324   3.330 -0.0970 -0.1805  0.1572
12609TIP3    H159318   1.369   3.395   3.269 -0.4207 -0.1155  0.3487
12609TIP3    H259319   1.386   3.245   3.278 -1.0499 -0.1929  0.2615
12610TIP3   OH259320   3.271   1.241  13.930 -0.1035 -0.0986  0.5573
12610TIP3    H159321   3.253   1.201  14.016 -0.8563 -0.8030  0.0897
12610TIP3    H259322   3.204   1.310  13.922 -0.6717 -0.6925  0.1197
12611TIP3   OH259323   4.712   0.883   6.089 -0.7956  0.5026  0.2789
12611TIP3    H159324   4.687   0.828   6.163 -0.8602 -1.0902 -0.8764
12611TIP3    H259325   4.634   0.935   6.070 -0.3787  1.8982  2.0924
12612TIP3   OH259326   1.184   4.901   1.370  0.0921  1.0048  0.2863
12612TIP3    H159327   1.091   4.911   1.350  0.1634  1.7645  0.3272
12612TIP3    H259328   1.207   4.814   1.335 -0.6542  0.7612  0.3824
12613TIP3   OH259329   6.613   1.358  14.600 -0.1877 -0.2463  1.0954
12613TIP3    H159330   6.706   1.367  14.578 -0.5103 -0.4162 -0.3996
12613TIP3    H259331   6.603   1.267  14.626 -0.0136 -0.3167  0.9139
12614TIP3   OH259332   3.889   3.252   3.388  0.3191 -0.1623 -0.2255
12614TIP3    H159333   3.971   3.219   3.424  0.2207 -1.0156 -0.7548
12614TIP3    H259334   3.909   3.278   3.299  0.5983  2.1156  0.4517
12615TIP3   OH259335   5.334   6.815  14.543  0.2008  0.5534 -0.0822
12615TIP3    H159336   5.262   6.830  14.604 -0.1150 -1.2827  0.0461
12615TIP3    H259337   5.292   6.781  14.464  0.8643  0.1757 -0.2755
12616TIP3   OH259338   0.082   4.176  15.568 -0.0347 -0.0702 -0.1653
12616TIP3    H159339  -0.009   4.153  15.583  0.1405 -1.3416 -0.8839
12616TIP3    H259340   0.132   4.116  15.624  0.3852 -0.4525 -0.9117
12617TIP3   OH259341   0.479   6.830  16.577  0.3849  0.7311  0.5122
12617TIP3    H159342   0.463   6.924  16.589  1.9442  0.8658  2.0362
12617TIP3    H259343   0.574   6.822  16.579  0.2641 -0.9324  0.8485
12618TIP3   OH259344   3.646   2.193   5.594  0.0685 -0.6730  0.2777
12618TIP3    H159345   3.669   2.233   5.678  0.6798  1.2119 -0.7289
12618TIP3    H259346   3.720   2.213   5.536  0.4188 -3.3212 -0.3317
12619TIP3   OH259347   1.295   6.031  17.199  0.5056  0.4378  0.5598
12619TIP3    H159348   1.315   5.974  17.125 -2.8884 -0.6123  0.2854
12619TIP3    H259349   1.316   5.978  17.276 -3.8250 -2.0234  0.3461
12620TIP3   OH259350   4.491   5.834  10.659  0.3650 -0.1081 -0.0874
12620TIP3    H159351   4.524   5.903  10.716  1.3664 -1.3012  0.8341
12620TIP3    H259352   4.569   5.783  10.636 -0.3488 -0.9269 -0.7553
12621TIP3   OH259353   5.749   3.855  10.779  0.5080 -0.3794  0.1160
12621TIP3    H159354   5.687   3.928  10.786  1.2021  0.3115 -0.7341
12621TIP3    H259355   5.696   3.782  10.748 -0.2972 -0.3941  1.4364
12622TIP3   OH259356   3.222   4.965   1.035  0.3659 -0.2427  0.0527
12622TIP3    H159357   3.274   4.951   1.115  0.9220 -0.2317 -0.3010
12622TIP3    H259358   3.278   5.020   0.980 -0.4429  0.6188  0.0815
12623TIP3   OH259359   2.594   3.673   0.365  0.0387  0.1347 -0.2801
12623TIP3    H159360   2.669   3.693   0.421 -0.7079  0.6029  0.5801
12623TIP3    H259361   2.566   3.758   0.330  0.8070 -0.2057 -1.8011
12624TIP3   OH259362   5.341   4.716   4.055 -0.1807  0.2414  0.2744
12624TIP3    H159363   5.312   4.710   4.146 -0.9095 -1.2447 -0.0202
12624TIP3    H259364   5.434   4.694   4.057  0.5807  3.0320  0.9681
12625TIP3   OH259365   0.024   3.137   6.762  0.2015  0.4689  0.0255
12625TIP3    H159366   0.037   3.230   6.782  1.3314  0.6707 -1.4751
12625TIP3    H259367   0.065   3.090   6.835 -0.5183  1.1226  0.8738
12626TIP3   OH259368   0.250   5.023   3.741  0.3443 -0.3925 -0.2828
12626TIP3    H159369   0.160   5.009   3.771  0.2424  0.9470  0.0622
12626TIP3    H259370   0.243   5.091   3.674  0.9005 -1.5480 -1.5604
12627TIP3   OH259371   5.024   2.003  11.911  0.3890 -0.0071  0.1785
12627TIP3    H159372   5.025   1.912  11.883  1.0726  0.3720 -1.1700
12627TIP3    H259373   4.935   2.033  11.895  0.4833 -0.1133 -0.5996
12628TIP3   OH259374   3.201   3.205   1.615 -0.0451 -0.0451  0.3584
12628TIP3    H159375   3.238   3.117   1.614  1.8884  0.7304  0.8368
12628TIP3    H259376   3.217   3.237   1.703 -1.3800  0.5562  0.4109
12629TIP3   OH259377   0.156   6.527  11.832 -0.4834  0.6725 -0.0433
12629TIP3    H159378   0.184   6.595  11.772 -1.7809  0.0831 -1.3787
12629TIP3    H259379   0.216   6.454  11.817  0.0633  1.0294  0.4030
12630TIP3   OH259380   1.867   5.758  10.599 -0.1085  0.3024 -0.1462
12630TIP3    H159381   1.886   5.803  10.681  0.1644 -2.3099  1.3317
12630TIP3    H259382   1.953   5.744  10.559 -0.1615  0.7692 -0.4253
12631TIP3   OH259383   5.607   2.913  15.459 -0.4714 -0.5041  0.4407
12631TIP3    H159384   5.647   2.865  15.531 -0.1083  1.0551  1.3346
12631TIP3    H259385   5.608   3.004  15.488 -2.0199 -0.0624 -0.7603
12632TIP3   OH259386   3.507   2.032  11.098 -0.3208  0.2492  0.4592
12632TIP3    H159387   3.450   2.022  11.022  1.9556  0.2375 -1.3739
12632TIP3    H259388   3.579   2.087  11.067  2.4504 -2.4588  1.5127
12633TIP3   OH259389   4.406   5.666   3.272  0.5513  0.0201 -0.7644
12633TIP3    H159390   4.418   5.667   3.367  2.9275 -2.1119 -0.9518
12633TIP3    H259391   4.473   5.607   3.240 -1.0374 -0.3656 -3.6979
12634TIP3   OH259392   0.635   2.694  10.989  0.2138  0.0519 -0.3703
12634TIP3    H159393   0.577   2.762  11.022  0.5357  0.5366 -0.8022
12634TIP3    H259394   0.648   2.715  10.897  0.2121 -0.6673 -0.5433
12635TIP3   OH259395   4.147   2.868  14.933 -0.0864  0.3211 -0.4151
12635TIP3    H159396   4.166   2.908  14.848  2.3682 -0.6478 -0.4148
12635TIP3    H259397   4.111   2.782  14.911 -2.0016  1.0985 -0.4281
12636TIP3   OH259398   5.181   0.093   3.617 -0.1827  0.0886 -0.0268
12636TIP3    H159399   5.193   0.187   3.602 -0.0824  0.3211  1.3195
12636TIP3    H259400   5.176   0.085   3.713  1.3158 -1.4666 -0.0360
12637TIP3   OH259401   4.887   1.475  13.729 -0.5314  0.2922  0.3482
12637TIP3    H159402   4.792   1.465  13.737 -0.3175 -0.5022  2.4864
12637TIP3    H259403   4.900   1.568  13.710 -1.7527  0.1835 -1.2898
12638TIP3   OH259404   4.770   5.386  17.048  0.7685  0.5860  0.1328
12638TIP3    H159405   4.703   5.339  16.998  0.6002 -1.5419  2.1953
12638TIP3    H259406   4.738   5.476  17.051 -0.6151  0.1893 -1.1646
12639TIP3   OH259407   5.427   1.118   0.868  0.4642 -0.3999 -0.1083
12639TIP3    H159408   5.455   1.057   0.935  1.3036 -0.0758 -0.1592
12639TIP3    H259409   5.442   1.205   0.906 -0.6393 -0.2139 -0.0658
12640TIP3   OH259410   4.856   6.676  11.614 -0.2169  0.3199 -0.0405
12640TIP3    H159411   4.827   6.632  11.534  0.5702  2.0636 -1.3512
12640TIP3    H259412   4.931   6.728  11.586  1.3523 -0.5562  2.2931
12641TIP3   OH259413   5.456   4.260   5.518  0.8409 -0.2885  0.3921
12641TIP3    H159414   5.415   4.244   5.433  1.4762  0.1902 -0.0146
12641TIP3    H259415   5.430   4.349   5.541 -0.9748 -1.0756  1.6670
12642TIP3   OH259416   0.740   2.019   2.930 -0.5905  0.1215 -0.0002
12642TIP3    H159417   0.742   2.109   2.962  0.9338  0.5652 -1.2423
12642TIP3    H259418   0.721   1.967   3.008  2.3561  1.1952  1.5928
12643TIP3   OH259419   1.000   3.161   4.081  0.1973  0.3920 -0.0689
12643TIP3    H159420   0.987   3.084   4.135  0.8330 -1.3267 -2.2060
12643TIP3    H259421   1.036   3.227   4.140  0.2284 -1.1381  1.7013
12644TIP3   OH259422   6.423   4.318  14.955 -0.1153  0.0749  0.2059
12644TIP3    H159423   6.493   4.299  15.017  0.0308 -0.2804 -0.0625
12644TIP3    H259424   6.404   4.411  14.967 -0.0113  0.0333  0.7016
12645TIP3   OH259425   2.775   5.272  11.292  0.1352  0.7827  0.0681
12645TIP3    H159426   2.820   5.300  11.212  2.0559  1.9524  1.4433
12645TIP3    H259427   2.753   5.180  11.277  1.7474  0.5683 -1.2665
12646TIP3   OH259428   5.079   2.671  14.417 -0.1186  0.0831  0.2743
12646TIP3    H159429   5.147   2.608  14.443  0.9600  1.2524  0.3900
12646TIP3    H259430   5.031   2.688  14.498  3.1501  3.6128  1.8100
12647TIP3   OH259431   3.500   5.052   5.579 -0.7231  0.2431 -0.1742
12647TIP3    H159432   3.542   5.125   5.533  2.1945 -0.5004  1.0549
12647TIP3    H259433   3.519   5.068   5.671 -0.9420 -1.5159  0.2108
12648TIP3   OH259434   4.350   0.386  11.462 -0.2163 -0.0379 -0.5226
12648TIP3    H159435   4.311   0.454  11.518  0.2844  1.1587 -1.5751
12648TIP3    H259436   4.443   0.387  11.484  0.3118  1.6410 -2.4607
12649TIP3   OH259437   1.826   5.140  12.193 -0.2988 -0.1651 -0.4741
12649TIP3    H159438   1.819   5.133  12.098 -0.2953  0.0341 -0.4884
12649TIP3    H259439   1.919   5.159  12.209  0.0695 -1.8900 -0.3377
12650TIP3   OH259440   4.106   2.501  12.839  0.3866  0.1804 -0.4060
12650TIP3    H159441   4.097   2.590  12.804 -0.2235  1.2023  2.1152
12650TIP3    H259442   4.031   2.490  12.897  1.3156 -1.3422  0.5822
12651TIP3   OH259443   3.966   0.743   0.524  0.4594 -0.0217 -0.0153
12651TIP3    H159444   3.969   0.649   0.543 -1.5222  0.0404  0.7703
12651TIP3    H259445   3.957   0.748   0.429  2.1254 -0.5530 -0.2346
12652TIP3   OH259446   5.083   6.405  13.725 -0.1754  0.2543  0.3050
12652TIP3    H159447   5.118   6.437  13.641 -0.6772  0.3828  0.1444
12652TIP3    H259448   4.989   6.401  13.712 -0.1428 -1.0914  0.4037
12653TIP3   OH259449   3.782   4.195   3.094  1.0696 -0.1254 -0.1520
12653TIP3    H159450   3.778   4.200   2.999  1.0893  1.9095 -0.0852
12653TIP3    H259451   3.762   4.284   3.124 -1.8353 -1.2918  1.8417
12654TIP3   OH259452   5.962   5.178  10.603  0.5838  0.4668 -0.7883
12654TIP3    H159453   5.991   5.226  10.526  1.1554  0.1846 -0.7526
12654TIP3    H259454   6.041   5.138  10.638  0.2198  0.0353 -0.4421
12655TIP3   OH259455   6.543   5.567   3.548 -0.4717 -0.6306  0.0542
12655TIP3    H159456   6.618   5.590   3.603 -1.8727 -0.6983  2.0635
12655TIP3    H259457   6.575   5.582   3.458  1.6536  0.1624  0.8644
12656TIP3   OH259458   3.388   3.326  13.686  0.5123 -0.0861  0.0596
12656TIP3    H159459   3.396   3.280  13.770  0.5081 -1.6094 -0.7403
12656TIP3    H259460   3.476   3.322  13.648  0.7246  1.3607  0.3505
12657TIP3   OH259461   1.600   3.403   0.641 -0.7156  0.1586 -0.4423
12657TIP3    H159462   1.530   3.346   0.673 -0.9218 -0.2828 -1.6173
12657TIP3    H259463   1.680   3.354   0.657 -0.9842 -1.1608 -2.7278
12658TIP3   OH259464   2.027   3.814   3.614 -0.3115 -0.2331 -0.1034
12658TIP3    H159465   2.034   3.884   3.678 -0.5454 -0.2003 -0.1144
12658TIP3    H259466   2.098   3.831   3.551  0.7609 -0.9991  0.8599
12659TIP3   OH259467   1.914   1.361  16.037 -0.7281 -0.3761 -0.5451
12659TIP3    H159468   1.904   1.322  15.950 -1.4014 -1.3163 -0.0688
12659TIP3    H259469   1.933   1.453  16.020  0.9550 -0.8895 -1.7204
12660TIP3   OH259470   4.488   3.749  14.075  0.3060  0.1210  0.2531
12660TIP3    H159471   4.572   3.707  14.096 -0.1202 -0.8112  0.1591
12660TIP3    H259472   4.501   3.841  14.096  0.6987 -0.3386  2.2037
12661TIP3   OH259473   5.147   3.815   3.595 -0.4103 -0.7394 -0.4435
12661TIP3    H159474   5.071   3.869   3.571 -2.3409 -2.1211  2.1666
12661TIP3    H259475   5.201   3.872   3.649  0.8168  0.4151 -2.7226
12662TIP3   OH259476   1.774   1.514   1.671  0.5615 -0.2997 -0.4772
12662TIP3    H159477   1.724   1.526   1.590  0.1286 -1.5720 -0.4357
12662TIP3    H259478   1.863   1.539   1.649 -0.0119  1.7167 -0.6485
12663TIP3   OH259479   5.951   5.846   3.617 -0.0836  0.3640 -0.1763
12663TIP3    H159480   6.024   5.786   3.605  0.0458  0.2334  1.1276
12663TIP3    H259481   5.899   5.807   3.688  0.6724  2.3879  1.5875
12664TIP3   OH259482   1.863   4.852   5.968  0.4737  0.4582  0.4136
12664TIP3    H159483   1.898   4.869   6.056 -0.0673  2.0055  0.3658
12664TIP3    H259484   1.936   4.874   5.910  0.9744 -0.9808  0.4688
12665TIP3   OH259485   2.012   4.256   4.737 -0.3655  0.0468 -0.4141
12665TIP3    H159486   1.953   4.315   4.785  0.7850 -0.0599  1.2216
12665TIP3    H259487   1.964   4.234   4.657 -1.5051  1.9041 -0.3057
12666TIP3   OH259488   0.821   0.888   0.748 -0.1730 -0.6500 -0.2531
12666TIP3    H159489   0.897   0.830   0.747  1.2464  1.1294 -1.4081
12666TIP3    H259490   0.788   0.886   0.659 -0.2037  0.1900 -0.2655
12667TIP3   OH259491   3.041   3.890  13.363  0.0566 -0.2592  0.1677
12667TIP3    H159492   2.951   3.899  13.395 -0.0093  0.6313 -0.2464
12667TIP3    H259493   3.087   3.844  13.434 -0.6132 -0.3009  0.5831
12668TIP3   OH259494   2.660   1.294   3.607 -0.0654  0.0311  0.6780
12668TIP3    H159495   2.658   1.328   3.696  0.9384  0.5406  0.5142
12668TIP3    H259496   2.721   1.220   3.611 -0.1416 -0.0447  0.4444
12669TIP3   OH259497   6.017   1.431  12.292 -0.0937  0.7981 -0.5923
12669TIP3    H159498   6.096   1.384  12.266 -0.9116 -1.5219  0.8529
12669TIP3    H259499   6.012   1.505  12.231  1.9692 -0.2513 -2.1471
12670TIP3   OH259500   2.399   6.148  16.013 -0.1390 -0.1216 -0.1277
12670TIP3    H159501   2.433   6.066  16.049  1.5302  0.3217 -0.5965
12670TIP3    H259502   2.467   6.177  15.952 -0.6897  1.6339  0.0494
12671TIP3   OH259503   6.741   1.275  12.088 -0.6880 -0.5470 -0.0714
12671TIP3    H159504   6.684   1.298  12.161 -0.0016 -0.9711  0.6063
12671TIP3    H259505   6.799   1.207  12.123 -1.4032 -1.9439 -1.4762
12672TIP3   OH259506   1.252   2.117  15.806 -0.9182 -0.2686 -0.3407
12672TIP3    H159507   1.161   2.145  15.810 -0.5928  0.7004  0.6482
12672TIP3    H259508   1.290   2.147  15.888  0.4134 -0.2515 -0.9411
12673TIP3   OH259509   5.622   3.397  16.454 -0.2247  0.0580 -0.1193
12673TIP3    H159510   5.555   3.463  16.439  2.1083  2.4396 -0.8974
12673TIP3    H259511   5.606   3.331  16.386 -0.7169  1.4887 -1.4548
12674TIP3   OH259512   4.520   4.096   2.319  0.1045  0.2550  0.2002
12674TIP3    H159513   4.532   4.001   2.330 -2.0441 -0.0465  0.4347
12674TIP3    H259514   4.578   4.135   2.384  0.9486 -0.8796  0.1767
12675TIP3   OH259515   4.623   2.875   4.819 -0.3016  0.2020 -0.3563
12675TIP3    H159516   4.558   2.944   4.829 -1.3835 -1.0271  1.9857
12675TIP3    H259517   4.588   2.818   4.750 -0.6103  0.6964 -0.6099
12676TIP3   OH259518   3.878   2.727  16.998  0.7022  0.1963 -0.5821
12676TIP3    H159519   3.947   2.783  16.965 -0.2131  1.1301 -0.9552
12676TIP3    H259520   3.896   2.719  17.092  0.8881  1.0458 -0.5459
12677TIP3   OH259521   4.524   3.192  13.681 -0.6172 -0.6973 -0.6385
12677TIP3    H159522   4.520   3.273  13.731 -1.7249 -0.9610 -0.2681
12677TIP3    H259523   4.433   3.162  13.677 -0.3665 -1.3632 -1.6918
12678TIP3   OH259524   3.704   1.565   3.953 -0.2327 -0.4466  0.0056
12678TIP3    H159525   3.787   1.598   3.985 -0.3786 -1.5880  1.6864
12678TIP3    H259526   3.671   1.509   4.023 -0.7430 -2.8673 -2.0075
12679TIP3   OH259527   4.778   2.496   6.762  0.1234  0.2348 -0.1845
12679TIP3    H159528   4.724   2.520   6.687 -0.4621 -1.8417 -0.5005
12679TIP3    H259529   4.849   2.559   6.762  0.6027 -0.1761 -2.9876
12680TIP3   OH259530   1.416   5.671  11.534  0.4164  0.3986 -0.6436
12680TIP3    H159531   1.346   5.658  11.597  0.5055  2.1846 -0.1041
12680TIP3    H259532   1.374   5.713  11.460  0.5868 -0.2849 -1.1325
12681TIP3   OH259533   2.244   2.875  15.034  0.4825  0.2387 -0.4453
12681TIP3    H159534   2.168   2.915  14.994  0.4219 -0.3887 -0.9696
12681TIP3    H259535   2.311   2.944  15.034 -0.1668  0.8969  0.3201
12682TIP3   OH259536   2.604   1.672  16.407 -0.8126 -0.5256 -0.2419
12682TIP3    H159537   2.660   1.748  16.390 -1.2357 -0.3985 -1.1182
12682TIP3    H259538   2.579   1.641  16.320 -1.3745 -1.1228  0.1254
12683TIP3   OH259539   3.464   3.745   5.431  0.0413 -0.0192 -0.0093
12683TIP3    H159540   3.483   3.836   5.411 -0.0429  0.0993  0.4343
12683TIP3    H259541   3.475   3.699   5.348  0.6081  0.3069 -0.1162
12684TIP3   OH259542   1.515   0.947  13.913  0.4708  0.4814  0.6227
12684TIP3    H159543   1.580   0.972  13.847  0.4834 -0.3350  0.3168
12684TIP3    H259544   1.483   0.861  13.885 -0.3847  0.6451  1.0403
12685TIP3   OH259545   4.530   1.490   0.206 -0.0888  0.1329 -0.1326
12685TIP3    H159546   4.511   1.520   0.117  0.7556 -0.1625 -0.4267
12685TIP3    H259547   4.609   1.436   0.196 -0.4315 -0.5274  0.6795
12686TIP3   OH259548   6.038   0.579  15.557 -0.3970  0.2893  0.4324
12686TIP3    H159549   5.990   0.499  15.537 -1.0717  0.5093  1.1119
12686TIP3    H259550   6.113   0.579  15.497  0.1754 -1.3548  1.1009
12687TIP3   OH259551   5.137   4.825  11.605  0.6230  0.3126 -0.0665
12687TIP3    H159552   5.125   4.919  11.591 -2.7127 -0.0723 -0.6997
12687TIP3    H259553   5.153   4.790  11.518 -2.1493 -0.0531 -0.5247
12688TIP3   OH259554   5.123   0.672  12.312  0.2001  0.0038  0.1752
12688TIP3    H159555   5.041   0.719  12.297  0.1671  0.3282  1.2652
12688TIP3    H259556   5.180   0.699  12.240  0.1087  1.5755  0.6397
12689TIP3   OH259557   1.505   1.216  10.579 -0.5205  0.4545 -0.1143
12689TIP3    H159558   1.572   1.283  10.583 -1.4374  1.3417  1.5365
12689TIP3    H259559   1.422   1.263  10.586 -1.2403 -0.7468 -0.1122
12690TIP3   OH259560   4.485   0.113   3.049  0.4693 -0.0455  0.1197
12690TIP3    H159561   4.501   0.186   2.989  0.0705  0.6466  0.8372
12690TIP3    H259562   4.520   0.037   3.003 -2.1049  0.0003 -2.1325
12691TIP3   OH259563   1.143   0.932  16.725 -0.4519 -0.3586 -0.4674
12691TIP3    H159564   1.151   1.018  16.683  1.0658  0.1473  0.7240
12691TIP3    H259565   1.172   0.870  16.658  0.9819  0.3400 -0.5531
12692TIP3   OH259566   1.188   3.788   0.384  0.3286 -0.6412 -0.0138
12692TIP3    H159567   1.100   3.824   0.382 -0.4124 -2.3752 -0.0724
12692TIP3    H259568   1.235   3.837   0.316 -1.1317 -0.9757 -1.3341
12693TIP3   OH259569   0.428   0.425  15.560  0.2861  0.1800  0.0261
12693TIP3    H159570   0.457   0.495  15.501  0.5554  0.3293  0.3359
12693TIP3    H259571   0.464   0.448  15.645 -1.0176  0.5477  0.4997
12694TIP3   OH259572   5.446   3.602   1.659 -0.1528 -0.1303 -0.3424
12694TIP3    H159573   5.362   3.602   1.703 -0.5623  2.4150 -0.9457
12694TIP3    H259574   5.509   3.574   1.726 -1.2618 -0.4052  0.6076
12695TIP3   OH259575   4.838   5.075   3.047  0.1115 -0.2941  0.0934
12695TIP3    H159576   4.831   4.985   3.017 -2.7729 -0.2243  0.2274
12695TIP3    H259577   4.849   5.069   3.142  2.4491 -0.4679 -0.1470
12696TIP3   OH259578   4.982   1.708   3.083 -0.1985 -0.5696 -0.4350
12696TIP3    H159579   5.017   1.765   3.015 -0.5571  0.3362  0.1274
12696TIP3    H259580   4.899   1.677   3.048 -1.2475  1.2938  0.2647
12697TIP3   OH259581   0.678   3.363  12.526 -0.4678  0.5200  0.4156
12697TIP3    H159582   0.653   3.453  12.505  0.5453  0.5494 -0.7614
12697TIP3    H259583   0.774   3.365  12.528 -0.3494  0.4279  4.7972
12698TIP3   OH259584   5.125   1.836   4.693  0.5853 -0.1494  0.2254
12698TIP3    H159585   5.119   1.925   4.727 -0.1241  0.0658 -0.4410
12698TIP3    H259586   5.052   1.789   4.733  1.0487 -0.4928  0.7003
12699TIP3   OH259587   3.392   6.640   3.814  0.3240  0.1807  0.0042
12699TIP3    H159588   3.443   6.583   3.872  0.4030  1.3017  1.0667
12699TIP3    H259589   3.419   6.614   3.726 -0.5690 -2.2867  0.3833
12700TIP3   OH259590   3.769   6.186   4.910  0.4893  0.2801  0.1092
12700TIP3    H159591   3.749   6.190   4.817 -0.3795  0.0176  0.2764
12700TIP3    H259592   3.750   6.095   4.935  0.9116  0.2927  0.5034
12701TIP3   OH259593   2.806   4.374  11.922  0.4366 -0.5611 -0.3970
12701TIP3    H159594   2.780   4.311  11.855  1.7278 -0.5182 -0.9769
12701TIP3    H259595   2.888   4.340  11.956  0.3354 -0.0106  0.4121
12702TIP3   OH259596   6.034   0.962  10.712 -0.5546 -0.0696  0.0177
12702TIP3    H159597   5.995   0.876  10.692 -0.6113 -0.2295  0.7706
12702TIP3    H259598   5.963   1.011  10.753 -0.9410  0.8588 -1.6965
12703TIP3   OH259599   0.284   1.991   3.871 -0.0309 -0.3770  0.0980
12703TIP3    H159600   0.317   1.955   3.953  0.9735  0.8863  0.2831
12703TIP3    H259601   0.309   2.083   3.873 -0.1206 -0.2764 -1.5667
12704TIP3   OH259602   2.682   0.279   5.172  0.0916 -0.4630 -0.1177
12704TIP3    H159603   2.680   0.207   5.234  0.2913 -0.4276 -0.0698
12704TIP3    H259604   2.668   0.357   5.226  1.3607 -0.3239  0.0495
12705TIP3   OH259605   0.441   2.017   0.347 -0.1121  0.1534  0.1602
12705TIP3    H159606   0.381   2.031   0.420 -0.0699 -1.2869  0.5155
12705TIP3    H259607   0.429   2.092   0.290 -0.9749  0.7438  1.0966
12706TIP3   OH259608   5.596   0.322  14.133 -0.0726 -0.4465  0.2846
12706TIP3    H159609   5.571   0.293  14.220 -3.3447  2.0396  0.3371
12706TIP3    H259610   5.644   0.403  14.148  0.7817 -0.8494 -0.2043
12707TIP3   OH259611   1.048   3.893  16.006 -0.1582 -0.1131  0.4454
12707TIP3    H159612   1.136   3.910  16.038 -0.4135  1.0062  0.6039
12707TIP3    H259613   1.012   3.980  15.987 -1.3197 -0.5303  0.6457
12708TIP3   OH259614   1.830   6.211  15.404  0.1882 -0.1551 -0.4781
12708TIP3    H159615   1.755   6.167  15.363  0.9186 -1.6926 -0.2184
12708TIP3    H259616   1.832   6.298  15.364 -0.9360 -0.5565 -1.4505
12709TIP3   OH259617   3.344   4.456  15.412 -0.3351  0.7612  0.2991
12709TIP3    H159618   3.374   4.476  15.500 -1.8952 -1.1550  1.3589
12709TIP3    H259619   3.253   4.485  15.410 -0.6647 -0.2527 -0.2677
12710TIP3   OH259620   3.652   3.156   5.834 -0.4545  0.1371 -0.1098
12710TIP3    H159621   3.569   3.132   5.875  0.4839 -1.5324  0.9346
12710TIP3    H259622   3.682   3.233   5.882 -0.9409  0.1896  0.1158
12711TIP3   OH259623   4.972   2.203   4.561 -0.6551 -0.0254  0.1635
12711TIP3    H159624   5.057   2.164   4.542 -1.3005 -1.1925 -0.4466
12711TIP3    H259625   4.909   2.133   4.544 -1.8471  1.1983 -0.6872
12712TIP3   OH259626   3.392   2.050   1.150 -0.6703 -0.1835  0.3231
12712TIP3    H159627   3.414   2.125   1.096 -0.7506 -0.0548  0.4690
12712TIP3    H259628   3.400   2.081   1.240 -1.4067 -0.1398  0.3820
12713TIP3   OH259629   6.486   5.975   2.635  0.3455 -0.5453 -0.0672
12713TIP3    H159630   6.564   5.996   2.685  0.4936 -0.5802 -0.2829
12713TIP3    H259631   6.468   6.054   2.584 -0.4480 -0.1040  0.8663
12714TIP3   OH259632   3.801   1.760   5.124  0.1584  0.2191 -0.0013
12714TIP3    H159633   3.830   1.772   5.214 -2.0448  0.9280  0.6892
12714TIP3    H259634   3.789   1.666   5.114 -1.1757  0.2542  1.0337
12715TIP3   OH259635   1.498   2.693  16.363  0.0822 -0.2548 -0.1727
12715TIP3    H159636   1.492   2.725  16.453 -0.4088  0.5267 -0.4725
12715TIP3    H259637   1.471   2.601  16.369 -0.7632  0.0139  0.3589
12716TIP3   OH259638   5.591   6.096   4.542  0.0875  0.2016  0.1322
12716TIP3    H159639   5.604   6.170   4.482  1.2341  0.9708  1.2818
12716TIP3    H259640   5.598   6.135   4.629  0.5125 -1.2334  0.7563
12717TIP3   OH259641   5.699   1.738  11.116  0.3342  0.6128 -0.4252
12717TIP3    H159642   5.659   1.698  11.193  0.9892  1.3102  0.2931
12717TIP3    H259643   5.754   1.669  11.079  0.5680  0.4852  0.1466
12718TIP3   OH259644   2.284   4.048   1.451 -0.2375  0.4223  0.1307
12718TIP3    H159645   2.326   4.090   1.376 -1.1326  1.1976  0.0535
12718TIP3    H259646   2.218   4.110   1.480 -1.0061 -0.5664  0.5532
12719TIP3   OH259647   4.333   3.197  15.224 -0.1199  0.7498  0.2593
12719TIP3    H159648   4.425   3.171  15.226 -0.0037  1.2135  1.1002
12719TIP3    H259649   4.319   3.228  15.134  0.3832  0.1243 -0.0400
12720TIP3   OH259650   5.494   6.273   1.436 -0.0498  0.1943  0.6766
12720TIP3    H159651   5.518   6.312   1.520 -0.0736  0.4134  0.5816
12720TIP3    H259652   5.509   6.179   1.448 -1.3857  0.0438  1.3862
12721TIP3   OH259653   3.636   3.943   2.031  0.1194  1.3033 -0.0009
12721TIP3    H159654   3.560   3.962   1.976  0.2349 -0.0893 -0.7012
12721TIP3    H259655   3.699   3.902   1.971  0.3582  0.0134  1.0856
12722TIP3   OH259656   5.480   1.304   1.069 -0.0930  0.1351 -0.8531
12722TIP3    H159657   5.414   1.373   1.077  1.0146  1.3702 -1.7008
12722TIP3    H259658   5.479   1.258   1.153  0.0104  2.0346  0.2405
12723TIP3   OH259659   5.498   4.156   6.579  0.1638  0.1365  0.3857
12723TIP3    H159660   5.497   4.242   6.536  3.0130 -1.0890 -2.5563
12723TIP3    H259661   5.572   4.160   6.639 -0.1505 -0.0437  0.7893
12724TIP3   OH259662   0.053   2.492   4.800  0.2317  0.3608  0.4410
12724TIP3    H159663   0.113   2.552   4.845 -1.4335  2.3257  0.1954
12724TIP3    H259664  -0.025   2.545   4.783 -1.7508 -2.1714  1.0586
12725TIP3   OH259665   5.854   4.622   1.987 -0.0580 -0.0494 -0.0829
12725TIP3    H159666   5.898   4.704   2.010 -0.6006  0.0290  0.7376
12725TIP3    H259667   5.910   4.553   2.022  0.2078 -0.0172 -0.4402
12726TIP3   OH259668   3.934   1.335  12.561  0.0718  0.1584 -0.1449
12726TIP3    H159669   3.988   1.257  12.555  0.5263  0.5019 -0.5987
12726TIP3    H259670   3.982   1.394  12.618 -0.1712  0.1883  0.0303
12727TIP3   OH259671   1.284   5.661  13.460  0.0366 -0.2873 -0.1253
12727TIP3    H159672   1.240   5.609  13.527  1.8418 -1.3803  0.2759
12727TIP3    H259673   1.287   5.604  13.383  0.9707 -0.3429 -0.0567
12728TIP3   OH259674   0.893   2.870  14.360  0.2406  0.7498 -0.4456
12728TIP3    H159675   0.851   2.854  14.275 -0.5972 -0.2716  0.1257
12728TIP3    H259676   0.982   2.837  14.350  0.0985  0.4957 -0.8874
12729TIP3   OH259677   5.182   3.434  16.842 -0.0621  0.4651  0.1973
12729TIP3    H159678   5.098   3.480  16.842  0.3768  1.2784  1.1474
12729TIP3    H259679   5.166   3.358  16.786 -1.1485  1.1161 -0.4283
12730TIP3   OH259680   3.678   5.959  15.206  0.4110  0.7433  0.3377
12730TIP3    H159681   3.610   5.978  15.142  0.9110 -0.3654 -0.5572
12730TIP3    H259682   3.752   6.013  15.177  0.2063  1.2717  0.7880
12731TIP3   OH259683   0.281   3.898   4.553  0.0577  0.0680 -0.1175
12731TIP3    H159684   0.316   3.899   4.642 -0.9182  0.1171  0.2884
12731TIP3    H259685   0.187   3.881   4.565  0.4173 -3.4408 -1.3267
12732TIP3   OH259686   4.502   1.245  11.877  0.1180 -0.3658  0.1753
12732TIP3    H159687   4.484   1.158  11.842 -0.7642 -0.2958  0.4359
12732TIP3    H259688   4.418   1.276  11.911  0.9658 -0.5732  2.6730
12733TIP3   OH259689   3.779   1.734  16.626  0.3748  0.0017 -0.2365
12733TIP3    H159690   3.826   1.814  16.651 -0.8062  0.8325 -0.6166
12733TIP3    H259691   3.768   1.686  16.709 -0.1888  0.9367  0.2447
12734TIP3   OH259692   1.563   1.018  16.613  0.8097  0.0044  0.3571
12734TIP3    H159693   1.500   1.087  16.635  1.3409  1.0910 -1.3703
12734TIP3    H259694   1.509   0.945  16.584  0.3155  0.7560 -0.6459
12735TIP3   OH259695   4.746   0.043  14.046 -0.1582  0.0028  0.1910
12735TIP3    H159696   4.656   0.040  14.014  0.0152 -0.2670 -0.2736
12735TIP3    H259697   4.766   0.136  14.053 -0.3543  0.0629 -0.0397
12736TIP3   OH259698   0.672   5.256   1.748  0.3920  0.8682  0.6909
12736TIP3    H159699   0.754   5.285   1.709  0.3427 -0.9271 -0.8916
12736TIP3    H259700   0.605   5.273   1.682 -0.3380  1.2612  1.5087
12737TIP3   OH259701   0.279   0.771  10.305  0.0441 -0.0886 -0.5558
12737TIP3    H159702   0.203   0.821  10.335  0.2145  1.2676 -2.2312
12737TIP3    H259703   0.337   0.768  10.380 -1.4363 -0.7478  0.6148
12738TIP3   OH259704   2.572   3.671  12.810 -0.3300 -0.1200 -0.5460
12738TIP3    H159705   2.530   3.600  12.859  3.1158 -1.1218  1.3439
12738TIP3    H259706   2.621   3.626  12.741 -1.2888  0.8789 -1.9362
12739TIP3   OH259707   3.078   1.340   0.940  0.6160  0.1698  0.3495
12739TIP3    H159708   3.036   1.383   0.866 -0.4720  0.7885  1.3131
12739TIP3    H259709   3.126   1.409   0.985  0.7339 -0.0777  0.6137
12740TIP3   OH259710   2.500   0.342  13.531 -0.2935  0.6804 -0.2246
12740TIP3    H159711   2.464   0.429  13.550  0.4081  0.9894 -0.2908
12740TIP3    H259712   2.531   0.311  13.616 -0.9082  0.3199 -0.1265
12741TIP3   OH259713   4.066   1.412   1.833  0.1792  0.5804 -0.5333
12741TIP3    H159714   4.113   1.339   1.795 -0.5914 -0.5821  0.6736
12741TIP3    H259715   3.976   1.402   1.802  0.3981  1.9794 -1.6969
12742TIP3   OH259716   5.176   1.563  16.104  0.2106  0.5351 -0.2120
12742TIP3    H159717   5.247   1.560  16.040 -0.2491  2.6121 -0.8953
12742TIP3    H259718   5.134   1.477  16.098  1.2096  0.1041 -1.4837
12743TIP3   OH259719   4.796   5.683   3.353 -0.3678  0.2921 -0.2331
12743TIP3    H159720   4.744   5.670   3.432  0.8963  2.2805  1.0053
12743TIP3    H259721   4.818   5.776   3.352  1.6043 -0.1055 -1.6726
12744TIP3   OH259722   6.570   6.216  14.297  0.2149 -0.1196  0.2986
12744TIP3    H159723   6.599   6.167  14.220  0.7921  0.1536  0.3405
12744TIP3    H259724   6.592   6.307  14.279  1.7087 -0.2278  1.3925
12745TIP3   OH259725   4.440   6.733   4.160 -0.1346  0.2496  0.5996
12745TIP3    H159726   4.407   6.654   4.119  1.5088 -0.3045  0.2656
12745TIP3    H259727   4.374   6.755   4.226 -0.9621 -0.9871  0.2210
12746TIP3   OH259728   3.797   0.074   2.195 -0.0534 -0.5062 -0.3302
12746TIP3    H159729   3.773   0.098   2.285  0.1152 -0.0355 -0.4090
12746TIP3    H259730   3.848   0.148   2.163  0.2700 -0.8688 -0.6656
12747TIP3   OH259731   5.548   2.153  15.114 -0.1198  0.3877  0.3496
12747TIP3    H159732   5.545   2.125  15.206  1.8730  1.3556  0.7427
12747TIP3    H259733   5.581   2.076  15.068 -0.4139  0.1456  0.5292
12748TIP3   OH259734   1.076   6.142   0.075  0.2624 -0.5507 -0.0680
12748TIP3    H159735   1.095   6.117   0.166 -1.5924 -1.0186  0.2396
12748TIP3    H259736   1.156   6.120   0.027  2.1751  1.8105  1.7648
12749TIP3   OH259737   6.446   4.899  16.526  0.1582 -0.5391 -0.4883
12749TIP3    H159738   6.470   4.900  16.433 -1.0519  1.0384 -0.8321
12749TIP3    H259739   6.526   4.926  16.572  0.2430  0.5829 -1.2517
12750TIP3   OH259740   4.964   3.591  16.833  0.0734 -0.6299 -0.4259
12750TIP3    H159741   4.870   3.605  16.839  0.3534  1.2611  0.5601
12750TIP3    H259742   4.999   3.631  16.913  1.5934 -2.7815  0.0527
12751TIP3   OH259743   1.685   5.304   1.483 -0.1577  0.1472 -0.4483
12751TIP3    H159744   1.687   5.399   1.476 -0.7482  0.1145 -1.3853
12751TIP3    H259745   1.762   5.281   1.535 -0.6123  1.2002  0.7357
12752TIP3   OH259746   6.260   5.907   5.043  0.3327 -0.2815 -0.6454
12752TIP3    H159747   6.224   5.818   5.052  3.0954 -1.6995 -2.2109
12752TIP3    H259748   6.346   5.902   5.086  0.1020  2.0185  0.2177
12753TIP3   OH259749   4.852   0.337  15.408  0.2342  0.0850 -0.0917
12753TIP3    H159750   4.787   0.347  15.338 -0.1627  1.5958  0.4437
12753TIP3    H259751   4.936   0.354  15.365  0.0849  0.0732 -0.3893
12754TIP3   OH259752   5.860   2.427  11.220  0.6230  0.5625 -0.1073
12754TIP3    H159753   5.870   2.397  11.130 -0.3957 -0.6128  0.1546
12754TIP3    H259754   5.889   2.519  11.217 -0.2272  0.8167 -1.8009
12755TIP3   OH259755   5.916   1.489   4.759  0.0132 -0.0620 -0.8454
12755TIP3    H159756   5.996   1.476   4.708  1.2977  0.8570  0.8139
12755TIP3    H259757   5.845   1.477   4.696  1.4866  0.8195 -2.7961
12756TIP3   OH259758   3.007   4.256  12.106 -0.4885  0.6839  0.3113
12756TIP3    H159759   3.093   4.277  12.142  0.5124  0.5168 -1.8237
12756TIP3    H259760   2.958   4.222  12.180  1.2883  0.7456  1.5866
12757TIP3   OH259761   5.473   4.300   5.928 -0.3180  0.0748 -0.5112
12757TIP3    H159762   5.535   4.246   5.977 -1.4652  0.0912  1.0088
12757TIP3    H259763   5.425   4.238   5.873 -0.3163 -0.1947 -0.2091
12758TIP3   OH259764   4.862   3.673   4.486 -0.2576 -0.0644 -0.1122
12758TIP3    H159765   4.801   3.718   4.545 -1.2633 -1.2779 -0.1724
12758TIP3    H259766   4.809   3.605   4.445  0.7038  0.0623 -1.6173
12759TIP3   OH259767   3.959   4.219   1.091  0.3402 -0.3246  0.4004
12759TIP3    H159768   4.039   4.176   1.060 -0.4990 -2.5315  1.0923
12759TIP3    H259769   3.902   4.222   1.014  1.0342  1.2913 -0.1052
12760TIP3   OH259770   4.556   2.436   4.709 -0.0393  0.1050 -0.1864
12760TIP3    H159771   4.603   2.499   4.764  1.7920 -0.4194 -1.0502
12760TIP3    H259772   4.566   2.352   4.754 -1.9652  0.2879  0.6612
12761TIP3   OH259773   0.317   0.913   3.181 -0.1538 -0.1607  0.3597
12761TIP3    H159774   0.383   0.982   3.194 -1.2797  1.1066 -0.4151
12761TIP3    H259775   0.253   0.951   3.121 -1.5122 -1.4142  0.9405
12762TIP3   OH259776   3.075   0.211  11.360 -0.3178  0.1093 -0.0786
12762TIP3    H159777   3.109   0.158  11.432 -0.0024  0.3994 -0.0098
12762TIP3    H259778   3.053   0.295  11.400  1.6105  0.9266 -0.6350
12763TIP3   OH259779   4.321   2.889   3.573  0.0016 -0.1324  0.0687
12763TIP3    H159780   4.351   2.930   3.492  0.4127 -0.8739 -0.1595
12763TIP3    H259781   4.385   2.918   3.639  0.2207 -0.3042 -0.0671
12764TIP3   OH259782   3.887   4.219  14.193 -0.1654 -0.6318 -0.1257
12764TIP3    H159783   3.805   4.175  14.217 -0.8503  1.1014  0.8798
12764TIP3    H259784   3.860   4.288  14.133 -0.1801  2.7647  3.4353
12765TIP3   OH259785   2.358   4.714  13.957  0.2889 -0.1888 -0.0176
12765TIP3    H159786   2.362   4.627  13.918  1.2960 -0.2839  0.2715
12765TIP3    H259787   2.447   4.732  13.986 -0.0384  0.6717  0.5166
12766TIP3   OH259788   0.555   4.416  11.710  0.1543 -0.2995 -0.4100
12766TIP3    H159789   0.514   4.466  11.781 -0.8852 -1.4013 -0.2034
12766TIP3    H259790   0.612   4.479  11.666 -1.6696  1.2702 -0.6282
12767TIP3   OH259791   0.297   0.336  14.302 -0.1449 -0.3268 -0.0639
12767TIP3    H159792   0.363   0.391  14.260 -1.8263  3.4012  1.7059
12767TIP3    H259793   0.336   0.311  14.386 -0.2211  0.1661  0.1207
12768TIP3   OH259794   6.627   5.117   1.176 -0.0174 -0.2617  0.2047
12768TIP3    H159795   6.560   5.118   1.245  0.1437 -0.9293  0.3787
12768TIP3    H259796   6.591   5.172   1.107 -0.5939 -0.3333  0.4377
12769TIP3   OH259797   5.106   2.056   0.566  0.0687 -0.4691 -0.1248
12769TIP3    H159798   5.106   2.130   0.504  2.5281 -0.5608 -0.3153
12769TIP3    H259799   5.097   1.979   0.511  0.0596 -0.4369 -0.1688
12770TIP3   OH259800   0.270   0.664  14.989  0.2686  0.3128 -0.4150
12770TIP3    H159801   0.237   0.604  14.922  3.2698  0.4149 -2.1829
12770TIP3    H259802   0.320   0.608  15.048  0.4265  0.6558 -0.2205
12771TIP3   OH259803   1.765   5.520  11.483 -0.1667  0.4883  0.5043
12771TIP3    H159804   1.710   5.530  11.561 -0.7613  2.1658 -0.0796
12771TIP3    H259805   1.839   5.580  11.498 -0.0312  0.4525  0.0030
12772TIP3   OH259806   5.223   2.004  11.235  0.0220  0.0038 -0.4603
12772TIP3    H159807   5.189   2.041  11.154 -1.8702 -1.0205 -0.1893
12772TIP3    H259808   5.271   1.926  11.207 -1.2150 -0.7430 -0.5938
12773TIP3   OH259809   5.338   6.522  12.302 -0.7155 -0.0607 -0.1887
12773TIP3    H159810   5.379   6.451  12.253  1.4027  0.9708 -0.0506
12773TIP3    H259811   5.381   6.601  12.270 -0.6499  0.8321  1.9134
12774TIP3   OH259812   2.686   1.928  14.998  0.1013 -0.2066  0.4559
12774TIP3    H159813   2.756   1.864  15.014 -1.2362 -1.5909  1.0552
12774TIP3    H259814   2.607   1.886  15.035 -0.8307  1.8004  0.8530
12775TIP3   OH259815   4.345   5.141   2.154 -0.2259 -0.7153 -0.0802
12775TIP3    H159816   4.270   5.096   2.192 -0.7571 -0.0290 -0.2992
12775TIP3    H259817   4.345   5.115   2.062 -1.6310  1.1044 -0.6579
12776TIP3   OH259818   5.305   3.607  12.625  0.2905 -0.4723  0.9947
12776TIP3    H159819   5.267   3.649  12.547  1.0167 -0.3589  0.6936
12776TIP3    H259820   5.352   3.677  12.669  0.5693 -0.7210  1.0924
12777TIP3   OH259821   5.011   3.270  10.836 -0.4454 -0.4269 -0.6236
12777TIP3    H159822   5.027   3.192  10.889  2.3550 -0.2180 -1.0092
12777TIP3    H259823   4.916   3.278  10.834 -0.8944 -3.9910 -0.8367
12778TIP3   OH259824   3.245   3.981  16.026  0.1652  0.4781 -0.0502
12778TIP3    H159825   3.186   4.048  15.993  1.3591  2.0544  0.8362
12778TIP3    H259826   3.327   3.995  15.978  1.1204  1.1584  1.6707
12779TIP3   OH259827   1.030   0.751   0.292 -0.2322 -0.4197 -0.1477
12779TIP3    H159828   1.100   0.752   0.227 -1.3487 -1.2720 -1.4260
12779TIP3    H259829   0.957   0.797   0.250 -1.0334 -1.1512  0.4036
12780TIP3   OH259830   4.094   4.759   5.094 -0.4520  0.1786 -0.3294
12780TIP3    H159831   4.050   4.737   5.012 -0.2441  1.4050 -0.7883
12780TIP3    H259832   4.024   4.786   5.153 -0.4873  0.4134 -0.4802
12781TIP3   OH259833   6.320   4.727   3.295 -0.4378 -0.0899  0.1974
12781TIP3    H159834   6.302   4.662   3.364 -2.0331 -0.2044 -0.2765
12781TIP3    H259835   6.238   4.777   3.288  0.3404  1.1521 -0.3258
12782TIP3   OH259836   3.874   4.182   5.982 -0.1810  0.1400  0.2987
12782TIP3    H159837   3.925   4.234   6.043  2.9827 -0.0981 -1.8947
12782TIP3    H259838   3.923   4.100   5.974 -1.5326 -0.5823 -1.1117
12783TIP3   OH259839   1.224   5.885  13.580 -0.2784 -0.7932  0.0504
12783TIP3    H159840   1.268   5.804  13.552 -0.1018 -0.4092 -0.8267
12783TIP3    H259841   1.245   5.892  13.673  0.0145 -1.5618  0.0589
12784TIP3   OH259842   6.513   4.278  13.449 -0.0606 -0.0634 -0.9720
12784TIP3    H159843   6.422   4.309  13.443 -0.9357 -1.2669  3.1403
12784TIP3    H259844   6.505   4.182  13.445  1.2974 -0.1639 -2.2522
12785TIP3   OH259845   4.233   2.186   0.576  0.1175 -0.0982  0.2399
12785TIP3    H159846   4.206   2.159   0.488 -2.9511  0.9246  0.7557
12785TIP3    H259847   4.261   2.277   0.565 -1.4464  0.4358  0.4633
12786TIP3   OH259848   6.786   0.783  13.190 -0.3221 -0.2276 -0.1048
12786TIP3    H159849   6.799   0.844  13.117 -0.6443  1.1492  0.9570
12786TIP3    H259850   6.873   0.746  13.206 -0.1247 -0.0755 -0.7741
12787TIP3   OH259851   6.352   1.956  11.211  0.3714  0.3208 -0.5263
12787TIP3    H159852   6.401   1.929  11.289 -0.3411  0.6947  0.0644
12787TIP3    H259853   6.419   1.974  11.145  1.0357  0.8257  0.2666
12788TIP3   OH259854   0.229   2.022  14.288  0.5397 -0.6649  0.1385
12788TIP3    H159855   0.226   2.028  14.193 -0.5564 -2.7211 -0.0248
12788TIP3    H259856   0.298   2.083  14.315  1.0177 -0.2159 -1.9737
12789TIP3   OH259857   0.791   5.216  14.598  0.8136 -0.3076  0.0489
12789TIP3    H159858   0.842   5.255  14.527 -0.2710  0.5141 -0.3213
12789TIP3    H259859   0.855   5.198  14.667  1.4369  2.1695  0.2373
12790TIP3   OH259860   5.797   0.749  11.966 -0.1669 -0.0912 -0.5787
12790TIP3    H159861   5.851   0.672  11.982  1.2991  1.0900  0.4404
12790TIP3    H259862   5.773   0.742  11.873  0.0887 -1.6580 -0.5484
12791TIP3   OH259863   5.647   3.328   5.874  0.3635 -0.3524 -0.0331
12791TIP3    H159864   5.618   3.365   5.957 -0.4245  0.0916 -0.4946
12791TIP3    H259865   5.577   3.269   5.848  0.7767 -0.7772 -0.2064
12792TIP3   OH259866   4.344   2.735   5.386  0.3242 -0.0113  0.0193
12792TIP3    H159867   4.327   2.744   5.480  0.1169  0.1514 -0.0334
12792TIP3    H259868   4.299   2.810   5.346 -1.0039 -0.9693 -0.3654
12793TIP3   OH259869   6.797   2.927   4.221  0.7086 -0.1625  0.3150
12793TIP3    H159870   6.891   2.915   4.231  0.6567 -1.1065 -0.1583
12793TIP3    H259871   6.787   2.971   4.137  0.7476  0.3939  0.5988
12794TIP3   OH259872   1.908   2.499  13.110  0.4016  0.0036  0.7333
12794TIP3    H159873   1.877   2.525  13.023  1.5854 -0.9115 -0.0138
12794TIP3    H259874   1.878   2.568  13.169 -1.1472  0.2271 -0.2607
12795TIP3   OH259875   3.065   3.959   3.059  0.0394  0.1673 -0.3884
12795TIP3    H159876   3.036   4.049   3.042  0.9514  0.3850 -0.8380
12795TIP3    H259877   3.032   3.909   2.985 -0.4879  0.1282 -0.1273
12796TIP3   OH259878   6.414   4.440   0.768 -0.0449 -0.1465 -0.0502
12796TIP3    H159879   6.453   4.488   0.696  0.3736  1.5252  1.2320
12796TIP3    H259880   6.487   4.393   0.809  0.1204  0.6065  0.5453
12797TIP3   OH259881   1.168   0.770  15.238 -0.4241 -0.8042 -0.3651
12797TIP3    H159882   1.192   0.707  15.306 -0.6418 -0.8941 -0.3686
12797TIP3    H259883   1.119   0.718  15.174 -0.6003 -0.6315 -0.3704
12798TIP3   OH259884   1.337   5.511  12.234  0.3372 -0.1773  0.1704
12798TIP3    H159885   1.336   5.464  12.318  0.5930 -1.0281 -0.2841
12798TIP3    H259886   1.391   5.456  12.177  0.6191  0.6651 -0.4010
12799TIP3   OH259887   1.842   4.159  10.200  0.0866 -0.1453  0.5338
12799TIP3    H159888   1.869   4.107  10.124 -1.7821  0.8298 -0.8747
12799TIP3    H259889   1.914   4.149  10.262  1.5825 -1.1915 -1.2499
12800TIP3   OH259890   2.091   6.259  11.124  0.2239  0.4643  0.1242
12800TIP3    H159891   2.170   6.290  11.080  0.4457  0.8712  0.8028
12800TIP3    H259892   2.047   6.204  11.058  0.6243  0.9359 -0.5486
12801TIP3   OH259893   2.239   5.030   4.622 -0.2762 -0.3937  0.7162
12801TIP3    H159894   2.259   4.962   4.686 -0.1139 -1.2800 -0.2600
12801TIP3    H259895   2.240   4.985   4.538  0.1796  0.8876  0.0154
12802TIP3   OH259896   6.435   5.512   1.633  1.0774 -0.2980 -0.0041
12802TIP3    H159897   6.351   5.521   1.678  1.4065  0.7740  0.4256
12802TIP3    H259898   6.422   5.551   1.547  1.7577  2.1085  0.9048
12803TIP3   OH259899   1.537   0.586  16.010 -0.1286  0.7271  0.1520
12803TIP3    H159900   1.479   0.593  15.935 -0.0865 -1.3254 -0.1263
12803TIP3    H259901   1.572   0.497  16.006  0.3127  0.7418  2.2825
12804TIP3   OH259902   3.228   2.884   2.504 -0.1242 -0.5274 -0.1508
12804TIP3    H159903   3.206   2.933   2.425 -1.2198 -1.3875 -0.4079
12804TIP3    H259904   3.174   2.923   2.573  1.9110  1.2161  0.5684
12805TIP3   OH259905   2.451   5.370  16.028 -0.4540 -0.1439 -0.4614
12805TIP3    H159906   2.384   5.413  16.082  1.2145  1.1120  0.7062
12805TIP3    H259907   2.457   5.424  15.949 -0.1899  0.2757 -0.1586
12806TIP3   OH259908   6.240   5.038   3.430 -0.5044 -0.1843 -1.0009
12806TIP3    H159909   6.297   5.023   3.354  0.3526  1.2278 -0.6651
12806TIP3    H259910   6.203   5.125   3.416 -0.4970  0.0128  0.0932
12807TIP3   OH259911   5.097   3.977  16.748  0.3350  0.2733 -0.9336
12807TIP3    H159912   5.167   3.972  16.813  0.7515  1.7579 -1.2239
12807TIP3    H259913   5.017   3.957  16.796  0.8899 -1.0235 -0.5072
12808TIP3   OH259914   2.500   2.438  14.672  0.3138 -0.1427 -0.0632
12808TIP3    H159915   2.524   2.469  14.760  1.6596 -2.6664  0.5831
12808TIP3    H259916   2.408   2.413  14.680 -0.6503  2.9385 -0.4650
12809TIP3   OH259917   2.970   3.743  13.081  0.2145  0.2143 -0.2881
12809TIP3    H159918   3.045   3.695  13.046 -0.8649 -0.6695 -1.5016
12809TIP3    H259919   2.925   3.680  13.137 -2.2022 -0.9781 -3.2585
12810TIP3   OH259920   1.671   3.149   6.403 -0.1551  0.2447 -0.1034
12810TIP3    H159921   1.593   3.093   6.392  0.3385 -0.9991  2.1276
12810TIP3    H259922   1.643   3.235   6.373 -1.9148 -0.5060 -0.7692
12811TIP3   OH259923   0.888   5.919  16.912  1.0236  0.0946  0.0987
12811TIP3    H159924   0.853   5.975  16.981  1.1974 -0.4518  0.6356
12811TIP3    H259925   0.864   5.964  16.830  2.3908  1.6921  0.5262
12812TIP3   OH259926   3.875   5.418   5.274 -0.5770  0.1609 -0.2334
12812TIP3    H159927   3.836   5.343   5.229 -0.5197  0.6827 -1.1580
12812TIP3    H259928   3.944   5.449   5.216 -0.3386  0.7001  0.3238
12813TIP3   OH259929   2.504   4.452   4.975  0.2734 -0.0714 -0.0278
12813TIP3    H159930   2.448   4.398   4.921  1.0216 -0.8315 -0.0723
12813TIP3    H259931   2.482   4.427   5.065  0.2803 -0.1053 -0.0355
12814TIP3   OH259932   6.484   5.265  16.383 -0.2236 -0.3266 -0.5998
12814TIP3    H159933   6.472   5.356  16.355  2.8092  0.4525  0.1840
12814TIP3    H259934   6.562   5.268  16.439 -1.0669 -3.1618  0.8956
12815TIP3   OH259935   1.848   4.777   5.670 -0.3943 -0.0942 -0.0528
12815TIP3    H159936   1.807   4.856   5.634 -1.3933  0.1001  1.4144
12815TIP3    H259937   1.828   4.781   5.763  1.7747 -0.7501  0.4991
12816TIP3   OH259938   2.623   1.733  13.744 -0.1807  0.2516 -0.1480
12816TIP3    H159939   2.596   1.821  13.770  0.2049  0.4156 -0.3111
12816TIP3    H259940   2.716   1.740  13.725 -0.1497 -0.1894 -0.1773
12817TIP3   OH259941   2.065   5.046  15.646 -0.4869 -0.7538 -0.0850
12817TIP3    H159942   2.063   5.001  15.730  1.1340  1.0997  1.0332
12817TIP3    H259943   2.058   4.976  15.581  2.7134 -2.8098  1.5102
12818TIP3   OH259944   1.618   2.748  12.496 -0.0103  0.1245  0.6049
12818TIP3    H159945   1.698   2.799  12.487  0.0037 -0.1400 -1.1763
12818TIP3    H259946   1.574   2.786  12.572  0.6937  1.8171  0.2204
12819TIP3   OH259947   6.626   4.321   0.867  0.4256 -0.5001  0.1742
12819TIP3    H159948   6.583   4.255   0.922  0.0368 -0.4587 -0.0757
12819TIP3    H259949   6.694   4.272   0.820  0.5507 -0.5968  0.4495
12820TIP3   OH259950   4.533   2.306  11.293 -0.1829 -0.5840 -0.1402
12820TIP3    H159951   4.491   2.254  11.225 -0.0590 -0.6280 -0.1821
12820TIP3    H259952   4.460   2.340  11.345 -0.2486 -1.2350  0.2089
12821TIP3   OH259953   0.208   1.180  14.709  0.5079  0.0465  0.0189
12821TIP3    H159954   0.249   1.150  14.628 -0.4757  0.3687 -0.6213
12821TIP3    H259955   0.114   1.173  14.692  0.2584 -1.0702  1.5847
12822TIP3   OH259956   1.161   2.274  14.950 -0.2570 -0.6443  0.1959
12822TIP3    H159957   1.195   2.221  15.022  0.1408 -1.2314 -0.3973
12822TIP3    H259958   1.135   2.209  14.884  0.1425 -0.1081 -0.5036
12823TIP3   OH259959   1.580   1.780   2.519 -0.7771  0.1792  0.0090
12823TIP3    H159960   1.530   1.733   2.453 -0.6981 -0.6664  0.5415
12823TIP3    H259961   1.658   1.727   2.533  0.4602  1.6352 -1.0464
12824TIP3   OH259962   1.883   4.269  15.151  0.2202 -0.0944  0.2919
12824TIP3    H159963   1.893   4.358  15.117 -1.0558  0.1231  0.4533
12824TIP3    H259964   1.932   4.268  15.233  0.7967  0.2520 -0.0426
12825TIP3   OH259965   5.864   1.937   4.331  0.4424 -0.8478  0.2050
12825TIP3    H159966   5.805   1.943   4.407  0.5721 -0.7503  0.2980
12825TIP3    H259967   5.914   2.018   4.333  1.5970 -1.5489  0.9682
12826TIP3   OH259968   2.970   2.044  10.387 -0.0213 -0.6679 -0.4779
12826TIP3    H159969   2.993   2.080  10.472 -2.7708  1.0069 -0.3095
12826TIP3    H259970   2.931   2.117  10.339 -1.7621 -2.3422 -1.8368
12827TIP3   OH259971   3.112   3.565   3.506 -0.0301 -0.5379  0.1501
12827TIP3    H159972   3.099   3.491   3.565  2.0985 -1.1360 -0.0632
12827TIP3    H259973   3.066   3.638   3.548  1.2129 -0.9887  2.4463
12828TIP3   OH259974   4.796   0.976   5.705 -0.1969  0.5746 -0.0466
12828TIP3    H159975   4.872   0.982   5.763 -0.3835 -1.1964  0.4180
12828TIP3    H259976   4.774   0.884   5.703 -0.9009  0.7219 -2.0635
12829TIP3   OH259977   0.501   2.513  17.136 -0.1085  0.2584  0.3607
12829TIP3    H159978   0.427   2.539  17.191  1.0919  2.3767  1.0909
12829TIP3    H259979   0.503   2.578  17.066  0.4535 -0.3669 -0.2210
12830TIP3   OH259980   6.575   1.988  14.379  0.4868  0.1958 -0.0197
12830TIP3    H159981   6.662   1.969  14.416  0.4773  0.7133  0.2764
12830TIP3    H259982   6.593   2.048  14.307  0.6213 -1.6710 -1.6218
12831TIP3   OH259983   1.875   0.823  11.941 -0.0048 -0.5762  0.3121
12831TIP3    H159984   1.924   0.827  12.023  0.0517 -2.1881  0.3797
12831TIP3    H259985   1.783   0.831  11.967  0.1161  1.1145  0.3065
12832TIP3   OH259986   0.351   5.042  15.865  0.2546 -0.4062  0.1870
12832TIP3    H159987   0.423   5.015  15.808  0.9012 -0.7711  1.1510
12832TIP3    H259988   0.356   5.137  15.867  0.9497 -0.4498  0.5453
12833TIP3   OH259989   4.490   6.119   2.617 -0.1725  0.1906  0.2517
12833TIP3    H159990   4.505   6.026   2.599  2.4947  0.7380 -0.8578
12833TIP3    H259991   4.438   6.149   2.543 -1.4268 -0.4617  0.8332
12834TIP3   OH259992   2.364   3.672   3.234 -0.6400 -0.3794 -0.0213
12834TIP3    H159993   2.339   3.597   3.288 -0.9445 -0.8480 -0.8028
12834TIP3    H259994   2.332   3.651   3.147  2.7367 -1.1784 -1.2134
12835TIP3   OH259995   2.639   5.354  17.184  0.0378  0.6024  0.7333
12835TIP3    H159996   2.572   5.320  17.243 -1.3126  0.4659 -0.8352
12835TIP3    H259997   2.596   5.426  17.137  0.6574 -0.1000 -0.9785
12836TIP3   OH259998   5.617   3.504   5.663 -0.4147  0.4075  0.5149
12836TIP3    H159999   5.637   3.425   5.713  1.3714  1.0102  0.8594
12836TIP3    H260000   5.617   3.475   5.571  1.2055  0.1233  0.5580
12837TIP3   OH260001   2.671   5.687   3.372 -0.6899 -0.3937 -0.8219
12837TIP3    H160002   2.721   5.668   3.293 -0.0469  0.0243 -0.5240
12837TIP3    H260003   2.737   5.707   3.439 -1.2593  1.2520 -0.7007
12838TIP3   OH260004   0.899   4.651   0.122 -0.6634 -0.0569  0.2958
12838TIP3    H160005   0.819   4.655   0.070  0.2423 -2.3863 -1.4511
12838TIP3    H260006   0.896   4.566   0.166  0.5342  0.1120  0.7530
12839TIP3   OH260007   3.589   5.411   4.380 -0.2259  0.2700 -0.3267
12839TIP3    H160008   3.678   5.377   4.371 -0.5177 -0.9276  0.9053
12839TIP3    H260009   3.599   5.506   4.375  1.4892  0.3187  2.1268
12840TIP3   OH260010   1.793   1.415  11.340  0.1117  0.1373 -0.3728
12840TIP3    H160011   1.874   1.407  11.390 -0.1482 -0.2568 -0.0167
12840TIP3    H260012   1.739   1.342  11.369 -0.2980  0.2858 -0.7515
12841TIP3   OH260013   4.945   4.087  16.535 -0.0191  0.5689 -0.6189
12841TIP3    H160014   4.997   4.061  16.611 -0.6159 -2.3983 -1.1100
12841TIP3    H260015   5.009   4.108  16.467  0.7990 -3.6528 -1.4336
12842TIP3   OH260016   2.254   6.072  12.897  0.1310 -0.4935 -0.1070
12842TIP3    H160017   2.302   6.122  12.963  1.5231 -2.0939  0.1667
12842TIP3    H260018   2.223   5.994  12.943 -0.9600 -0.4926 -0.7975
12843TIP3   OH260019   6.069   3.556   6.770  0.4807 -0.4840  0.2851
12843TIP3    H160020   6.151   3.595   6.739  0.2376 -0.1474  0.0633
12843TIP3    H260021   6.001   3.604   6.723  0.0604  0.5884  1.9051
12844TIP3   OH260022   3.276   0.770  16.664 -0.1095  0.2870 -0.0577
12844TIP3    H160023   3.339   0.842  16.672 -1.1211  1.0735  1.0759
12844TIP3    H260024   3.273   0.732  16.752 -0.7400 -0.1664 -0.2727
12845TIP3   OH260025   2.016   3.216  11.320  0.3097  0.6276  0.4405
12845TIP3    H160026   2.104   3.200  11.353  0.8429  1.8199 -0.3368
12845TIP3    H260027   2.029   3.256  11.234 -0.9846  0.9810  0.3853
12846TIP3   OH260028   0.234   1.045   1.178  0.1812 -0.1792 -0.2404
12846TIP3    H160029   0.325   1.040   1.149  0.2499 -0.3192 -0.0075
12846TIP3    H260030   0.187   1.083   1.104  0.2170 -1.2444 -0.8391
12847TIP3   OH260031   6.236   1.422   5.121 -0.3287 -0.1256  0.2364
12847TIP3    H160032   6.302   1.486   5.148 -1.5207  1.2478  0.0658
12847TIP3    H260033   6.171   1.474   5.074 -0.6210 -1.7255 -1.2237
12848TIP3   OH260034   1.509   4.562   0.504 -0.5367 -1.0067  0.2943
12848TIP3    H160035   1.541   4.473   0.490  0.5065 -0.5058 -0.6355
12848TIP3    H260036   1.560   4.596   0.577 -2.6115 -1.9467  2.3198
12849TIP3   OH260037   1.418   2.271  12.473  0.7345 -0.5288 -0.0758
12849TIP3    H160038   1.466   2.297  12.551 -1.8534  1.6621  0.9669
12849TIP3    H260039   1.420   2.348  12.417 -0.6443 -0.7191 -0.4201
12850TIP3   OH260040   1.554   2.299  16.351  0.3845 -0.3117 -0.0383
12850TIP3    H160041   1.594   2.245  16.282  0.3198 -1.0305  0.4701
12850TIP3    H260042   1.569   2.249  16.431  1.5473  1.1012  0.6605
12851TIP3   OH260043   2.673   0.220  12.255 -0.4392 -0.3307  0.1328
12851TIP3    H160044   2.651   0.295  12.310  3.5997  1.0620  0.2070
12851TIP3    H260045   2.657   0.250  12.165  0.3225  0.3209  0.2080
12852TIP3   OH260046   1.881   5.853   2.195 -0.2692  0.5086 -0.9717
12852TIP3    H160047   1.928   5.819   2.271 -1.9134 -1.8659 -0.9004
12852TIP3    H260048   1.800   5.889   2.230 -0.4009  0.7085 -1.4674
12853TIP3   OH260049   1.015   0.308   1.570  0.8843 -0.4806 -0.6480
12853TIP3    H160050   1.078   0.354   1.625 -3.1931  0.6365  3.7443
12853TIP3    H260051   0.973   0.377   1.518  0.5950 -0.5714 -0.5389
12854TIP3   OH260052   5.143   5.825  13.838 -1.0314 -0.0274  0.1621
12854TIP3    H160053   5.106   5.737  13.851 -2.8695  0.5560 -0.7936
12854TIP3    H260054   5.091   5.863  13.768  0.1964  1.5983  0.0668
12855TIP3   OH260055   1.405   6.648  14.183 -0.3464 -0.4709 -0.0125
12855TIP3    H160056   1.331   6.590  14.203 -0.1304 -0.6821  0.1822
12855TIP3    H260057   1.384   6.729  14.229 -0.8516 -0.2497 -0.6270
12856TIP3   OH260058   0.620   0.522  14.628 -0.4758 -0.0291  0.5270
12856TIP3    H160059   0.651   0.608  14.656  0.1205 -0.0407 -0.0580
12856TIP3    H260060   0.679   0.460  14.670 -0.3880 -0.1092  0.2887
12857TIP3   OH260061   3.789   0.862  12.592  0.0245 -0.1507  0.5391
12857TIP3    H160062   3.710   0.842  12.542 -0.6857  0.0477  1.5609
12857TIP3    H260063   3.825   0.776  12.615  0.9472 -0.2720 -1.1616
12858TIP3   OH260064   3.732   6.131   3.088  0.0804 -0.6484 -0.0102
12858TIP3    H160065   3.688   6.070   3.029  1.2134  0.6169 -2.2710
12858TIP3    H260066   3.819   6.092   3.102 -0.2208 -1.0056  1.0064
12859TIP3   OH260067   6.838   6.626   4.088  0.1715 -0.5112 -0.0612
12859TIP3    H160068   6.776   6.641   4.017  0.8509  0.1802 -0.5216
12859TIP3    H260069   6.891   6.552   4.058 -1.6109 -2.4007  1.1581
12860TIP3   OH260070   5.385   2.155  13.452 -0.4647 -0.0839 -0.5517
12860TIP3    H160071   5.352   2.147  13.362  0.6234 -0.7275 -0.9136
12860TIP3    H260072   5.480   2.154  13.442 -0.3324 -0.7895  0.6699
12861TIP3   OH260073   0.789   1.202  11.945  0.3583 -0.4103 -0.0755
12861TIP3    H160074   0.882   1.224  11.940  0.7787 -1.5875  1.7625
12861TIP3    H260075   0.748   1.280  11.982  0.7117 -0.1736 -0.1781
12862TIP3   OH260076   2.349   0.852   4.243  0.2175  0.3681 -0.1773
12862TIP3    H160077   2.369   0.946   4.245 -0.2112  0.4902  2.7926
12862TIP3    H260078   2.367   0.826   4.153  1.3971  3.0667 -0.8327
12863TIP3   OH260079   1.431   2.515  15.086 -0.9459 -0.0948  0.2919
12863TIP3    H160080   1.352   2.469  15.058 -1.5498 -0.2300  2.1096
12863TIP3    H260081   1.430   2.510  15.182  0.7495  0.7699  0.4024
12864TIP3   OH260082   2.502   2.832  12.531  0.3280 -0.2187  0.3936
12864TIP3    H160083   2.446   2.837  12.608  0.5836  0.1773  0.5564
12864TIP3    H260084   2.496   2.919  12.491 -0.3457 -0.6253 -0.4202
12865TIP3   OH260085   5.278   6.228   0.197  0.2275 -0.2312  0.4837
12865TIP3    H160086   5.237   6.260   0.117 -1.1990 -1.4388  0.6816
12865TIP3    H260087   5.364   6.198   0.170 -0.6109 -1.5967 -0.8639
12866TIP3   OH260088   3.984   2.775  14.663 -0.4147 -0.0654 -0.3686
12866TIP3    H160089   4.031   2.726  14.731 -1.0506  1.4399  1.2522
12866TIP3    H260090   4.009   2.732  14.581  1.4123 -1.1729  0.6799
12867TIP3   OH260091   3.978   1.930   1.612 -0.6332 -0.5134  0.3250
12867TIP3    H160092   3.993   2.008   1.559  1.8775 -1.3362 -0.3041
12867TIP3    H260093   3.935   1.869   1.552  2.9233 -1.7466 -1.2822
12868TIP3   OH260094   0.325   3.606   4.388  0.2310  0.0531  0.5763
12868TIP3    H160095   0.411   3.565   4.400  0.9217  0.9954 -0.9519
12868TIP3    H260096   0.340   3.677   4.327 -1.5267  0.6973  0.8358
12869TIP3   OH260097   3.349   5.412  12.290  0.3382  0.2011  0.1042
12869TIP3    H160098   3.364   5.502  12.262 -1.4237  1.0653  1.6927
12869TIP3    H260099   3.286   5.419  12.362  2.1839 -2.0913  2.1278
12870TIP3   OH260100   1.494   4.503   2.214  0.2780  0.0651  0.4515
12870TIP3    H160101   1.511   4.589   2.177  1.1600 -0.0568  0.5458
12870TIP3    H260102   1.580   4.472   2.243  0.1272 -1.2443 -0.4285
12871TIP3   OH260103   2.738   0.034   5.255 -0.1726  0.6529 -0.1522
12871TIP3    H160104   2.762   0.030   5.348 -1.0484 -0.6744  0.0528
12871TIP3    H260105   2.646   0.007   5.254  0.4828 -1.7501 -1.6476
12872TIP3   OH260106   2.083   0.941   0.140 -0.0715 -0.4389 -0.8084
12872TIP3    H160107   2.109   1.010   0.079 -0.7815 -0.3361 -1.0111
12872TIP3    H260108   2.001   0.972   0.178  0.1413 -0.7023 -0.1173
12873TIP3   OH260109   3.238   4.602  11.292  0.0935 -0.5600  0.5099
12873TIP3    H160110   3.251   4.612  11.198 -0.4091 -2.0184  0.2521
12873TIP3    H260111   3.307   4.655  11.332  1.1743 -1.0132 -0.6921
12874TIP3   OH260112   0.250   2.566   4.563 -0.2679 -0.4837 -0.7461
12874TIP3    H160113   0.306   2.519   4.625  0.6077  0.3668 -0.8627
12874TIP3    H260114   0.309   2.590   4.491 -0.3760  1.7610 -0.1635
12875TIP3   OH260115   4.965   0.570   5.149  0.2178 -0.1234  0.8209
12875TIP3    H160116   4.976   0.475   5.152  0.6291 -0.0925  0.3651
12875TIP3    H260117   4.983   0.599   5.238 -1.2334 -0.6068  1.2992
12876TIP3   OH260118   4.445   2.746   4.640 -0.0762  0.2153 -0.2775
12876TIP3    H160119   4.410   2.823   4.594 -0.1632  0.9121  0.9098
12876TIP3    H260120   4.426   2.673   4.581  0.6166  1.1614 -1.7540
12877TIP3   OH260121   4.295   3.337   1.606 -0.3926 -0.2853 -0.3395
12877TIP3    H160122   4.324   3.274   1.671 -0.3618 -0.5669 -0.6225
12877TIP3    H260123   4.329   3.303   1.523 -1.1721 -0.3977 -0.6209
12878TIP3   OH260124   6.269   3.083   4.087 -0.1810  0.0030 -1.0097
12878TIP3    H160125   6.233   3.154   4.034 -1.3997  0.4314  0.3306
12878TIP3    H260126   6.239   3.102   4.176  1.4536 -0.9215 -0.2170
12879TIP3   OH260127   0.517   2.765   1.138  0.6604 -0.2493  0.0475
12879TIP3    H160128   0.576   2.691   1.127  0.4753 -0.5091  0.7190
12879TIP3    H260129   0.552   2.813   1.213  0.5650  0.1369 -0.1516
12880TIP3   OH260130   0.821   4.311  12.886  0.1957  0.1791  0.1518
12880TIP3    H160131   0.727   4.321  12.900  0.5972  3.9910  1.2800
12880TIP3    H260132   0.857   4.399  12.898  4.1717 -1.4151  1.7883
12881TIP3   OH260133   0.883   0.300   2.988 -0.0380  0.1354 -0.0956
12881TIP3    H160134   0.898   0.213   2.950 -1.1750 -0.1144 -0.0315
12881TIP3    H260135   0.969   0.331   3.014  0.7050  0.0223 -2.2456
12882TIP3   OH260136   0.544   4.481   5.948  0.6000 -0.1359  0.7570
12882TIP3    H160137   0.598   4.513   6.021  0.7170  1.9322 -0.1515
12882TIP3    H260138   0.603   4.482   5.872 -0.1357  0.0569  0.1759
12883TIP3   OH260139   4.859   6.514   4.250  0.0910 -0.1835  0.1422
12883TIP3    H160140   4.868   6.470   4.334 -0.4069 -0.2818  0.1436
12883TIP3    H260141   4.804   6.456   4.197 -0.4071  0.3351  0.0800
12884TIP3   OH260142   2.699   2.263  13.295 -0.1553 -0.4480 -0.0262
12884TIP3    H160143   2.736   2.341  13.336 -1.5274 -0.6131  1.6043
12884TIP3    H260144   2.604   2.275  13.301 -0.4451 -3.0368  1.9525
12885TIP3   OH260145   4.271   6.386   4.665 -0.0212 -0.8798  0.2322
12885TIP3    H160146   4.295   6.477   4.644  2.7252 -1.4518  0.5390
12885TIP3    H260147   4.239   6.391   4.755  1.1538 -0.3353  0.6428
12886TIP3   OH260148   5.178   3.167   0.390 -0.7871  0.1084 -0.0772
12886TIP3    H160149   5.267   3.149   0.421 -0.6961 -2.3277 -1.4592
12886TIP3    H260150   5.138   3.218   0.461  0.9038 -0.9631  1.7731
12887TIP3   OH260151   6.830   1.110   5.599  0.2968 -0.2041  0.6762
12887TIP3    H160152   6.773   1.143   5.529 -0.1816 -0.6256  0.8672
12887TIP3    H260153   6.875   1.035   5.560 -1.0983 -1.4030  1.2649
12888TIP3   OH260154   2.155   2.360   3.309 -0.0599  0.5073 -0.1122
12888TIP3    H160155   2.212   2.429   3.342  0.1992  0.3980 -0.3267
12888TIP3    H260156   2.139   2.304   3.385 -0.4333  0.9130  0.1097
12889TIP3   OH260157   3.261   4.362  11.506  0.4364  0.6291  0.0662
12889TIP3    H160158   3.277   4.278  11.463  0.8329  0.7790 -0.0875
12889TIP3    H260159   3.252   4.424  11.435 -0.4307  0.6273  0.1649
12890TIP3   OH260160   1.884   5.147   5.693  0.0507 -0.3999 -0.2572
12890TIP3    H160161   1.910   5.138   5.601 -3.5866  2.8004 -1.9555
12890TIP3    H260162   1.799   5.104   5.698  0.7483 -1.6535  2.0656
12891TIP3   OH260163   5.661   3.239  14.638  0.0232  0.0415  0.2937
12891TIP3    H160164   5.695   3.244  14.548  0.1598  0.1320  0.3489
12891TIP3    H260165   5.567   3.227  14.627 -0.0310  0.5796  0.1379
12892TIP3   OH260166   4.354   0.867  17.145 -0.2930  0.6650 -0.1231
12892TIP3    H160167   4.273   0.878  17.096 -0.1771 -2.0338 -1.0819
12892TIP3    H260168   4.422   0.858  17.079  0.2942 -0.3000  0.5797
12893TIP3   OH260169   6.708   1.164   6.432 -0.4601  0.4438  0.3526
12893TIP3    H160170   6.797   1.128   6.434 -0.0559  1.4324  2.0114
12893TIP3    H260171   6.696   1.193   6.342  0.8311  0.1360  0.0585
12894TIP3   OH260172   2.019   0.607  14.600  0.1608  0.4502 -0.0877
12894TIP3    H160173   1.966   0.676  14.641 -0.5649  0.4350 -0.9632
12894TIP3    H260174   2.052   0.647  14.520 -0.7236 -0.3722 -0.8894
12895TIP3   OH260175   2.682   2.146   5.787 -0.2128  0.2857 -0.3320
12895TIP3    H160176   2.669   2.122   5.878  2.3320  2.7896  0.8520
12895TIP3    H260177   2.725   2.070   5.747 -0.7042 -0.5639  0.7426
12896TIP3   OH260178   2.843   2.648  10.770 -0.1750  0.4199 -0.3579
12896TIP3    H160179   2.845   2.700  10.850 -0.6116  0.8849 -0.6431
12896TIP3    H260180   2.757   2.605  10.770  0.4759 -0.9611  0.2748
12897TIP3   OH260181   5.630   6.563   4.270 -0.4503 -0.3684 -0.9249
12897TIP3    H160182   5.567   6.492   4.256 -0.6249 -0.0246 -2.0782
12897TIP3    H260183   5.715   6.523   4.257 -0.4673 -0.6545 -0.1985
12898TIP3   OH260184   1.053   1.855   0.184 -0.3986 -0.4624  0.5168
12898TIP3    H160185   0.982   1.905   0.146  0.7718  0.4022 -0.6050
12898TIP3    H260186   1.011   1.779   0.224 -1.9329  0.0640 -0.0569
12899TIP3   OH260187   4.000   3.812  12.158 -0.6118  0.6195  0.3644
12899TIP3    H160188   4.088   3.774  12.166 -1.1478 -0.7936 -0.0244
12899TIP3    H260189   3.988   3.863  12.238  0.2430  0.1314  0.8208
12900TIP3   OH260190   0.728   5.219   6.041 -0.4533  0.3051  0.2029
12900TIP3    H160191   0.746   5.260   5.957  0.5628 -0.3745  0.0678
12900TIP3    H260192   0.658   5.271   6.079  0.1780  1.6016 -0.3536
12901TIP3   OH260193   3.240   5.390   4.119  0.7503  0.3080 -0.0141
12901TIP3    H160194   3.240   5.378   4.024 -0.1591  2.1846 -0.3040
12901TIP3    H260195   3.305   5.459   4.134  0.1183  0.7780  0.5992
12902TIP3   OH260196   3.335   1.016  12.918 -0.7631 -0.0136  0.3469
12902TIP3    H160197   3.386   0.969  12.983 -0.0743  2.6672  1.9145
12902TIP3    H260198   3.362   0.979  12.834  1.1659 -1.0173  1.3606
12903TIP3   OH260199   0.624   3.736  15.171 -0.0545  0.0524 -0.3114
12903TIP3    H160200   0.623   3.832  15.174  0.7203  0.0845 -0.7199
12903TIP3    H260201   0.683   3.716  15.099  1.3732 -0.7596  1.0376
12904TIP3   OH260202   4.807   3.971   1.331  0.5320 -0.8916  0.6735
12904TIP3    H160203   4.792   3.879   1.351 -1.0846 -0.9252 -0.5508
12904TIP3    H260204   4.791   3.979   1.237  1.0252  0.5603  0.6884
12905TIP3   OH260205   3.706   0.734   0.592 -0.1147 -0.3362 -0.0317
12905TIP3    H160206   3.798   0.752   0.608 -0.2839  0.3716  0.1751
12905TIP3    H260207   3.678   0.802   0.531  0.2394 -2.3279 -2.5732
12906TIP3   OH260208   3.283   4.784  13.616 -0.7049 -0.1778  0.2951
12906TIP3    H160209   3.268   4.810  13.707  0.5905  0.3153  0.3857
12906TIP3    H260210   3.318   4.863  13.574  0.2264 -0.8574 -0.2273
12907TIP3   OH260211   4.375   4.752  12.209 -1.1535  0.2436 -0.4402
12907TIP3    H160212   4.344   4.811  12.277  0.2246  1.0947 -0.5088
12907TIP3    H260213   4.429   4.807  12.152  0.1167 -1.0600 -0.5477
12908TIP3   OH260214   0.030   5.688   5.716 -0.7538  0.6143 -0.5266
12908TIP3    H160215  -0.055   5.713   5.754  0.1727  1.2275  1.2244
12908TIP3    H260216   0.053   5.607   5.761  0.6635  1.6889  0.7617
12909TIP3   OH260217   1.498   6.459   3.975 -0.1093  0.1213  0.4180
12909TIP3    H160218   1.454   6.398   4.034  0.3397 -1.4062 -0.7812
12909TIP3    H260219   1.431   6.525   3.954 -1.1351 -0.9045  0.3979
12910TIP3   OH260220   4.978   2.648   1.418 -0.0853 -0.0862  0.2130
12910TIP3    H160221   4.972   2.690   1.504 -3.3928  0.3136 -0.0504
12910TIP3    H260222   4.950   2.558   1.433  0.6383 -0.3965 -0.2539
12911TIP3   OH260223   3.926   1.254   1.129  0.0830  0.8234 -0.1348
12911TIP3    H160224   3.991   1.282   1.194  0.2824 -0.9220  0.4629
12911TIP3    H260225   3.889   1.174   1.165 -0.0929  0.0191 -2.0075
12912TIP3   OH260226   0.934   0.210  16.326 -0.0329 -0.2822  0.5860
12912TIP3    H160227   0.917   0.304  16.324 -2.0640 -0.6218 -0.2223
12912TIP3    H260228   1.015   0.202  16.376  0.2990  1.8965  0.5191
12913TIP3   OH260229   2.406   5.995   3.467  0.1933 -0.5510 -0.4864
12913TIP3    H160230   2.400   5.902   3.491  0.8063 -0.4989 -0.1266
12913TIP3    H260231   2.432   6.039   3.547  1.7707 -0.3159 -1.0898
12914TIP3   OH260232   1.392   5.964  16.889 -0.4559  0.0745  0.1333
12914TIP3    H160233   1.379   5.908  16.812  1.0505 -0.9261  0.5571
12914TIP3    H260234   1.403   5.903  16.962 -1.0059  0.9927  1.0019
12915TIP3   OH260235   1.409   3.396  11.279  0.0799  0.3567 -0.0444
12915TIP3    H160236   1.394   3.344  11.358  1.7661  0.2435  0.2259
12915TIP3    H260237   1.489   3.359  11.241  0.7333  2.0768 -0.4116
12916TIP3   OH260238   3.813   3.892   1.287  0.1047  0.2853  0.5891
12916TIP3    H160239   3.899   3.852   1.274 -0.5481 -1.0084  0.0820
12916TIP3    H260240   3.750   3.824   1.262 -1.0715  1.2871  0.6884
12917TIP3   OH260241   6.076   2.144  13.694 -0.0433 -0.0735 -0.1682
12917TIP3    H160242   6.064   2.070  13.635 -0.8939  0.9857 -1.3983
12917TIP3    H260243   6.064   2.107  13.782 -1.5500 -1.2085 -0.7949
12918TIP3   OH260244   1.890   5.200   6.202 -0.2343  0.0634  0.1216
12918TIP3    H160245   1.979   5.233   6.214 -0.5435  0.8854  0.2689
12918TIP3    H260246   1.837   5.279   6.193 -0.8587 -0.4296 -0.6273
12919TIP3   OH260247   1.016   5.592   4.642 -0.0581 -0.6301  0.2098
12919TIP3    H160248   1.061   5.677   4.642  0.2024 -0.7032  2.5267
12919TIP3    H260249   1.068   5.537   4.583  1.3575  0.0524  0.7726
12920TIP3   OH260250   6.394   5.289  12.063  0.3482 -0.6665  0.1132
12920TIP3    H160251   6.433   5.201  12.059  1.4589 -0.2619  1.3788
12920TIP3    H260252   6.332   5.285  12.136 -1.0302 -0.9111 -1.0282
12921TIP3   OH260253   2.314   5.215   1.279  0.7661 -0.5273 -0.0022
12921TIP3    H160254   2.404   5.234   1.307  0.0928  0.0965  1.9190
12921TIP3    H260255   2.310   5.244   1.188  1.7922  1.8737  0.6587
12922TIP3   OH260256   5.924   0.157   1.611  0.1233  0.1793 -0.2201
12922TIP3    H160257   5.869   0.159   1.689 -0.2052  1.2099 -0.4666
12922TIP3    H260258   5.868   0.118   1.544  0.1211  0.0670 -0.1533
12923TIP3   OH260259   4.679   5.675  15.763  0.4848 -0.3367 -0.6541
12923TIP3    H160260   4.749   5.609  15.757  0.7774 -0.1786  0.7806
12923TIP3    H260261   4.708   5.735  15.831  0.4443  1.5920 -2.2439
12924TIP3   OH260262   4.716   5.543   3.870  0.4989 -0.1242 -0.4726
12924TIP3    H160263   4.764   5.515   3.792 -0.0709 -0.3261 -0.7541
12924TIP3    H260264   4.713   5.465   3.925  1.4877  0.2011  0.0559
12925TIP3   OH260265   3.900   5.956  14.110  0.4283  0.0723  0.1187
12925TIP3    H160266   3.855   5.940  14.193  1.6565  0.2083  0.8235
12925TIP3    H260267   3.985   5.912  14.119 -0.1671 -1.6968 -1.8504
12926TIP3   OH260268   1.728   5.149   0.977 -0.5775 -0.0199 -0.5021
12926TIP3    H160269   1.777   5.156   0.896 -1.8701 -0.8282 -1.3973
12926TIP3    H260270   1.784   5.189   1.043 -0.0777  1.9549 -2.0232
12927TIP3   OH260271   6.462   6.109  11.177  0.0194  0.0473 -0.2726
12927TIP3    H160272   6.492   6.167  11.246  0.9175  0.4693 -0.9920
12927TIP3    H260273   6.489   6.152  11.096  0.7201 -1.3567 -0.8300
12928TIP3   OH260274   3.581   0.890   6.205  0.2070  0.3340 -0.3967
12928TIP3    H160275   3.536   0.950   6.265  1.1464  2.9454 -2.1134
12928TIP3    H260276   3.638   0.838   6.260 -0.5624  1.1092  1.1873
12929TIP3   OH260277   3.995   6.243  16.946 -0.1648 -0.1209 -0.0640
12929TIP3    H160278   4.070   6.194  16.912 -0.6143 -0.6177 -0.3434
12929TIP3    H260279   4.035   6.315  16.995  0.5040  0.0153 -0.7724
12930TIP3   OH260280   0.115   3.686  17.207 -0.2211  0.2384 -0.1058
12930TIP3    H160281   0.101   3.735  17.126  3.0048  1.9597  0.1865
12930TIP3    H260282   0.039   3.706  17.261 -2.1350 -0.4491 -2.4048
12931TIP3   OH260283   4.104   2.850   4.854  0.2635 -0.0718 -0.1191
12931TIP3    H160284   4.189   2.889   4.875  0.3243 -0.5152  0.4938
12931TIP3    H260285   4.091   2.870   4.762  0.2620  1.4427  0.1895
12932TIP3   OH260286   6.169   5.244   1.434  0.5588 -0.0532 -0.2334
12932TIP3    H160287   6.091   5.299   1.445  1.1669  0.4493  2.0245
12932TIP3    H260288   6.199   5.263   1.345 -0.0701  2.1874 -0.0310
12933TIP3   OH260289   4.897   6.812   1.610  0.4847  0.1115 -0.1816
12933TIP3    H160290   4.838   6.849   1.543 -0.3406 -0.3738  0.2560
12933TIP3    H260291   4.873   6.858   1.690 -0.6852 -1.4438  0.4125
12934TIP3   OH260292   2.129   0.655   4.314  0.1057  0.1177  0.3913
12934TIP3    H160293   2.195   0.720   4.337  0.2549 -0.8430  2.9299
12934TIP3    H260294   2.053   0.675   4.369 -0.3788 -0.9836  0.1654
12935TIP3   OH260295   5.507   3.917  16.320 -0.1795 -0.4257  0.6077
12935TIP3    H160296   5.542   4.000  16.351 -1.2065  0.2714 -0.0314
12935TIP3    H260297   5.557   3.898  16.241  1.5525 -1.5519  1.9121
12936TIP3   OH260298   5.088   2.194   2.834 -0.5518  0.1101  0.1785
12936TIP3    H160299   5.167   2.153   2.869 -0.7401 -0.8203 -0.4296
12936TIP3    H260300   5.070   2.145   2.753 -1.3598  0.7571 -0.0477
12937TIP3   OH260301   5.678   4.651  13.657  0.0883  0.0246  0.2244
12937TIP3    H160302   5.649   4.609  13.739 -1.3671 -0.2074 -0.3738
12937TIP3    H260303   5.746   4.713  13.685  0.1310 -0.5645  1.5147
12938TIP3   OH260304   6.447   0.470   0.658 -0.2621 -0.2907 -0.5214
12938TIP3    H160305   6.480   0.557   0.678 -0.1196 -0.8620  2.0982
12938TIP3    H260306   6.491   0.412   0.721 -1.0812 -2.1041 -1.5298
12939TIP3   OH260307   1.802   2.841  11.765 -0.3355 -0.0914  0.1908
12939TIP3    H160308   1.713   2.865  11.791 -0.2788  0.4549 -0.1136
12939TIP3    H260309   1.846   2.821  11.848 -0.3589  0.9626  0.4737
12940TIP3   OH260310   2.312   5.705   5.267 -0.3597  0.1351 -1.2432
12940TIP3    H160311   2.243   5.734   5.207 -1.1898 -0.4145 -0.5817
12940TIP3    H260312   2.317   5.774   5.334 -1.2383 -0.4586 -0.5395
12941TIP3   OH260313   2.573   4.016  12.996  0.1218  0.0517  0.3373
12941TIP3    H160314   2.658   3.993  12.960  0.0592 -0.1624  0.3301
12941TIP3    H260315   2.565   3.964  13.076  1.4535  2.4719  2.1796
12942TIP3   OH260316   2.611   5.129   4.961 -0.1857  0.4068 -0.3659
12942TIP3    H160317   2.614   5.179   4.879  0.1472  0.0790 -0.5574
12942TIP3    H260318   2.527   5.084   4.958 -0.8317  1.5352  0.1637
12943TIP3   OH260319   5.838   3.177  12.709  0.4011 -0.0456  0.0143
12943TIP3    H160320   5.909   3.237  12.730  0.0305 -0.3382  2.4741
12943TIP3    H260321   5.772   3.231  12.666  1.1210  0.7240 -0.1484
12944TIP3   OH260322   1.105   3.270   4.345 -0.2220 -0.0781  0.0822
12944TIP3    H160323   1.124   3.187   4.389 -0.5811 -0.8302 -1.1121
12944TIP3    H260324   1.159   3.335   4.390  1.7471 -1.3385 -0.3601
12945TIP3   OH260325   2.640   0.113  12.577  0.2950 -0.4644  0.0714
12945TIP3    H160326   2.559   0.076  12.542  1.1451 -0.6391 -1.8654
12945TIP3    H260327   2.701   0.040  12.578  0.7156 -0.1123  0.5788
12946TIP3   OH260328   5.084   3.516   4.547 -0.3629  0.9141 -0.0004
12946TIP3    H160329   5.024   3.588   4.530 -1.5062 -0.7096 -4.1831
12946TIP3    H260330   5.169   3.548   4.517 -0.4268  1.1671  0.0835
12947TIP3   OH260331   3.906   0.673   4.507 -0.2238  0.1408 -0.5481
12947TIP3    H160332   3.853   0.679   4.587  0.3169 -0.4162 -0.1381
12947TIP3    H260333   3.842   0.674   4.436 -0.9078 -1.7562 -0.0230
12948TIP3   OH260334   0.744   0.162  16.001  0.5531  0.3452 -0.3291
12948TIP3    H160335   0.703   0.144  16.086  0.0064 -0.0719 -0.6722
12948TIP3    H260336   0.743   0.077  15.956  2.0439  0.2662 -0.2479
12949TIP3   OH260337   5.201   3.810  16.522  0.2827  0.3823 -0.3902
12949TIP3    H160338   5.209   3.851  16.436  0.8192 -0.0962 -0.5783
12949TIP3    H260339   5.164   3.878  16.578  1.0235  1.0818 -0.7218
12950TIP3   OH260340   2.040   1.649  13.655 -0.0418  0.1966 -0.2138
12950TIP3    H160341   2.079   1.672  13.571 -0.1261  1.2100  0.0092
12950TIP3    H260342   1.963   1.597  13.632 -0.3133  0.8396 -0.7817
12951TIP3   OH260343   4.246   3.696   5.263  0.8399 -0.3686  0.2517
12951TIP3    H160344   4.253   3.784   5.299  1.3964 -1.1267  2.0676
12951TIP3    H260345   4.152   3.678   5.263  0.7333  0.1649 -0.0228
12952TIP3   OH260346   6.084   2.368   0.331  0.5015  0.1246  0.2779
12952TIP3    H160347   6.148   2.426   0.371  0.1304  1.7087 -1.2989
12952TIP3    H260348   6.136   2.306   0.280  0.8364  0.8182 -0.2401
12953TIP3   OH260349   6.711   4.974  11.889  0.3084  0.2672 -0.2799
12953TIP3    H160350   6.760   5.034  11.946  0.7275 -0.1355 -0.2099
12953TIP3    H260351   6.764   4.895  11.887  0.0478  0.1025 -0.8421
12954TIP3   OH260352   4.259   1.901   1.949 -0.3728  0.3668 -0.0933
12954TIP3    H160353   4.194   1.845   1.907 -0.3382 -0.3761  0.8240
12954TIP3    H260354   4.210   1.948   2.017  0.2882 -1.3467  1.6655
12955TIP3   OH260355   2.912   5.368  11.872 -0.3459 -0.3565 -0.1697
12955TIP3    H160356   2.928   5.278  11.900 -1.0785  0.0834  1.8559
12955TIP3    H260357   2.859   5.361  11.794  1.2379 -1.6803 -1.1952
12956TIP3   OH260358   4.228   5.570   1.706  0.2120  0.2723 -0.1105
12956TIP3    H160359   4.302   5.619   1.669  0.0614  0.1243 -0.6135
12956TIP3    H260360   4.225   5.597   1.798  1.1449 -0.0282  0.0141
12957TIP3   OH260361   1.973   3.899   5.716 -0.5287 -0.4183  0.0326
12957TIP3    H160362   1.978   3.836   5.644 -2.1455  0.3823 -0.8453
12957TIP3    H260363   1.879   3.913   5.729 -0.2250  0.7221  1.1742
12958TIP3   OH260364   3.264   5.454  15.781 -0.0908 -0.5412  0.4160
12958TIP3    H160365   3.353   5.463  15.749 -0.8730 -1.7797 -2.3836
12958TIP3    H260366   3.236   5.367  15.752 -1.8445 -0.6888  2.2587
12959TIP3   OH260367   1.030   2.427  11.622 -0.0936  0.3039  0.7684
12959TIP3    H160368   0.999   2.442  11.532 -1.0350  0.5162  1.1167
12959TIP3    H260369   1.042   2.514  11.658 -1.4083  0.2413  1.4041
12960TIP3   OH260370   6.352   5.934  12.016 -0.1765 -0.0407  0.1767
12960TIP3    H160371   6.274   5.932  12.071 -0.7639 -0.3401 -0.6435
12960TIP3    H260372   6.349   6.018  11.972  0.0674  0.0253  0.2834
12961TIP3   OH260373   1.062   3.400   2.295 -0.0142 -0.5404 -0.3791
12961TIP3    H160374   0.969   3.396   2.318 -0.3558  1.4384 -1.1885
12961TIP3    H260375   1.095   3.312   2.312 -1.7447 -0.9671  1.1280
12962TIP3   OH260376   4.347   1.076  11.176 -0.3653 -0.0582  0.2703
12962TIP3    H160377   4.261   1.068  11.136 -0.0962  0.1504 -0.3668
12962TIP3    H260378   4.369   1.168  11.168 -0.3746  0.0234  1.0666
12963TIP3   OH260379   4.593   6.323  11.125  0.4982  0.3154  0.4999
12963TIP3    H160380   4.549   6.319  11.040  0.5453 -1.6288  0.5088
12963TIP3    H260381   4.560   6.403  11.166 -2.4997 -0.6289  0.1943
12964TIP3   OH260382   2.811   3.394   4.448 -0.2905  0.2094 -0.5136
12964TIP3    H160383   2.880   3.336   4.416  1.5285  1.3480  1.1784
12964TIP3    H260384   2.752   3.336   4.497 -0.1149 -0.6325 -1.2617
12965TIP3   OH260385   3.579   4.504   1.290  0.3851  0.7082  0.2852
12965TIP3    H160386   3.617   4.417   1.297  0.5734  0.8502  1.0931
12965TIP3    H260387   3.531   4.502   1.207  0.5640 -0.0900  0.1901
12966TIP3   OH260388   6.024   1.372  12.875 -0.3580 -0.0552  0.3885
12966TIP3    H160389   6.079   1.416  12.939 -0.8830  1.0255  0.1265
12966TIP3    H260390   6.084   1.343  12.807 -0.0961  1.1494  0.0837
12967TIP3   OH260391   3.349   0.184   0.273  0.1596 -0.7746  0.2298
12967TIP3    H160392   3.283   0.126   0.234 -0.4995 -0.7689  1.2770
12967TIP3    H260393   3.372   0.141   0.356 -0.4236  0.4920  1.0758
12968TIP3   OH260394   3.135   4.195  16.466  0.4454 -0.5013  0.2941
12968TIP3    H160395   3.119   4.177  16.558 -1.2178  0.4943  0.2450
12968TIP3    H260396   3.168   4.285  16.465 -1.7066  0.3423 -0.1935
12969TIP3   OH260397   1.781   6.634  16.900  0.9517  0.4564  0.1188
12969TIP3    H160398   1.859   6.677  16.936  0.1706  0.2578  2.2099
12969TIP3    H260399   1.815   6.563  16.846  2.2518  0.0189  1.4384
12970TIP3   OH260400   3.446   3.724  11.814 -0.0138 -0.0590  0.3856
12970TIP3    H160401   3.519   3.669  11.786 -0.2160  0.4587 -1.2228
12970TIP3    H260402   3.373   3.699  11.757 -0.3312  1.3138  0.1566
12971TIP3   OH260403   4.643   1.890  14.284  0.3124  0.0630  0.6163
12971TIP3    H160404   4.648   1.855  14.373  1.9482  0.5282  0.7579
12971TIP3    H260405   4.726   1.864  14.244 -0.2738  0.1213 -0.6855
12972TIP3   OH260406   1.537   6.233  16.898 -0.7344  0.2209 -0.0963
12972TIP3    H160407   1.493   6.317  16.911 -1.0063  0.0854 -0.1344
12972TIP3    H260408   1.519   6.183  16.978 -3.3879 -1.0509 -1.3483
12973TIP3   OH260409   6.494   6.783   1.046  0.3332 -0.2748  0.0602
12973TIP3    H160410   6.481   6.742   0.960  0.9782  1.2882 -0.8296
12973TIP3    H260411   6.539   6.866   1.026  1.4030 -0.3310  1.9983
12974TIP3   OH260412   1.249   6.091   4.665  0.2031 -0.6409 -0.3283
12974TIP3    H160413   1.261   6.168   4.609  3.0089 -1.2414 -0.7082
12974TIP3    H260414   1.253   6.126   4.755  0.4281 -0.2226 -0.4991
12975TIP3   OH260415   5.367   5.393   2.735 -0.0423 -0.2885 -0.1309
12975TIP3    H160416   5.430   5.454   2.774  0.1182 -1.7511  2.0572
12975TIP3    H260417   5.361   5.421   2.644  0.5193  2.5487  0.5987
12976TIP3   OH260418   0.713   2.937   0.596  0.3482 -1.0041 -0.1886
12976TIP3    H160419   0.710   2.947   0.501 -0.1216  4.5424  0.0694
12976TIP3    H260420   0.627   2.968   0.626  1.1538 -0.7665  2.0940
12977TIP3   OH260421   2.388   0.944  15.647  0.4710 -0.0356 -0.6180
12977TIP3    H160422   2.434   0.951  15.564  0.6753  2.4915 -0.3832
12977TIP3    H260423   2.428   0.869  15.691  2.6760  0.5797 -1.4369
12978TIP3   OH260424   2.275   2.721   3.544 -0.1387  0.1004  0.1572
12978TIP3    H160425   2.202   2.668   3.575  1.5576 -1.5482  1.5288
12978TIP3    H260426   2.293   2.688   3.456  0.2196 -0.8938  0.5918
12979TIP3   OH260427   6.435   5.670   0.807  0.5070 -0.0248  0.0029
12979TIP3    H160428   6.348   5.650   0.774 -0.1555 -0.7739  2.0419
12979TIP3    H260429   6.494   5.617   0.753 -0.4483 -0.6061 -0.4857
12980TIP3   OH260430   4.249   1.312   3.489  0.6965 -0.2828  0.4083
12980TIP3    H160431   4.324   1.273   3.444  2.2601  0.0526  2.5468
12980TIP3    H260432   4.245   1.266   3.573 -1.8028 -0.5630  0.2163
12981TIP3   OH260433   5.031   5.001   4.532 -0.3488 -0.4356 -0.1736
12981TIP3    H160434   4.993   4.918   4.561 -1.5017 -0.4394 -1.6006
12981TIP3    H260435   4.973   5.068   4.568  1.2268 -0.1029  1.9839
12982TIP3   OH260436   0.104   1.426   0.380  0.1129 -0.2521  0.7512
12982TIP3    H160437   0.094   1.342   0.336 -1.7993 -0.1607  0.9524
12982TIP3    H260438   0.105   1.490   0.308 -2.3703 -0.1581  0.7110
12983TIP3   OH260439   4.884   4.996  17.200 -0.4463 -0.1350  0.5609
12983TIP3    H160440   4.800   5.018  17.240  0.0344  0.7508  1.1103
12983TIP3    H260441   4.914   5.077  17.160 -0.8609 -0.9678 -1.5701
12984TIP3   OH260442   4.362   4.977   6.010  0.0389 -0.0800  0.8987
12984TIP3    H160443   4.404   5.030   6.078 -1.1700  0.3463  1.3302
12984TIP3    H260444   4.285   5.027   5.984 -0.8294 -1.3531  0.9256
12985TIP3   OH260445   0.516   2.337   6.223 -0.0854  0.3760 -0.1398
12985TIP3    H160446   0.596   2.388   6.214  1.2116 -1.3464  1.1383
12985TIP3    H260447   0.471   2.377   6.297  0.3655  0.3481  0.1493
12986TIP3   OH260448   0.610   6.125   0.924  0.4927 -0.2729  0.3981
12986TIP3    H160449   0.625   6.132   1.018 -0.6025  1.0054  0.5074
12986TIP3    H260450   0.648   6.040   0.900 -0.5050 -1.2966  2.2445
12987TIP3   OH260451   3.664   2.457   4.441 -0.1054  0.0156  0.2633
12987TIP3    H160452   3.722   2.531   4.458  1.1497 -1.0421  0.7769
12987TIP3    H260453   3.647   2.420   4.528 -0.3012 -0.6056 -0.0349
12988TIP3   OH260454   6.771   6.103   3.200 -0.1822  0.3302  0.3098
12988TIP3    H160455   6.676   6.106   3.185  0.1084  0.5949 -1.7672
12988TIP3    H260456   6.782   6.037   3.269 -1.9261  0.9864  1.3038
12989TIP3   OH260457   0.738   0.602  15.097 -0.2214  0.0460  0.3433
12989TIP3    H160458   0.744   0.677  15.156 -1.1739 -0.2732  0.8676
12989TIP3    H260459   0.750   0.638  15.010 -1.5597  0.9555  0.5132
12990TIP3   OH260460   1.984   3.578  11.631 -0.1956  0.2768 -0.9790
12990TIP3    H160461   1.898   3.620  11.641 -0.3108 -0.0730 -0.4713
12990TIP3    H260462   1.997   3.572  11.536 -0.8245  0.1378 -1.0586
12991TIP3   OH260463   0.809   1.038   3.989 -0.3477 -0.1103  0.2922
12991TIP3    H160464   0.880   1.080   4.038  0.7312 -1.5675  0.0493
12991TIP3    H260465   0.733   1.044   4.046 -0.4810  2.7621 -0.0101
12992TIP3   OH260466   2.999   1.139   3.316 -0.1989 -0.2956  0.3731
12992TIP3    H160467   3.046   1.070   3.270  0.1323 -0.2694  0.6595
12992TIP3    H260468   3.040   1.220   3.286 -1.2559 -0.1488 -0.7207
12993TIP3   OH260469   5.086   6.036   0.233  0.6362 -0.2234  0.2871
12993TIP3    H160470   5.141   6.114   0.242  0.1697  0.0873  0.5107
12993TIP3    H260471   5.145   5.968   0.202  0.7721  0.5780 -1.3357
12994TIP3   OH260472   0.663   2.284   3.786  0.4505  0.2534 -0.0317
12994TIP3    H160473   0.626   2.352   3.729  0.5533  1.8592  1.7106
12994TIP3    H260474   0.595   2.267   3.851  0.7241 -0.7780 -0.0053
12995TIP3   OH260475   3.684   5.167   1.000 -0.5460 -0.2068  0.1938
12995TIP3    H160476   3.720   5.255   0.992 -2.0105  0.3721 -0.4204
12995TIP3    H260477   3.690   5.147   1.094  4.9026 -1.8005 -0.1229
12996TIP3   OH260478   1.918   0.361  12.364  0.1468 -0.0736  0.0095
12996TIP3    H160479   1.922   0.416  12.286 -0.2954  1.3894  0.9582
12996TIP3    H260480   1.978   0.289  12.346 -1.4391 -0.8683 -2.4439
12997TIP3   OH260481   6.776   1.537  12.010 -0.0340 -0.6767  0.4354
12997TIP3    H160482   6.808   1.530  11.920  1.8854 -0.8465  1.0748
12997TIP3    H260483   6.758   1.447  12.035  0.2979 -0.7265  0.5018
12998TIP3   OH260484   3.763   4.745   0.784  0.1439 -0.8483  0.3684
12998TIP3    H160485   3.711   4.816   0.821 -0.0339 -2.2328  3.0409
12998TIP3    H260486   3.781   4.772   0.694 -0.4514  2.2235  1.0767
12999TIP3   OH260487   4.428   2.838   3.846  0.1245 -0.0026 -0.2362
12999TIP3    H160488   4.477   2.896   3.788  3.3091 -0.6851  1.5572
12999TIP3    H260489   4.375   2.896   3.900  1.8136  1.1760  0.2398
13000TIP3   OH260490   2.806   4.855   0.604  0.0663 -0.1255  0.5648
13000TIP3    H160491   2.750   4.927   0.635 -0.3541  0.9032 -2.2508
13000TIP3    H260492   2.763   4.776   0.635 -1.5014  0.7365  0.7144
13001TIP3   OH260493   1.080   1.242   1.959 -0.2657 -0.6662 -0.3540
13001TIP3    H160494   1.061   1.191   1.881  1.6727  0.7540 -1.8574
13001TIP3    H260495   1.174   1.259   1.954 -0.7249  2.6354  0.2495
13002TIP3   OH260496   0.116   3.249   3.389  0.2734 -0.9664  0.4232
13002TIP3    H160497   0.186   3.281   3.332  1.7955 -1.9520  1.6752
13002TIP3    H260498   0.099   3.321   3.449  0.5558 -0.9007  0.4255
13003TIP3   OH260499   6.165   5.883  12.198  0.8101  0.0404  0.1545
13003TIP3    H160500   6.166   5.958  12.258  2.6973 -0.5292  0.9072
13003TIP3    H260501   6.118   5.815  12.245  2.4670 -0.4745  1.1483
13004TIP3   OH260502   2.026   5.341  13.145 -0.1778  0.4781  0.5611
13004TIP3    H160503   2.007   5.310  13.056  0.2100 -0.9424  0.9505
13004TIP3    H260504   1.971   5.419  13.155 -2.5502 -1.0548  0.1344
13005TIP3   OH260505   4.570   6.171   3.884 -0.2716 -0.4222  0.1245
13005TIP3    H160506   4.646   6.127   3.846  0.4221 -0.7391  1.7949
13005TIP3    H260507   4.590   6.264   3.876  0.8553 -0.5088  1.5590
13006TIP3   OH260508   2.809   2.583  12.362  0.1499  0.7466 -0.6458
13006TIP3    H160509   2.750   2.522  12.407 -0.3091  1.5349 -0.1517
13006TIP3    H260510   2.791   2.570  12.269  0.6542 -0.4547 -0.5989
13007TIP3   OH260511   2.310   3.656   2.244  0.2838 -0.3702 -0.5984
13007TIP3    H160512   2.363   3.579   2.262 -0.0758 -0.4819  0.0078
13007TIP3    H260513   2.236   3.623   2.193 -0.2870 -0.5694  0.3392
13008TIP3   OH260514   0.367   6.079  13.753  0.0217 -0.3357  0.4413
13008TIP3    H160515   0.420   6.095  13.675 -0.9179  0.3871 -0.0773
13008TIP3    H260516   0.291   6.031  13.720 -0.9362  0.9509  0.6978
13009TIP3   OH260517   3.379   2.608  12.657 -0.2419 -0.1385  0.0069
13009TIP3    H160518   3.313   2.634  12.722 -0.4656 -0.3928 -0.1211
13009TIP3    H260519   3.393   2.515  12.673  1.8647  0.3852  1.6541
13010TIP3   OH260520   5.597   5.787  13.251 -0.2391  0.5036  0.1109
13010TIP3    H160521   5.669   5.786  13.188  0.4594  1.4206  0.8645
13010TIP3    H260522   5.536   5.853  13.217 -0.5147  0.0454 -0.2937
13011TIP3   OH260523   0.226   4.668   5.581 -0.0031  0.0679  0.1637
13011TIP3    H160524   0.216   4.615   5.660 -0.0438  0.5993  0.5184
13011TIP3    H260525   0.208   4.758   5.609 -1.2889  0.1157 -0.7061
13012TIP3   OH260526   0.002   4.914   5.029  0.1547  0.1381 -0.2117
13012TIP3    H160527  -0.080   4.957   5.006 -0.2982 -0.6481 -0.1041
13012TIP3    H260528  -0.005   4.827   4.988  0.0767 -0.6652  1.4470
13013TIP3   OH260529   2.840   3.536  12.915  0.1462  0.2483 -0.2545
13013TIP3    H160530   2.767   3.530  12.978 -1.6069  1.4121 -2.0609
13013TIP3    H260531   2.877   3.623  12.931  0.6023 -0.0076  0.0892
13014TIP3   OH260532   6.835   5.094   3.252 -0.5061  0.7660  0.6298
13014TIP3    H160533   6.891   5.060   3.182 -2.8185 -0.8495 -0.5879
13014TIP3    H260534   6.802   5.178   3.219  1.3252  1.8831  1.4890
13015TIP3   OH260535   1.585   4.304  15.152 -0.2430 -0.1916  0.1078
13015TIP3    H160536   1.665   4.289  15.101 -0.7702  0.5603 -0.9949
13015TIP3    H260537   1.586   4.237  15.220 -0.8052 -2.9945 -2.4572
13016TIP3   OH260538   1.887   2.340   3.847 -0.9248 -0.3760 -0.3414
13016TIP3    H160539   1.963   2.391   3.876 -0.6228 -0.5905 -0.7465
13016TIP3    H260540   1.897   2.333   3.752 -1.3646 -0.5504 -0.3787
13017TIP3   OH260541   0.438   2.073   5.038 -0.0569  0.0696  0.0489
13017TIP3    H160542   0.411   1.998   4.985 -0.3683 -0.1652  0.5330
13017TIP3    H260543   0.533   2.067   5.042 -0.0609 -0.1394 -0.1526
13018TIP3   OH260544   2.498   6.426  16.107 -0.2330  0.0877  0.0896
13018TIP3    H160545   2.567   6.468  16.158  0.4595  0.2975 -1.0008
13018TIP3    H260546   2.460   6.362  16.167 -0.0121  0.9093  1.1438
13019TIP3   OH260547   4.821   2.783   2.628 -0.0327  0.3643  0.1860
13019TIP3    H160548   4.779   2.865   2.600 -0.9694  0.6919  2.3689
13019TIP3    H260549   4.761   2.714   2.601  0.7619  0.3311 -1.6677
13020TIP3   OH260550   6.258   6.274  12.445 -0.2192 -1.1659 -0.2913
13020TIP3    H160551   6.205   6.322  12.509  0.8153 -1.1988  0.6261
13020TIP3    H260552   6.212   6.191  12.434 -1.6267 -0.2825 -1.3398
13021TIP3   OH260553   1.667   1.170   2.101 -0.0158 -0.0460  0.7119
13021TIP3    H160554   1.735   1.142   2.163  0.4284 -1.1915 -0.2599
13021TIP3    H260555   1.711   1.172   2.016 -1.4362 -2.0322 -0.1617
13022TIP3   OH260556   4.804   1.649  16.568 -0.5919 -0.0483 -0.0137
13022TIP3    H160557   4.848   1.586  16.626  0.4438  0.6000 -0.0720
13022TIP3    H260558   4.874   1.706  16.537 -1.4592  0.9309 -0.2283
13023TIP3   OH260559   5.169   4.353  10.968 -0.1786 -0.1276  0.3476
13023TIP3    H160560   5.139   4.347  10.877 -1.0795  1.0289  0.5540
13023TIP3    H260561   5.263   4.333  10.963  0.1690  1.6462 -1.1025
13024TIP3   OH260562   0.184   1.245   3.847  0.5690  0.1496  0.0941
13024TIP3    H160563   0.184   1.158   3.808  0.7962 -0.7552  1.9911
13024TIP3    H260564   0.136   1.300   3.786  0.9887 -1.1553 -1.4523
13025TIP3   OH260565   4.472   4.461  13.002 -1.0067 -0.1017 -0.1056
13025TIP3    H160566   4.516   4.531  13.050 -0.5595 -0.9052  0.6755
13025TIP3    H260567   4.381   4.492  12.994 -0.1770  2.1254 -2.7713
13026TIP3   OH260568   6.598   5.922   2.941  0.2808 -0.0495  0.1049
13026TIP3    H160569   6.542   5.984   2.987  1.0865 -0.9145  2.3933
13026TIP3    H260570   6.664   5.976   2.898 -0.9886  0.8408 -0.7836
13027TIP3   OH260571   1.198   5.412   5.934  0.1672 -0.3168  0.3062
13027TIP3    H160572   1.289   5.430   5.958  0.6288 -1.1044 -0.7803
13027TIP3    H260573   1.168   5.493   5.892  0.3639 -0.0636  0.6489
13028TIP3   OH260574   0.423   2.949  13.050  0.1131 -0.1366  0.4341
13028TIP3    H160575   0.462   2.879  13.102 -2.0231 -1.5977  0.2071
13028TIP3    H260576   0.414   2.912  12.962  1.1599  1.3205 -0.3189
13029TIP3   OH260577   5.574   6.811   4.590 -0.4947 -0.3244  0.0347
13029TIP3    H160578   5.560   6.846   4.678 -0.2322  0.7179 -0.3262
13029TIP3    H260579   5.532   6.874   4.531 -0.1661 -0.7025 -0.6237
13030TIP3   OH260580   4.831   2.914  13.522 -0.6211 -0.1161 -0.0811
13030TIP3    H160581   4.750   2.961  13.501 -1.1644 -0.9445  0.0942
13030TIP3    H260582   4.848   2.936  13.613 -1.2622 -0.7976  0.2139
13031TIP3   OH260583   2.266   0.363  12.664  0.0188  0.1278 -0.7158
13031TIP3    H160584   2.353   0.334  12.693  0.8092  1.3431 -1.7471
13031TIP3    H260585   2.259   0.330  12.575 -0.0138  1.1138 -1.0940
13032TIP3   OH260586   0.453   5.934   4.710 -0.3677  0.2463  0.2015
13032TIP3    H160587   0.399   5.998   4.665 -0.1776  0.4550  0.2696
13032TIP3    H260588   0.391   5.867   4.739 -0.2091 -1.3803 -2.8040
13033TIP3   OH260589   4.732   6.018   3.735 -0.3673 -0.0407 -0.6199
13033TIP3    H160590   4.747   6.027   3.641 -0.8918  0.1580 -0.6884
13033TIP3    H260591   4.789   5.946   3.762  0.0930  0.1704 -1.0115
13034TIP3   OH260592   4.130   5.551   0.056 -0.3427  0.3106  0.0571
13034TIP3    H160593   4.111   5.484   0.122  1.7426 -2.1967 -1.7195
13034TIP3    H260594   4.214   5.588   0.083  0.4053 -0.5616 -0.9928
13035TIP3   OH260595   1.369   0.593  13.610 -0.2866 -0.1272 -0.3746
13035TIP3    H160596   1.392   0.575  13.701 -1.9703  0.0962  0.1279
13035TIP3    H260597   1.284   0.552  13.598  0.0883 -0.4950 -1.9871
13036TIP3   OH260598   0.493   4.840   2.121  0.3165 -0.5024  0.5660
13036TIP3    H160599   0.532   4.755   2.103  1.3717  0.2125 -0.6987
13036TIP3    H260600   0.524   4.897   2.050  0.3658  1.1579  1.8344
13037TIP3   OH260601   3.176   1.904  13.096 -0.1636  0.4387 -0.0128
13037TIP3    H160602   3.106   1.926  13.158 -0.0851 -2.4583  1.2886
13037TIP3    H260603   3.256   1.940  13.136 -0.2891 -0.3731  1.0387
13038TIP3   OH260604   1.447   6.803   2.505 -0.3606  0.1657  0.0356
13038TIP3    H160605   1.365   6.767   2.537 -0.8091 -0.4418 -1.6868
13038TIP3    H260606   1.500   6.726   2.482  0.2952  0.5660  0.1555
13039TIP3   OH260607   1.677   5.523  10.579 -0.2277  0.0103 -0.3008
13039TIP3    H160608   1.622   5.595  10.609 -0.1406 -0.1613  0.2993
13039TIP3    H260609   1.762   5.564  10.560 -0.3148  0.1412 -0.4037
13040TIP3   OH260610   5.015   3.067  16.921 -0.1701 -0.6440 -0.0670
13040TIP3    H160611   4.971   3.133  16.974  0.9122  1.3791 -1.5541
13040TIP3    H260612   4.945   3.031  16.866 -0.6801 -0.3100  0.3483
13041TIP3   OH260613   4.947   2.061  12.269  0.2453  0.3051  0.3679
13041TIP3    H160614   5.011   2.086  12.336 -2.0159  2.4159  1.8946
13041TIP3    H260615   4.942   2.137  12.212  0.8528 -0.8092 -1.2368
13042TIP3   OH260616   5.593   5.111   3.007 -0.4997  0.0105 -0.3716
13042TIP3    H160617   5.653   5.179   2.977  1.1149 -2.1970 -2.5930
13042TIP3    H260618   5.514   5.124   2.954 -0.2212  0.1854 -0.7516
13043TIP3   OH260619   3.877   5.939  16.573 -0.5346  0.6074  0.0919
13043TIP3    H160620   3.806   6.003  16.562 -0.6810  0.4518  0.1310
13043TIP3    H260621   3.868   5.909  16.664 -0.4356  0.5653  0.0879
13044TIP3   OH260622   4.803   6.240  15.678  0.0421  0.6750  0.4329
13044TIP3    H160623   4.781   6.165  15.733  1.7846  0.3686  0.7667
13044TIP3    H260624   4.722   6.289  15.671 -0.9985 -0.9372  0.6736
13045TIP3   OH260625   3.437   4.210   1.645  0.7319  0.5392  0.4369
13045TIP3    H160626   3.399   4.278   1.589  0.0419 -0.0732  0.1610
13045TIP3    H260627   3.530   4.211   1.622  1.1282  2.6687  1.7671
13046TIP3   OH260628   5.157   2.394  16.035  1.1185  0.0267 -0.1059
13046TIP3    H160629   5.101   2.317  16.039  1.3720 -0.1701 -0.2685
13046TIP3    H260630   5.102   2.463  15.999  0.2303  0.5284  2.0363
13047TIP3   OH260631   4.676   5.457  11.661  0.2935 -0.0929 -0.4975
13047TIP3    H160632   4.600   5.514  11.672 -0.3184 -0.7904 -1.0434
13047TIP3    H260633   4.662   5.413  11.577  1.6907  0.3376 -0.9785
13048TIP3   OH260634   4.040   2.804   0.603  0.1222  0.1901  0.1976
13048TIP3    H160635   4.110   2.739   0.610  0.2909  0.3587  0.0510
13048TIP3    H260636   4.084   2.885   0.580  0.1461  0.8211  2.2956
13049TIP3   OH260637   0.076   5.486   2.408 -0.2017  0.2947  0.0539
13049TIP3    H160638   0.159   5.447   2.435 -1.0345 -0.7477  1.2365
13049TIP3    H260639   0.079   5.575   2.443 -0.6782 -0.5925  2.5726
13050TIP3   OH260640   6.637   0.819   5.642 -0.2359  0.4277 -0.1637
13050TIP3    H160641   6.609   0.846   5.555  2.2121  2.8531 -0.3687
13050TIP3    H260642   6.659   0.727   5.633  0.8718  0.8309 -2.4570
13051TIP3   OH260643   1.962   6.659  12.560 -0.0336 -0.5122 -0.0171
13051TIP3    H160644   1.947   6.752  12.539 -1.0110 -0.4588  0.8446
13051TIP3    H260645   1.988   6.659  12.652  1.4620 -0.9791 -0.4227
13052TIP3   OH260646   3.988   4.769  13.114 -0.0853 -0.2820 -0.0984
13052TIP3    H160647   4.024   4.821  13.042  1.4349 -1.0556  0.0652
13052TIP3    H260648   3.967   4.685  13.075 -1.1589 -0.0396 -0.0541
13053TIP3   OH260649   1.459   6.161  13.745 -0.2943 -0.3277 -0.2225
13053TIP3    H160650   1.454   6.192  13.655 -2.2855 -1.7632 -0.7027
13053TIP3    H260651   1.476   6.239  13.798  1.2535  0.4816 -1.8449
13054TIP3   OH260652   5.755   1.452   3.546 -0.3095  0.0907  0.2821
13054TIP3    H160653   5.847   1.435   3.563 -0.6553 -1.6924  0.5811
13054TIP3    H260654   5.712   1.441   3.631 -0.9121 -0.1408 -0.0387
13055TIP3   OH260655   5.804   1.238   4.829 -0.0083  0.1264  0.5300
13055TIP3    H160656   5.735   1.238   4.763 -1.1816 -0.5570  1.7233
13055TIP3    H260657   5.809   1.329   4.859  1.8983  0.9139 -1.7931
13056TIP3   OH260658   3.606   5.097   2.830 -0.2126 -0.5847 -0.1090
13056TIP3    H160659   3.614   5.192   2.819 -3.0519 -0.2188  0.3132
13056TIP3    H260660   3.590   5.064   2.741 -0.0675 -0.5549 -0.1463
13057TIP3   OH260661   0.424   0.483  15.201 -0.0630 -0.3016  0.1934
13057TIP3    H160662   0.486   0.480  15.129 -0.3272 -0.8482 -0.0152
13057TIP3    H260663   0.430   0.397  15.242  0.3250  0.1165  1.0319
13058TIP3   OH260664   4.696   5.457  11.935 -0.5404 -0.3556  0.3969
13058TIP3    H160665   4.688   5.459  11.840 -1.5116 -0.0479  0.4739
13058TIP3    H260666   4.672   5.545  11.964 -0.5187 -0.5211  0.9360
13059TIP3   OH260667   2.872   0.243  15.450 -0.1444 -0.3717 -0.2354
13059TIP3    H160668   2.879   0.174  15.517  1.3223 -0.5876 -0.5840
13059TIP3    H260669   2.941   0.222  15.387 -0.2244  0.9622 -0.7828
13060TIP3   OH260670   4.719   4.220  12.764  0.8408 -0.0936  0.5441
13060TIP3    H160671   4.808   4.233  12.797  0.6117  0.0386  1.1272
13060TIP3    H260672   4.724   4.141  12.711  1.1112 -0.6374  1.3571
13061TIP3   OH260673   4.103   2.404   5.709 -0.1529 -0.7256  0.1950
13061TIP3    H160674   4.182   2.354   5.729 -0.4271 -0.5764  1.8398
13061TIP3    H260675   4.034   2.360   5.759 -0.8720 -0.1429 -0.2672
13062TIP3   OH260676   5.687   2.398  10.594 -0.1549  1.0364  0.5778
13062TIP3    H160677   5.709   2.383  10.687 -0.2618  0.6678  0.5475
13062TIP3    H260678   5.764   2.442  10.559 -0.4966  2.0384  1.0600
13063TIP3   OH260679   1.552   3.089   3.936  0.4876 -0.1433 -0.4452
13063TIP3    H160680   1.631   3.042   3.962  0.6621  0.1688 -0.4097
13063TIP3    H260681   1.534   3.149   4.008  1.5753  1.4890 -1.4521
13064TIP3   OH260682   2.814   6.101   5.909 -0.2972  0.3166 -0.1102
13064TIP3    H160683   2.874   6.115   5.981 -0.1442  0.3044 -0.2360
13064TIP3    H260684   2.869   6.075   5.835  0.0208  3.9279 -1.3463
13065TIP3   OH260685   1.355   1.545   6.034 -0.1931 -0.0666 -0.0617
13065TIP3    H160686   1.296   1.520   5.964 -0.2876  1.0432 -0.3980
13065TIP3    H260687   1.351   1.641   6.037  0.0068 -0.0683  1.2833
13066TIP3   OH260688   1.873   0.849  10.943 -0.3028 -0.1139  0.9103
13066TIP3    H160689   1.908   0.828  11.029  0.2069  1.3790  1.0940
13066TIP3    H260690   1.786   0.884  10.960 -0.7941 -1.1969  0.6832
13067TIP3   OH260691   2.868   3.808   1.128  0.5943  0.6139 -0.3571
13067TIP3    H160692   2.902   3.768   1.049 -0.5751  1.8160 -1.5329
13067TIP3    H260693   2.944   3.814   1.187  0.9400 -2.6447 -0.3192
13068TIP3   OH260694   1.014   6.357  11.490  0.3202  0.6001 -0.0924
13068TIP3    H160695   1.085   6.383  11.548 -0.1445 -0.1986  0.8637
13068TIP3    H260696   1.002   6.431  11.430  1.3140  1.1184  0.3426
13069TIP3   OH260697   0.998   6.446  14.674 -0.0497  0.2432  0.3860
13069TIP3    H160698   0.948   6.391  14.614  1.9661 -0.4535 -0.7546
13069TIP3    H260699   0.999   6.532  14.633 -1.4599  0.6531  1.1396
13070TIP3   OH260700   5.507   0.291   4.482 -0.4499 -0.3713 -0.0147
13070TIP3    H160701   5.449   0.216   4.468 -1.1184 -0.2811  1.9752
13070TIP3    H260702   5.449   0.366   4.485  0.0876  0.0862 -0.7769
13071TIP3   OH260703   3.231   4.311  14.669 -0.6178 -0.4154  0.0069
13071TIP3    H160704   3.250   4.400  14.638  1.9518 -1.2672 -1.1557
13071TIP3    H260705   3.141   4.294  14.639 -1.4054  1.9493  0.8045
13072TIP3   OH260706   3.167   4.196   1.835 -0.6156  0.0156  0.2336
13072TIP3    H160707   3.101   4.153   1.889 -1.4731  0.2269 -0.6214
13072TIP3    H260708   3.241   4.136   1.833 -0.9735 -0.4465  0.7930
13073TIP3   OH260709   0.621   4.982  12.614  0.3182  0.1718 -0.1351
13073TIP3    H160710   0.580   5.029  12.542  1.5989  0.2441 -0.8372
13073TIP3    H260711   0.638   5.050  12.680  0.2773  0.3270 -0.2836
13074TIP3   OH260712   4.256   1.048   4.805  0.0089 -0.1336 -0.0799
13074TIP3    H160713   4.246   0.997   4.885 -0.8137  0.5253  0.2553
13074TIP3    H260714   4.321   1.000   4.754  0.5391 -0.5638  0.9722
13075TIP3   OH260715   4.142   0.547  15.577 -0.0514 -0.5474 -0.3050
13075TIP3    H160716   4.064   0.502  15.542 -0.4808 -0.7030  0.8153
13075TIP3    H260717   4.153   0.623  15.520 -0.2323 -1.2461 -1.2923
13076TIP3   OH260718   2.161   1.666  14.608 -0.6126  0.0295 -0.2484
13076TIP3    H160719   2.147   1.760  14.608  1.3905  0.3915  0.9667
13076TIP3    H260720   2.133   1.637  14.695  1.5345  0.0381  0.4918
13077TIP3   OH260721   0.442   4.085  15.329  0.0029  0.2051  0.2955
13077TIP3    H160722   0.452   4.096  15.424 -0.1914 -0.5422  0.4035
13077TIP3    H260723   0.388   4.160  15.302 -1.0898 -0.3119  0.9828
13078TIP3   OH260724   0.858   2.977   5.549  0.4872 -0.5130 -0.7633
13078TIP3    H160725   0.922   2.906   5.551 -1.0128 -1.9732 -1.4785
13078TIP3    H260726   0.774   2.932   5.540 -0.7876  1.2503  1.4142
13079TIP3   OH260727   3.949   1.590  15.964  0.3871 -0.2100 -0.7697
13079TIP3    H160728   3.997   1.631  15.892 -0.9122 -2.1452 -2.8492
13079TIP3    H260729   4.005   1.516  15.990  0.0369 -0.5806 -1.0509
13080TIP3   OH260730   4.500   1.506   4.123  0.0419 -0.2443  0.1819
13080TIP3    H160731   4.574   1.562   4.101  0.7987 -0.7669  1.2727
13080TIP3    H260732   4.444   1.560   4.178  1.4181 -0.8942  2.3191
13081TIP3   OH260733   5.890   1.885   4.935 -0.1929  0.3073 -0.3014
13081TIP3    H160734   5.952   1.913   4.867 -0.3956  0.0537 -0.5918
13081TIP3    H260735   5.942   1.884   5.015 -0.3317  2.1997 -0.1392
13082TIP3   OH260736   6.038   1.074   1.531  0.5610  0.1264 -0.1488
13082TIP3    H160737   5.963   1.016   1.513  0.4325  0.2056  0.1244
13082TIP3    H260738   6.083   1.032   1.605  1.0794 -0.1927 -0.6383
13083TIP3   OH260739   5.669   6.666   2.147 -0.1808  0.0885 -0.1694
13083TIP3    H160740   5.764   6.664   2.140 -0.0938 -0.8315  1.0197
13083TIP3    H260741   5.651   6.708   2.231 -0.8237  0.2986 -0.4052
13084TIP3   OH260742   0.426   1.511  15.209 -0.0117  0.1661 -0.3110
13084TIP3    H160743   0.363   1.454  15.165 -0.7532 -1.4567  2.5793
13084TIP3    H260744   0.491   1.451  15.246 -0.4176  1.1777  2.2484
13085TIP3   OH260745   0.352   2.457  14.561 -0.4453 -0.0051  0.1931
13085TIP3    H160746   0.439   2.461  14.601  0.6584  1.1791 -2.1416
13085TIP3    H260747   0.292   2.457  14.636  1.4222  3.1246  1.9094
13086TIP3   OH260748   1.311   3.965   0.196  1.0810 -0.0358  0.4236
13086TIP3    H160749   1.391   3.923   0.166  0.7080  1.4742 -3.3131
13086TIP3    H260750   1.340   4.036   0.253  2.2204 -0.7984  0.8190
13087TIP3   OH260751   4.907   0.491  17.207  0.4928  0.1877  0.3241
13087TIP3    H160752   4.839   0.515  17.144  1.4639  1.1603 -0.3823
13087TIP3    H260753   4.880   0.405  17.240 -3.1680  2.0758  2.9659
13088TIP3   OH260754   1.868   5.808   5.155  0.0337 -0.2419  0.6423
13088TIP3    H160755   1.781   5.784   5.124 -0.7036  0.2031  2.2646
13088TIP3    H260756   1.852   5.878   5.218  1.8132  2.1244 -1.3306
13089TIP3   OH260757   4.633   1.028   4.238 -0.0640 -0.2704 -0.0199
13089TIP3    H160758   4.634   1.058   4.148 -0.4806 -0.5791 -0.1299
13089TIP3    H260759   4.597   1.101   4.288  0.0369 -0.1516 -0.1208
13090TIP3   OH260760   0.600   3.798  10.865  0.3544  0.5523  0.7699
13090TIP3    H160761   0.532   3.864  10.878  1.0582  1.3451  0.4972
13090TIP3    H260762   0.561   3.735  10.805 -0.0454  1.1344  0.4096
13091TIP3   OH260763   0.333   5.022   4.334 -0.0357  0.5095  0.4544
13091TIP3    H160764   0.256   5.070   4.302 -2.1088 -1.7186  1.7939
13091TIP3    H260765   0.340   5.047   4.426  1.7396  1.6842  0.0572
13092TIP3   OH260766   0.681   4.312   3.108 -0.6056  0.0510 -0.0532
13092TIP3    H160767   0.755   4.254   3.091 -0.9416 -0.8609  1.4339
13092TIP3    H260768   0.646   4.283   3.192 -0.7281  2.4860  0.8239
13093TIP3   OH260769   3.470   4.832   2.837 -0.0703 -0.1046  0.7580
13093TIP3    H160770   3.450   4.782   2.758 -0.5287 -0.2057  0.9402
13093TIP3    H260771   3.534   4.897   2.808  2.5593 -2.3950  1.0388
13094TIP3   OH260772   6.725   4.392   4.097  0.1770 -0.2109 -0.2514
13094TIP3    H160773   6.804   4.387   4.152  0.5321  0.7851 -0.6527
13094TIP3    H260774   6.708   4.301   4.073 -0.0037 -0.6850  1.5096
13095TIP3   OH260775   2.061   2.928   6.409 -0.1730  0.0763  0.8239
13095TIP3    H160776   2.034   2.855   6.353  0.4982 -0.6419  1.4074
13095TIP3    H260777   2.156   2.916   6.420  0.0579  1.4097  0.4144
13096TIP3   OH260778   3.497   0.747  17.127  0.7500 -0.0944 -0.5938
13096TIP3    H160779   3.480   0.717  17.217 -2.7004 -1.1205 -1.4391
13096TIP3    H260780   3.442   0.824  17.117  1.0459 -0.0265 -1.8680
13097TIP3   OH260781   6.259   6.668   1.232 -0.7783 -0.5538  0.3933
13097TIP3    H160782   6.227   6.733   1.170 -1.5108 -0.3334  0.9791
13097TIP3    H260783   6.354   6.682   1.235 -0.6801 -0.8242 -0.9446
13098TIP3   OH260784   0.797   1.882  10.377 -0.2657  0.3574 -0.0948
13098TIP3    H160785   0.833   1.970  10.378  0.4203  0.0874  0.9137
13098TIP3    H260786   0.710   1.891  10.340  0.2767  1.2612 -1.1832
13099TIP3   OH260787   5.222   1.275  11.555  0.5336 -0.0046  0.5799
13099TIP3    H160788   5.221   1.253  11.462  0.3958  0.8300  0.3769
13099TIP3    H260789   5.169   1.207  11.596  0.1117 -0.0549 -0.0262
13100TIP3   OH260790   6.741   0.165   0.181 -0.3288 -0.8419  0.3768
13100TIP3    H160791   6.688   0.089   0.205  1.7194 -2.3714  0.2734
13100TIP3    H260792   6.828   0.146   0.215  1.0326  0.0151 -2.3634
13101TIP3   OH260793   2.595   2.527  10.779 -0.4859  0.2868  0.1383
13101TIP3    H160794   2.530   2.579  10.826 -1.2487 -1.0768  0.6723
13101TIP3    H260795   2.553   2.441  10.769  0.8982 -0.3662 -0.2814
13102TIP3   OH260796   5.569   1.659  14.512 -0.1915 -0.5373 -0.6111
13102TIP3    H160797   5.638   1.641  14.448  0.9491  3.2271 -0.6949
13102TIP3    H260798   5.494   1.685  14.460 -0.0323  0.1945 -0.4880
13103TIP3   OH260799   6.200   4.060   1.942  0.0026  0.0823 -0.0711
13103TIP3    H160800   6.222   3.982   1.892  1.2320  1.9414 -2.7242
13103TIP3    H260801   6.131   4.102   1.890  0.6190  1.6018  0.2882
13104TIP3   OH260802   2.113   5.491   4.088 -0.0143  0.0789  0.4549
13104TIP3    H160803   2.059   5.549   4.035 -0.7411 -1.1407 -0.1820
13104TIP3    H260804   2.071   5.406   4.081  0.9712 -0.5196  1.4430
13105TIP3   OH260805   4.460   4.490   5.065 -0.7170 -0.2927  0.2321
13105TIP3    H160806   4.402   4.490   4.989  0.1688  1.0103 -0.4774
13105TIP3    H260807   4.402   4.509   5.139 -1.1720  1.3588 -0.5088
13106TIP3   OH260808   5.188   4.349  14.856 -0.3266 -0.5248  0.0303
13106TIP3    H160809   5.241   4.416  14.813  0.9061 -0.0635  2.1073
13106TIP3    H260810   5.230   4.337  14.942 -2.3814 -1.6977  0.9453
13107TIP3   OH260811   0.803   3.590  15.860  0.4363  0.1405  0.1365
13107TIP3    H160812   0.809   3.511  15.913 -1.2690 -0.6809 -0.7953
13107TIP3    H260813   0.741   3.568  15.791 -0.3935  2.4089  0.0590
13108TIP3   OH260814   0.868   2.046  15.788  0.0199  0.6334 -1.0716
13108TIP3    H160815   0.833   2.040  15.877 -2.0607 -0.7636 -1.8797
13108TIP3    H260816   0.916   2.128  15.785 -0.6238  1.1309  1.0826
13109TIP3   OH260817   2.251   0.522  15.532  0.1170  0.2121  0.8482
13109TIP3    H160818   2.173   0.471  15.554  0.0505 -0.5553 -0.9724
13109TIP3    H260819   2.222   0.613  15.537 -0.8408 -0.0535  0.4760
13110TIP3   OH260820   1.133   6.068  14.365 -0.3763 -0.0578  0.3948
13110TIP3    H160821   1.206   6.063  14.427 -0.6677 -0.2313  0.7277
13110TIP3    H260822   1.153   6.000  14.300  0.2563  0.5548 -0.0641
13111TIP3   OH260823   4.825   1.039  14.403  0.0915 -0.3437  0.0718
13111TIP3    H160824   4.761   1.079  14.462 -1.0793 -1.8464 -0.1454
13111TIP3    H260825   4.908   1.081  14.427 -0.4159 -0.5398  2.4508
13112TIP3   OH260826   0.012   1.753   3.808  0.4772 -0.8373 -0.0115
13112TIP3    H160827   0.052   1.743   3.895  1.5778 -3.1761 -0.6864
13112TIP3    H260828   0.080   1.795   3.755 -0.0274  0.1805  0.1361
13113TIP3   OH260829   6.166   4.398  12.180 -0.4901 -0.2032 -0.2243
13113TIP3    H160830   6.238   4.428  12.125 -1.8273  0.2927 -1.7853
13113TIP3    H260831   6.165   4.302  12.169  0.6627 -0.3434  0.7774
13114TIP3   OH260832   0.123   0.432   0.875 -0.9497  0.1686 -0.2940
13114TIP3    H160833   0.074   0.512   0.856  0.5088  1.8753  2.4356
13114TIP3    H260834   0.211   0.450   0.842 -1.0267 -1.0633 -1.2116
13115TIP3   OH260835   1.775   5.776   3.234 -0.2879 -0.3731  0.0372
13115TIP3    H160836   1.824   5.759   3.154  1.4426 -0.1732  1.0056
13115TIP3    H260837   1.719   5.851   3.213 -0.6777 -0.9996 -1.2793
13116TIP3   OH260838   1.456   5.515  12.563 -0.4999  0.5047  0.0897
13116TIP3    H160839   1.536   5.564  12.580  0.1713 -0.7593  0.7057
13116TIP3    H260840   1.400   5.534  12.639 -0.4052  0.6418  0.1243
13117TIP3   OH260841   2.022   0.542  13.689  0.4902  0.0651  0.4705
13117TIP3    H160842   2.025   0.486  13.766  2.1566 -0.4851  0.0365
13117TIP3    H260843   2.056   0.488  13.618 -1.6254  0.3414 -0.8344
13118TIP3   OH260844   2.006   0.266  11.666  0.0287  0.5216  0.5231
13118TIP3    H160845   2.099   0.290  11.662  0.5451 -1.1091  1.6208
13118TIP3    H260846   1.971   0.321  11.737 -0.1800  2.0197 -0.6823
13119TIP3   OH260847   6.015   0.957  11.664  0.2938 -0.5319  0.1945
13119TIP3    H160848   5.969   0.995  11.589  0.5178 -0.0117  0.3159
13119TIP3    H260849   6.107   0.979  11.650  0.4214 -1.0011  0.2903
13120TIP3   OH260850   6.727   4.513   2.373  0.8663 -0.3292 -0.1567
13120TIP3    H160851   6.738   4.546   2.462 -2.0635  1.0148 -0.1893
13120TIP3    H260852   6.760   4.583   2.317  2.3307 -1.0071 -0.1880
13121TIP3   OH260853   5.320   3.968  15.518 -0.2668 -0.0742 -0.1392
13121TIP3    H160854   5.337   4.039  15.579  1.3326 -1.7581  1.4840
13121TIP3    H260855   5.363   3.891  15.556  1.2870 -1.1558 -3.6085
13122TIP3   OH260856   1.949   1.202  11.833 -0.0516 -0.2427  0.3393
13122TIP3    H160857   1.898   1.197  11.914 -1.9489  1.2727 -0.6701
13122TIP3    H260858   1.981   1.113  11.820  0.1378 -0.5836  2.6107
13123TIP3   OH260859   5.618   4.110  14.403 -0.1306  0.0326  0.3624
13123TIP3    H160860   5.602   4.166  14.479 -0.8070 -0.0967  0.3204
13123TIP3    H260861   5.705   4.074  14.419  0.9109  2.1039 -0.2483
13124TIP3   OH260862   1.425   5.091   4.082 -0.3859  0.2119 -0.6992
13124TIP3    H160863   1.518   5.103   4.102 -0.6496  1.4166 -0.0812
13124TIP3    H260864   1.408   5.151   4.010 -0.3933 -1.0431 -1.7812
13125TIP3   OH260865   4.458   2.630  11.841  0.7477 -0.2919 -0.0339
13125TIP3    H160866   4.501   2.684  11.907 -0.6001  0.1677  0.5036
13125TIP3    H260867   4.415   2.561  11.892  0.7146 -0.6470 -0.5389
13126TIP3   OH260868   6.750   2.205   5.186 -0.3115 -0.3625 -0.1437
13126TIP3    H160869   6.685   2.154   5.234  0.5357 -0.8385  0.5313
13126TIP3    H260870   6.737   2.295   5.216  1.0506 -0.8144  2.0591
13127TIP3   OH260871   6.776   1.476  11.731  0.2872 -0.5242  0.0172
13127TIP3    H160872   6.789   1.381  11.730  1.3102 -0.4404  1.7591
13127TIP3    H260873   6.705   1.491  11.669  1.3283 -2.2183 -1.7052
13128TIP3   OH260874   2.992   6.512  12.697  0.3375  0.1495  0.2172
13128TIP3    H160875   2.919   6.449  12.697  0.1753  0.3344  0.4690
13128TIP3    H260876   3.039   6.493  12.616 -0.4337  0.5303 -0.3384
13129TIP3   OH260877   1.776   1.325   2.499  0.7564  0.0292  0.3510
13129TIP3    H160878   1.797   1.341   2.591 -0.5555  0.7866  0.5413
13129TIP3    H260879   1.762   1.231   2.494 -1.7178  0.2723  1.5198
13130TIP3   OH260880   4.769   3.236   3.301  0.2933  0.3247  0.5226
13130TIP3    H160881   4.797   3.299   3.235  0.0834 -0.7524 -0.6350
13130TIP3    H260882   4.708   3.285   3.357 -1.9614  0.5504 -1.9214
13131TIP3   OH260883   3.533   5.792  13.157  0.0800 -0.2823 -0.4618
13131TIP3    H160884   3.444   5.825  13.169  1.1103  2.0743  1.5132
13131TIP3    H260885   3.580   5.865  13.118  1.3196 -1.2947 -0.9235
13132TIP3   OH260886   2.067   0.222   5.024 -0.0640  0.7634 -0.1236
13132TIP3    H160887   2.118   0.184   5.096  0.7018 -0.0937 -1.0872
13132TIP3    H260888   2.130   0.274   4.974  0.0636 -0.7624 -1.6572
13133TIP3   OH260889   1.822   3.719   2.339 -0.1479  0.0551  0.4082
13133TIP3    H160890   1.821   3.632   2.301  1.3663  0.2746 -0.2285
13133TIP3    H260891   1.792   3.707   2.429 -0.3996 -1.0326  0.1903
13134TIP3   OH260892   1.955   0.379   1.510 -1.2741  0.1647  0.6321
13134TIP3    H160893   1.902   0.310   1.471 -0.4235 -0.3286  0.3089
13134TIP3    H260894   1.934   0.375   1.603 -1.3547 -0.4358  0.5939
13135TIP3   OH260895   4.088   6.265   5.339 -0.6342 -0.6441  0.4990
13135TIP3    H160896   4.120   6.176   5.326 -1.0329 -0.5498 -1.4024
13135TIP3    H260897   4.053   6.291   5.254  1.1669  2.0361  0.4541
13136TIP3   OH260898   3.637   3.958   0.916 -0.0627 -0.2522  0.2180
13136TIP3    H160899   3.661   3.942   0.824  0.9688  0.2815  0.3796
13136TIP3    H260900   3.711   3.925   0.966 -0.6373 -0.5696  0.8753
13137TIP3   OH260901   0.019   3.555  14.336  0.0828  0.5680 -0.3857
13137TIP3    H160902   0.039   3.618  14.266 -0.0349 -0.5325 -1.4396
13137TIP3    H260903  -0.076   3.556  14.342  0.0951  0.7059 -0.1779
13138TIP3   OH260904   5.228   2.664  15.368  0.0556  0.1086  0.2616
13138TIP3    H160905   5.138   2.633  15.374 -0.4921  1.4082 -0.7680
13138TIP3    H260906   5.273   2.597  15.317 -0.2438 -0.6780  1.0096
13139TIP3   OH260907   2.524   3.600  17.176  0.1178 -0.0498 -0.1319
13139TIP3    H160908   2.565   3.543  17.111 -0.0526 -0.7126  0.3259
13139TIP3    H260909   2.597   3.646  17.217  0.2043  0.5680 -0.9616
13140TIP3   OH260910   3.724   3.211  11.872  0.3657  0.2876  0.1074
13140TIP3    H160911   3.667   3.261  11.931  1.6890  0.7649  1.0530
13140TIP3    H260912   3.736   3.268  11.796  0.0271  0.4211  0.1546
13141TIP3   OH260913   3.682   5.749  12.107  0.0063  0.1518  0.0048
13141TIP3    H160914   3.672   5.766  12.013  0.3728 -1.9936 -0.4954
13141TIP3    H260915   3.706   5.833  12.145 -0.2875  1.0972 -1.8097
13142TIP3   OH260916   1.510   5.793   2.909  0.1425 -0.2420 -0.0456
13142TIP3    H160917   1.492   5.771   2.817 -0.8056 -1.9454  0.5161
13142TIP3    H260918   1.448   5.863   2.929  1.0503  0.8755 -0.9648
13143TIP3   OH260919   6.311   2.478   6.311 -0.7606 -0.2973 -0.4323
13143TIP3    H160920   6.280   2.387   6.319 -0.3883 -0.2761  2.1100
13143TIP3    H260921   6.401   2.475   6.344 -1.1452  1.1778  0.8252
13144TIP3   OH260922   6.554   4.914   2.163  0.3603  0.3059 -0.5772
13144TIP3    H160923   6.627   4.921   2.225 -0.4204 -2.0667  0.7318
13144TIP3    H260924   6.536   5.005   2.137  1.1346  1.3684  2.2203
13145TIP3   OH260925   3.872   5.026   0.160  0.0145 -0.2603  0.1426
13145TIP3    H160926   3.945   5.085   0.179  0.5129 -1.6810  3.4137
13145TIP3    H260927   3.853   5.039   0.067  2.4762  2.2985 -0.1201
13146TIP3   OH260928   2.870   6.678  11.597 -0.3199  0.3643  0.3950
13146TIP3    H160929   2.940   6.641  11.544 -0.0984  2.6884 -1.0766
13146TIP3    H260930   2.817   6.603  11.623  1.8757 -1.2991  0.3479
13147TIP3   OH260931   5.818   4.185   5.984  0.3816 -0.1296  0.9432
13147TIP3    H160932   5.844   4.246   5.914  0.7892  0.1509  1.3295
13147TIP3    H260933   5.894   4.129   5.996 -0.3008 -1.2813  0.0063
13148TIP3   OH260934   4.308   5.896  13.740 -0.1483  0.4183 -0.1745
13148TIP3    H160935   4.358   5.957  13.686 -1.7027  1.4660 -0.4849
13148TIP3    H260936   4.300   5.941  13.825  0.4849 -0.3046  0.2863
13149TIP3   OH260937   1.439   2.453  12.968  0.7430 -0.0352  0.0843
13149TIP3    H160938   1.489   2.528  13.001  2.6309 -0.4155 -1.6543
13149TIP3    H260939   1.493   2.377  12.991  0.5768 -0.5394 -1.0858
13150TIP3   OH260940   6.734   5.740  16.189 -0.2844  0.5424  0.1318
13150TIP3    H160941   6.663   5.776  16.135 -2.6767 -3.7978 -0.0316
13150TIP3    H260942   6.697   5.738  16.278  1.5611  2.4774  1.0511
13151TIP3   OH260943   6.280   1.236   2.504 -0.1245 -0.5347 -0.2688
13151TIP3    H160944   6.215   1.168   2.485 -0.5793 -0.4819  1.0513
13151TIP3    H260945   6.239   1.317   2.475  0.4940 -0.8046 -2.0254
13152TIP3   OH260946   1.676   6.421  17.075 -0.4749  0.1922 -0.7042
13152TIP3    H160947   1.735   6.469  17.017 -0.5341  0.6056 -0.4271
13152TIP3    H260948   1.656   6.340  17.028 -0.4739  0.4961 -1.2353
13153TIP3   OH260949   4.019   1.142   0.074  0.2820 -0.0500  0.1975
13153TIP3    H160950   4.099   1.195   0.079 -2.4623  4.6727 -0.5263
13153TIP3    H260951   4.029   1.093  -0.008  3.0915 -1.0724  1.0148
13154TIP3   OH260952   1.615   2.504  10.357  0.1448  0.0228 -0.4489
13154TIP3    H160953   1.675   2.440  10.394  0.3308  0.0136 -0.7644
13154TIP3    H260954   1.529   2.479  10.391  0.0703 -0.9774 -1.3350
13155TIP3   OH260955   6.838   3.217   6.102  0.1819  0.2357  0.1657
13155TIP3    H160956   6.769   3.265   6.056 -0.2096  0.1123  0.6201
13155TIP3    H260957   6.811   3.218   6.194  0.6562 -0.0326  0.3095
13156TIP3   OH260958   3.640   3.425  11.166  0.0655  0.0678  0.0211
13156TIP3    H160959   3.688   3.490  11.217  1.1734 -0.6336 -0.0982
13156TIP3    H260960   3.664   3.443  11.075 -0.1750 -0.0690 -0.0717
13157TIP3   OH260961   2.048   4.097   1.546 -0.2018 -0.6679 -0.1909
13157TIP3    H160962   1.986   4.167   1.568  1.5394  1.3749 -1.3931
13157TIP3    H260963   2.008   4.053   1.471 -0.7519 -0.1533 -0.2095
13158TIP3   OH260964   0.262   4.058   4.199  0.2217 -0.1980 -0.5272
13158TIP3    H160965   0.277   4.148   4.173  1.9468 -0.7605 -1.6345
13158TIP3    H260966   0.309   4.049   4.282 -0.6376  0.1129  0.0086
13159TIP3   OH260967   1.563   3.925   0.133 -0.1843  0.3512 -0.1853
13159TIP3    H160968   1.638   3.868   0.151 -0.2881  0.0907 -0.5734
13159TIP3    H260969   1.591   4.011   0.163 -0.6872 -0.2186  2.1984
13160TIP3   OH260970   3.309   4.985  16.084  0.2364  0.2241  0.6927
13160TIP3    H160971   3.336   4.993  16.176  1.3643  2.2563  0.2568
13160TIP3    H260972   3.218   5.015  16.082  0.0220 -0.3807  1.2230
13161TIP3   OH260973   2.689   5.589   2.715  0.3665  0.0892  0.0752
13161TIP3    H160974   2.702   5.539   2.795 -1.2527 -0.6721 -0.0995
13161TIP3    H260975   2.740   5.669   2.728  0.2291 -0.0741  1.8115
13162TIP3   OH260976   6.615   5.310   4.758  0.5806  0.1553  0.0865
13162TIP3    H160977   6.536   5.360   4.780  1.0966  1.3775 -0.6895
13162TIP3    H260978   6.587   5.251   4.688 -0.3670 -1.7104  1.9122
13163TIP3   OH260979   2.188   1.911   5.356  0.0198  0.4850 -0.0984
13163TIP3    H160980   2.275   1.911   5.397  0.2129  0.9218 -0.4960
13163TIP3    H260981   2.207   1.911   5.262 -0.4034  1.4338 -0.1913
13164TIP3   OH260982   2.161   3.778   4.905 -0.3092  0.4543 -0.7445
13164TIP3    H160983   2.111   3.759   4.984 -0.2379  0.4116 -0.7096
13164TIP3    H260984   2.141   3.869   4.885 -1.2021  0.1483 -1.3033
13165TIP3   OH260985   2.011   4.880  16.835 -0.3431  0.1311 -0.5215
13165TIP3    H160986   2.102   4.851  16.843 -0.6398 -0.7323 -0.1857
13165TIP3    H260987   1.981   4.888  16.926 -0.0886  2.1515 -0.5670
13166TIP3   OH260988   3.644   0.265  10.574 -0.1990  0.0676  0.0770
13166TIP3    H160989   3.608   0.269  10.662 -2.2511 -0.1661 -0.7027
13166TIP3    H260990   3.626   0.176  10.544  1.2921 -0.1513 -0.2972
13167TIP3   OH260991   2.164   6.590  16.182 -0.3717  0.2676  0.2807
13167TIP3    H160992   2.137   6.618  16.094 -1.7528  0.5659  0.7752
13167TIP3    H260993   2.204   6.667  16.221 -0.9456  0.5286  0.3678
13168TIP3   OH260994   3.058   0.856  13.128 -0.3283 -0.4269  0.4684
13168TIP3    H160995   3.021   0.916  13.193  2.8468 -1.0379  3.0694
13168TIP3    H260996   3.132   0.904  13.091  0.8281 -1.8418  0.8739
13169TIP3   OH260997   0.932   4.988   2.660  0.1546 -0.4988 -0.3211
13169TIP3    H160998   1.012   4.982   2.608  0.9576  0.7004  0.6827
13169TIP3    H260999   0.951   5.059   2.723 -1.7730 -0.0557 -0.1876
13170TIP3   OH261000   4.890   4.424  15.452  0.3823 -0.6714 -0.0884
13170TIP3    H161001   4.936   4.411  15.535  1.1171 -1.3628 -0.5977
13170TIP3    H261002   4.877   4.518  15.446 -0.6310 -0.6814  1.3200
13171TIP3   OH261003   1.665   3.040   5.260 -0.3610  0.0960  0.1255
13171TIP3    H161004   1.649   3.021   5.352  0.7939  0.2867  0.3933
13171TIP3    H261005   1.588   3.088   5.231 -1.9808 -2.2955  0.2282
13172TIP3   OH261006   1.602   5.446  13.033  0.4112 -1.0574 -0.2959
13172TIP3    H161007   1.685   5.472  12.993  0.3709  0.0842  0.3125
13172TIP3    H261008   1.626   5.384  13.101  0.7358 -0.9736 -0.3329
13173TIP3   OH261009   4.732   2.430  15.820  0.3472 -0.5289  0.2367
13173TIP3    H161010   4.754   2.364  15.886  0.3444 -0.3532  0.4153
13173TIP3    H261011   4.663   2.390  15.767 -0.7813 -0.0739  1.3227
13174TIP3   OH261012   1.088   6.305   5.044  0.0143  0.0707  0.4671
13174TIP3    H161013   1.122   6.392   5.026 -0.6097  0.1681 -0.2911
13174TIP3    H261014   1.029   6.286   4.971 -0.3338 -0.7327  0.9355
13175TIP3   OH261015   6.158   2.065   6.113  0.2474  0.5624 -0.4440
13175TIP3    H161016   6.132   2.020   6.194  0.1382  1.5816  0.1057
13175TIP3    H261017   6.253   2.070   6.118  0.1845  1.3593  0.0304
13176TIP3   OH261018   4.041   6.621  13.040 -0.1675 -0.2583 -0.2922
13176TIP3    H161019   3.965   6.634  12.984 -0.5966 -0.5792  0.2028
13176TIP3    H261020   4.115   6.649  12.987 -0.7532  1.3937 -0.3072
13177TIP3   OH261021   4.355   3.085  11.748 -0.7001  0.1452 -0.4933
13177TIP3    H161022   4.339   2.991  11.745  0.0053  0.0250 -0.7277
13177TIP3    H261023   4.356   3.112  11.656 -1.6812  0.5289 -0.4032
13178TIP3   OH261024   0.825   1.193  15.111  0.7347 -0.2098  0.1732
13178TIP3    H161025   0.767   1.192  15.034 -1.4841  1.3739  1.6931
13178TIP3    H261026   0.884   1.119  15.097 -1.4842 -1.8036 -1.6607
13179TIP3   OH261027   4.766   1.047  10.615  0.2062  0.2186 -0.3211
13179TIP3    H161028   4.798   1.128  10.574  0.7792  0.2155  0.1103
13179TIP3    H261029   4.671   1.050  10.602 -0.1376  2.2258  1.8635
13180TIP3   OH261030   1.504   6.794   2.065 -0.0035 -0.3529 -0.5254
13180TIP3    H161031   1.581   6.775   2.118 -0.5390  2.0094  1.3090
13180TIP3    H261032   1.534   6.857   2.000 -0.2175  0.1762 -0.1308
13181TIP3   OH261033   3.327   6.741  17.133 -0.4078  0.2580 -0.1868
13181TIP3    H161034   3.334   6.682  17.209 -0.3963  0.1894 -0.2424
13181TIP3    H261035   3.375   6.696  17.063  0.1443  0.6258 -0.0515
13182TIP3   OH261036   5.834   6.603  12.136 -0.1011 -0.0130  0.2668
13182TIP3    H161037   5.833   6.551  12.217  0.5676  1.0897  1.0062
13182TIP3    H261038   5.873   6.686  12.162  1.7552 -0.2261 -1.5461
13183TIP3   OH261039   2.842   5.527  14.532  0.7060  0.0109  0.5104
13183TIP3    H161040   2.784   5.577  14.590  3.0756 -0.2064  3.2762
13183TIP3    H261041   2.884   5.593  14.477 -2.5072  0.1232 -2.1706
13184TIP3   OH261042   3.602   3.671   4.858 -0.2402 -0.3434 -0.2475
13184TIP3    H161043   3.661   3.631   4.795 -0.5915 -0.1214 -0.7269
13184TIP3    H261044   3.644   3.755   4.880 -1.8542  1.3397 -3.0238
13185TIP3   OH261045   2.018   5.436   2.694 -0.0704 -0.4297  0.7409
13185TIP3    H161046   2.061   5.351   2.702  0.8370 -0.1782 -0.8417
13185TIP3    H261047   2.079   5.498   2.735 -0.2788 -0.4264  1.0457
13186TIP3   OH261048   6.654   1.194   2.578 -0.5187  0.1889  0.1328
13186TIP3    H161049   6.748   1.207   2.591 -0.4645 -0.0753 -0.0010
13186TIP3    H261050   6.613   1.261   2.633 -0.2655 -0.1812  0.7939
13187TIP3   OH261051   5.334   0.872  12.401  0.0475  0.3730  0.0428
13187TIP3    H161052   5.339   0.861  12.496 -1.6909  1.8274  0.3505
13187TIP3    H261053   5.257   0.822  12.375  1.1074 -0.8893 -0.7979
13188TIP3   OH261054   0.536   1.245   3.076  0.0391  0.2044 -0.4646
13188TIP3    H161055   0.617   1.223   3.030  0.8347  1.1829  0.4067
13188TIP3    H261056   0.470   1.252   3.008  0.4386 -1.6289 -1.0962
13189TIP3   OH261057   0.444   1.204   4.829  0.3909 -0.3377 -0.2753
13189TIP3    H161058   0.360   1.186   4.872 -0.6873  0.8932 -1.7266
13189TIP3    H261059   0.499   1.239   4.899 -1.0231  0.8258  0.3165
13190TIP3   OH261060   4.514   4.606   6.725 -0.1725 -0.0637  0.0172
13190TIP3    H161061   4.574   4.591   6.798 -0.8378  1.0023  0.8088
13190TIP3    H261062   4.561   4.668   6.669 -1.4244  2.8545  1.9224
13191TIP3   OH261063   4.487   0.032   2.407 -0.0430  0.6692 -1.0603
13191TIP3    H161064   4.426   0.054   2.336  1.4474 -0.6323 -2.8509
13191TIP3    H261065   4.495  -0.063   2.403 -0.5826  0.4474  1.4984
13192TIP3   OH261066   3.333   2.309   4.772  0.3311  0.0344  0.3186
13192TIP3    H161067   3.266   2.355   4.823  0.6772  1.4177 -0.4490
13192TIP3    H261068   3.292   2.225   4.751 -0.9834  0.6479  0.3032
13193TIP3   OH261069   4.179   0.598   5.150 -0.2657  0.3508  0.1987
13193TIP3    H161070   4.265   0.604   5.192 -0.1468 -0.1962  0.0366
13193TIP3    H261071   4.138   0.520   5.189 -0.0895 -0.2570 -0.8066
13194TIP3   OH261072   3.105   0.932  16.510  0.1249  0.3545 -0.1262
13194TIP3    H161073   3.149   0.864  16.562 -1.3214 -0.1657  0.4787
13194TIP3    H261074   3.172   0.999  16.496  0.7644  0.1912  1.8426
13195TIP3   OH261075   5.262   3.010  11.557 -0.0125 -0.1455  0.3327
13195TIP3    H161076   5.242   3.096  11.520 -1.7469 -1.5028 -2.1768
13195TIP3    H261077   5.178   2.965  11.562  0.8829 -1.8341  1.3249
13196TIP3   OH261078   2.753   6.376   2.642 -0.5426  0.4264 -0.2854
13196TIP3    H161079   2.767   6.420   2.558 -0.4879 -0.6871 -0.8861
13196TIP3    H261080   2.825   6.404   2.697 -0.8754  1.5950 -0.4193
13197TIP3   OH261081   4.794   2.874  13.167 -0.8049 -0.3584 -0.0501
13197TIP3    H161082   4.761   2.901  13.253 -0.6338 -0.0381 -0.0858
13197TIP3    H261083   4.722   2.890  13.107 -0.3929  0.9088 -0.2306
13198TIP3   OH261084   0.150   3.948  11.624 -0.1967  0.0685 -0.1035
13198TIP3    H161085   0.133   4.018  11.687  0.8310  0.0765  0.1688
13198TIP3    H261086   0.087   3.880  11.648 -2.4306  1.5088 -1.4392
13199TIP3   OH261087   6.462   5.712  10.776  0.8922  0.0260 -0.4877
13199TIP3    H161088   6.419   5.769  10.840  2.8733 -0.1650  1.1177
13199TIP3    H261089   6.390   5.680  10.721 -0.5849  2.1675  0.0360
13200TIP3   OH261090   4.994   0.233  16.057 -0.0379  0.4916  0.3975
13200TIP3    H161091   5.051   0.158  16.070 -0.9311 -0.1504  0.7064
13200TIP3    H261092   5.042   0.289  15.996  0.5630 -0.4125  0.0187
13201TIP3   OH261093   5.211   3.358  13.959  0.0503 -0.0282  0.4659
13201TIP3    H161094   5.239   3.402  13.879 -2.0461  1.2146  0.3680
13201TIP3    H261095   5.177   3.274  13.929  0.4214 -0.0924  0.2132
13202TIP3   OH261096   1.105   2.316  12.315 -0.5118  0.1971  0.3251
13202TIP3    H161097   1.029   2.290  12.367 -0.6348 -1.3055 -0.5621
13202TIP3    H261098   1.164   2.358  12.378 -1.4149  0.0070  1.3142
13203TIP3   OH261099   1.148   2.692   4.381  0.0105 -0.6991  0.1824
13203TIP3    H161100   1.152   2.722   4.290 -2.3099 -0.0707  0.2411
13203TIP3    H261101   1.215   2.743   4.426 -0.5608  0.8634 -0.6774
13204TIP3   OH261102   0.249   6.557   0.246  0.2397  0.4428 -0.1739
13204TIP3    H161103   0.250   6.516   0.332  0.7835  0.9208  0.0562
13204TIP3    H261104   0.232   6.485   0.185 -1.5863  0.3164  0.4304
13205TIP3   OH261105   2.583   2.011   1.387 -0.1851 -0.1098 -0.2251
13205TIP3    H161106   2.614   1.989   1.299 -0.2748 -0.0824 -0.2630
13205TIP3    H261107   2.528   1.937   1.413  0.1865 -0.3175 -0.0215
13206TIP3   OH261108   2.913   5.287   3.912 -0.1842 -0.4691  0.0358
13206TIP3    H161109   2.855   5.304   3.986 -0.6019  1.3693 -0.6724
13206TIP3    H261110   2.942   5.373   3.883 -1.2208 -0.9764 -2.8944
13207TIP3   OH261111   4.355   6.796   0.616 -0.2578 -0.0394  0.4177
13207TIP3    H161112   4.319   6.863   0.557  0.9847  1.3268  1.1381
13207TIP3    H261113   4.434   6.837   0.652  0.3395 -1.7830  1.1655
13208TIP3   OH261114   1.577   3.773   5.457 -0.1120 -0.0923 -0.3392
13208TIP3    H161115   1.494   3.815   5.479  0.4764  1.2688 -0.6195
13208TIP3    H261116   1.632   3.844   5.422  1.3420 -0.8503  0.2971
13209TIP3   OH261117   6.602   1.767   3.659 -0.5244  0.2900  0.2010
13209TIP3    H161118   6.562   1.706   3.720  0.3700 -0.0443  0.4691
13209TIP3    H261119   6.690   1.782   3.693 -0.0531  0.2058 -0.9164
13210TIP3   OH261120   3.760   6.606  15.221  0.1025  0.3362  0.1213
13210TIP3    H161121   3.822   6.534  15.219 -0.0119  0.2587 -1.4325
13210TIP3    H261122   3.683   6.569  15.265  0.1189 -0.4431 -0.4769
13211TIP3   OH261123   4.112   1.094  11.058  0.0163  0.4039 -0.7957
13211TIP3    H161124   4.141   1.168  11.004  0.7006 -0.6419 -1.9031
13211TIP3    H261125   4.025   1.072  11.025  0.2213  0.0881 -1.1212
13212TIP3   OH261126   5.138   5.817   5.153 -0.3582  0.5783  0.1426
13212TIP3    H161127   5.192   5.828   5.232  0.9825  0.4343 -0.7200
13212TIP3    H261128   5.179   5.874   5.088  0.0799 -1.1577 -1.1790
13213TIP3   OH261129   5.462   0.992  14.338 -0.7701 -0.4358 -0.0736
13213TIP3    H161130   5.386   1.012  14.393 -1.3107 -0.7531 -0.6907
13213TIP3    H261131   5.493   0.907  14.371  0.9049  0.8388  1.8686
13214TIP3   OH261132   4.860   5.023   6.481 -0.0952  0.4669  0.0306
13214TIP3    H161133   4.942   5.041   6.435 -0.2060 -2.5496 -1.5941
13214TIP3    H261134   4.793   5.066   6.429  0.3094  2.5013  1.0772
13215TIP3   OH261135   6.380   5.802  11.075 -0.1216  0.0904  0.4087
13215TIP3    H161136   6.327   5.881  11.089 -0.8363 -0.1206 -0.9916
13215TIP3    H261137   6.447   5.829  11.012  0.6301 -0.0101  1.1478
13216TIP3   OH261138   3.736   2.879   6.144 -0.3528  0.0618  0.1204
13216TIP3    H161139   3.695   2.876   6.231  2.3480  1.8848  1.6061
13216TIP3    H261140   3.829   2.869   6.161  0.1221 -1.5129 -2.8451
13217TIP3   OH261141   2.632   6.295   2.892  0.1330  0.3760  0.1045
13217TIP3    H161142   2.694   6.269   2.823 -0.5510 -0.4941 -0.1862
13217TIP3    H261143   2.641   6.228   2.959  0.4751  0.9858  0.6900
13218TIP3   OH261144   2.961   0.201  17.109 -0.2913  0.2171  0.0730
13218TIP3    H161145   3.031   0.204  17.044 -0.4525 -0.3862 -0.1325
13218TIP3    H261146   2.912   0.122  17.088  0.3579 -0.6381  1.6416
13219TIP3   OH261147   2.413   2.266   2.218  0.0620  0.2516  0.0894
13219TIP3    H161148   2.451   2.350   2.190  0.3311 -0.5227 -2.0245
13219TIP3    H261149   2.384   2.225   2.137 -0.6529 -1.4483  1.1611
13220TIP3   OH261150   6.567   4.826  11.225 -0.2077 -0.1970  0.9323
13220TIP3    H161151   6.478   4.857  11.245 -1.3114 -1.2900 -1.7461
13220TIP3    H261152   6.558   4.782  11.140  3.0623  0.2361  0.2374
13221TIP3   OH261153   0.951   2.119   0.433  0.0647  0.1187 -0.2819
13221TIP3    H161154   0.880   2.075   0.481  0.3940 -0.3823 -0.2483
13221TIP3    H261155   0.938   2.212   0.452  1.5300 -0.1640  2.7346
13222TIP3   OH261156   5.499   1.906  13.917 -0.0173 -0.5010  0.2048
13222TIP3    H161157   5.527   1.818  13.939 -3.3043 -1.6371  0.3858
13222TIP3    H261158   5.425   1.894  13.857 -2.1763  1.9362  2.1101
13223TIP3   OH261159   3.885   2.762   5.354 -0.3288  0.7030 -0.0115
13223TIP3    H161160   3.920   2.699   5.416  0.5035  1.6659  0.5360
13223TIP3    H261161   3.861   2.838   5.408 -2.2698  0.5093 -0.5112
13224TIP3   OH261162   3.414   4.122  14.557  0.6698  0.2749 -0.2789
13224TIP3    H161163   3.361   4.196  14.586 -1.8213 -1.6543  0.3979
13224TIP3    H261164   3.489   4.163  14.512 -0.6114  3.1685 -0.0270
13225TIP3   OH261165   1.957   2.546  14.835  0.2151 -0.4615  0.1532
13225TIP3    H161166   1.963   2.602  14.912 -2.6750  1.6473 -0.9583
13225TIP3    H261167   2.034   2.568  14.783  0.6650  0.2653  1.0996
13226TIP3   OH261168   4.723   2.808   3.520 -0.1462 -0.3676 -0.4031
13226TIP3    H161169   4.675   2.827   3.439 -0.9483 -0.3591  0.0644
13226TIP3    H261170   4.678   2.733   3.557  2.6195 -3.0069 -1.9288
13227TIP3   OH261171   3.244   4.416  12.183  0.3176 -0.2101 -0.2980
13227TIP3    H161172   3.192   4.426  12.262  1.7446 -0.8965  0.7696
13227TIP3    H261173   3.326   4.375  12.212 -0.0719 -2.8060 -2.4741
13228TIP3   OH261174   6.532   5.135   1.734 -0.8094 -0.3510  0.6813
13228TIP3    H161175   6.472   5.097   1.669 -1.1428 -0.0583  0.8187
13228TIP3    H261176   6.493   5.113   1.819 -1.3033  0.7556  0.7626
13229TIP3   OH261177   1.737   3.005  13.064 -0.2939  0.5386 -0.0296
13229TIP3    H161178   1.729   2.942  13.135  1.7535  0.2327 -0.0174
13229TIP3    H261179   1.783   3.080  13.103 -2.3464  1.9347 -0.1413
13230TIP3   OH261180   1.074   2.563  13.699 -0.4578  0.0896 -0.3779
13230TIP3    H161181   1.003   2.622  13.674 -0.1106  0.5143 -0.3830
13230TIP3    H261182   1.096   2.516  13.619 -1.5550 -0.9515 -0.1015
13231TIP3   OH261183   6.488   6.471  12.005  0.4656  0.1810  0.0340
13231TIP3    H161184   6.450   6.464  12.092  1.5687 -0.8399  0.4647
13231TIP3    H261185   6.580   6.448  12.017  0.6532  0.0910 -1.3846
13232TIP3   OH261186   4.968   6.832   5.239 -0.1506 -0.6204  0.5685
13232TIP3    H161187   5.057   6.818   5.206  0.5184  0.9378  1.6083
13232TIP3    H261188   4.952   6.925   5.224 -0.6711 -0.3568  2.5592
13233TIP3   OH261189   0.298   1.743  15.301 -0.1938  0.0426  0.0437
13233TIP3    H161190   0.335   1.687  15.233  0.0317  0.0431  0.1663
13233TIP3    H261191   0.332   1.707  15.383 -1.8575 -1.0554  0.3059
13234TIP3   OH261192   1.386   5.318  13.968  0.1189  0.2046 -0.0421
13234TIP3    H161193   1.357   5.304  13.878  0.6935 -0.6154 -0.1128
13234TIP3    H261194   1.378   5.232  14.009 -1.0554  0.7811  0.9663
13235TIP3   OH261195   4.332   2.980   0.319  0.6327 -0.1888  0.2786
13235TIP3    H161196   4.407   3.010   0.370 -0.2929 -0.7734  2.0859
13235TIP3    H261197   4.277   2.933   0.382 -1.1502  0.0291 -1.0133
13236TIP3   OH261198   4.914   3.023  14.756  0.3001  0.1514 -0.2479
13236TIP3    H161199   4.835   3.046  14.805  1.1306 -0.0961  1.2799
13236TIP3    H261200   4.948   3.107  14.725  0.7505  0.5539  1.2307
13237TIP3   OH261201   0.040   6.246  14.005 -0.2648  0.2954 -0.2770
13237TIP3    H161202   0.112   6.209  14.056  1.0983  1.8211 -1.0060
13237TIP3    H261203   0.068   6.235  13.914 -0.9412  0.9202 -0.5644
13238TIP3   OH261204   5.703   4.928   4.007 -0.1457  0.2458  0.1804
13238TIP3    H161205   5.711   5.015   3.969  3.1297 -0.3310 -0.7581
13238TIP3    H261206   5.677   4.943   4.098  1.1965  2.2738  0.2916
13239TIP3   OH261207   1.172   3.971  16.284 -0.1891 -0.1247 -0.0408
13239TIP3    H161208   1.243   3.908  16.270 -0.5802 -0.3311 -1.2463
13239TIP3    H261209   1.212   4.056  16.265  0.6340  0.1619  2.6439
13240TIP3   OH261210   0.209   1.765  13.099 -0.7303 -0.1539 -0.2691
13240TIP3    H161211   0.153   1.708  13.151  1.2643 -0.0371  2.2119
13240TIP3    H261212   0.288   1.713  13.082 -0.2586  0.7249 -0.8639
13241TIP3   OH261213   0.323   1.117   4.049  0.5376  0.1181  0.1310
13241TIP3    H161214   0.242   1.161   4.076  1.1972  0.7007  1.2443
13241TIP3    H261215   0.329   1.136   3.956 -0.9591 -0.5266 -0.1339
13242TIP3   OH261216   0.649   4.961   0.407  0.0373 -0.2152 -0.0969
13242TIP3    H161217   0.637   4.995   0.495  0.2341 -0.9708  0.2348
13242TIP3    H261218   0.695   4.878   0.420  0.3672 -0.1712 -0.9323
13243TIP3   OH261219   0.268   2.357   6.081  0.2296  0.1661  0.7023
13243TIP3    H161220   0.352   2.353   6.127  0.5743  0.2942  0.1099
13243TIP3    H261221   0.290   2.334   5.990 -0.4064  0.0439  0.5723
13244TIP3   OH261222   3.372   2.230  14.570  0.0037  0.3600 -0.1603
13244TIP3    H161223   3.419   2.147  14.568  0.1922  0.4411  0.5394
13244TIP3    H261224   3.344   2.239  14.661 -0.8384  0.6124 -0.4357
13245TIP3   OH261225   3.479   4.108   2.528  0.2638  0.0213  0.1598
13245TIP3    H161226   3.509   4.051   2.458 -1.2517 -1.7737  0.8995
13245TIP3    H261227   3.388   4.083   2.542  0.0216  1.5612  1.5771
13246TIP3   OH261228   0.536   4.072   3.421 -0.3821 -0.1154  0.2118
13246TIP3    H161229   0.627   4.070   3.391 -0.2765 -1.7542  0.5374
13246TIP3    H261230   0.535   4.141   3.488  0.1756  1.1481 -1.0219
13247TIP3   OH261231   2.950   0.231   0.469 -0.3046  0.6470 -0.2420
13247TIP3    H161232   2.961   0.240   0.374  0.6364  1.9973 -0.0420
13247TIP3    H261233   2.915   0.143   0.481  0.9206 -0.1122 -1.7564
13248TIP3   OH261234   0.464   3.800  16.633  0.0450  0.5058  0.4719
13248TIP3    H161235   0.454   3.781  16.540 -0.0244 -0.8073  0.7273
13248TIP3    H261236   0.464   3.896  16.638 -0.7943  0.6011 -0.7816
13249TIP3   OH261237   5.835   3.900  14.659  0.2565 -0.1136 -0.2051
13249TIP3    H161238   5.865   3.821  14.615  0.6559  0.9388 -1.9074
13249TIP3    H261239   5.902   3.966  14.639 -0.3059  0.7814  0.7592
13250TIP3   OH261240   5.501   1.730   1.711  0.0131  0.0134 -0.2661
13250TIP3    H161241   5.533   1.730   1.621 -1.1624  1.6681 -0.7253
13250TIP3    H261242   5.426   1.671   1.710 -0.2969  0.4019 -0.5120
13251TIP3   OH261243   5.513   1.459   0.789 -0.5732 -0.0046  0.6367
13251TIP3    H161244   5.452   1.387   0.774 -1.2071  0.8421 -1.2308
13251TIP3    H261245   5.480   1.530   0.733  2.0824  0.4969 -0.4304
13252TIP3   OH261246   4.201   2.609  14.084 -0.1644 -0.2655  0.0171
13252TIP3    H161247   4.173   2.627  13.994 -0.9331  0.5766  0.4003
13252TIP3    H261248   4.241   2.691  14.113  1.4224 -1.0004 -0.0321
13253TIP3   OH261249   4.731   3.292   3.709  0.5277 -0.7964  0.1375
13253TIP3    H161250   4.639   3.314   3.717  0.7240 -0.0594  0.4654
13253TIP3    H261251   4.732   3.204   3.672 -0.2976 -0.4969 -0.6306
13254TIP3   OH261252   4.641   0.081   5.704  0.3822 -0.5124 -0.5619
13254TIP3    H161253   4.672  -0.009   5.695 -0.2728 -0.7178 -0.8755
13254TIP3    H261254   4.545   0.072   5.709  0.3793  0.0601  0.7616
13255TIP3   OH261255   2.655   0.093   2.272 -0.2521 -0.1559 -0.4192
13255TIP3    H161256   2.606   0.027   2.224 -0.7852  0.3302 -0.5560
13255TIP3    H261257   2.685   0.049   2.351 -1.2341 -0.3610 -0.1509
13256TIP3   OH261258   5.536   4.296  16.126  0.0374  0.7849  0.3460
13256TIP3    H161259   5.545   4.378  16.078  0.6998  1.0858  0.9694
13256TIP3    H261260   5.532   4.229  16.058  2.0246  1.0986 -0.1469
13257TIP3   OH261261   6.094   2.924  11.073 -0.6069 -0.2473  0.2691
13257TIP3    H161262   6.156   2.919  11.146 -1.7034 -1.5407  1.1583
13257TIP3    H261263   6.123   2.856  11.012 -1.2851 -1.0530  0.8220
13258TIP3   OH261264   0.265   2.694  13.384  0.2601  0.4638  0.0733
13258TIP3    H161265   0.315   2.632  13.331  0.2557  1.6580 -1.4076
13258TIP3    H261266   0.178   2.695  13.343 -0.6534 -0.6753  1.8670
13259TIP3   OH261267   2.309   0.780   2.456  0.4847 -0.6644  0.2509
13259TIP3    H161268   2.222   0.806   2.424  1.1864  0.6075 -0.7075
13259TIP3    H261269   2.312   0.686   2.441 -0.3064 -0.5481 -0.7824
13260TIP3   OH261270   6.466   4.018  14.666 -0.0555 -0.2545  0.3142
13260TIP3    H161271   6.410   4.085  14.705 -2.1967 -2.0209  0.4270
13260TIP3    H261272   6.544   4.018  14.722 -1.1195  0.3511  1.8913
13261TIP3   OH261273   0.585   0.433   0.615 -0.6648  0.0974  0.1700
13261TIP3    H161274   0.592   0.519   0.575  1.1531 -0.1681 -0.1571
13261TIP3    H261275   0.651   0.433   0.685 -0.3370 -1.1625 -0.1135
13262TIP3   OH261276   4.221   0.221  12.518 -0.2247 -0.3371 -0.1441
13262TIP3    H161277   4.292   0.271  12.478 -0.1063 -0.9130 -0.6674
13262TIP3    H261278   4.264   0.163  12.581 -0.5159  1.4213  1.7676
13263TIP3   OH261279   0.932   1.896  11.378 -0.2678  0.0804 -0.0925
13263TIP3    H161280   0.911   1.865  11.466 -1.6785 -0.6080 -0.6597
13263TIP3    H261281   1.017   1.939  11.389 -0.1274 -0.5119  1.4828
13264TIP3   OH261282   1.537   0.724   4.616  0.4419  0.5728 -0.0645
13264TIP3    H161283   1.628   0.750   4.604  0.5612  1.2331  1.8904
13264TIP3    H261284   1.508   0.695   4.529  1.6882  2.8623 -1.3246
13265TIP3   OH261285   6.458   3.996  13.549 -0.2235  0.2369  0.3082
13265TIP3    H161286   6.370   3.978  13.583  0.3032 -1.8560  0.7065
13265TIP3    H261287   6.510   3.921  13.577  1.3178  0.6594 -1.2698
13266TIP3   OH261288   6.600   3.738  14.575  0.5815  0.1825  0.4845
13266TIP3    H161289   6.516   3.693  14.560  1.1861 -0.5702 -0.9085
13266TIP3    H261290   6.575   3.827  14.601 -0.7024  0.4754 -1.4703
13267TIP3   OH261291   4.174   4.102  13.540  0.6633  0.2288  0.1499
13267TIP3    H161292   4.123   4.183  13.531  1.1542  0.6104  0.6483
13267TIP3    H261293   4.238   4.107  13.469 -0.1158 -0.3587 -0.6129
13268TIP3   OH261294   1.220   4.540  12.033 -0.2190 -0.0093  0.0558
13268TIP3    H161295   1.263   4.515  11.951 -3.1878  1.2348 -2.0662
13268TIP3    H261296   1.242   4.632  12.044  0.7694 -0.3491  1.1454
13269TIP3   OH261297   3.960   2.662   3.565 -0.5335 -0.2369  0.0887
13269TIP3    H161298   3.877   2.707   3.578  0.0537  1.3052 -1.1333
13269TIP3    H261299   3.951   2.619   3.480  0.2460  0.8330 -0.5698
13270TIP3   OH261300   5.157   4.729   3.001 -0.0885  0.5951 -0.5202
13270TIP3    H161301   5.092   4.758   2.937  0.7823  0.8454 -1.3079
13270TIP3    H261302   5.213   4.805   3.014  0.1473  0.3285  0.0330
13271TIP3   OH261303   4.675   3.811  16.089 -0.0433  0.2682  0.1218
13271TIP3    H161304   4.734   3.750  16.044 -1.6071 -0.5630 -0.9466
13271TIP3    H261305   4.682   3.787  16.182 -0.0267 -1.0461 -0.1899
13272TIP3   OH261306   3.383   2.830  13.513 -0.4088  0.5406 -0.2820
13272TIP3    H161307   3.418   2.882  13.441 -1.1591  1.5717  0.0645
13272TIP3    H261308   3.288   2.833  13.501 -0.4613 -2.3131 -1.2784
13273TIP3   OH261309   4.214   2.681  16.875  0.4213 -0.7325 -0.2557
13273TIP3    H161310   4.182   2.597  16.844  1.0243 -1.3793  0.8312
13273TIP3    H261311   4.298   2.692  16.831  0.8786 -1.2515  0.4639
13274TIP3   OH261312   5.386   5.949   1.179  0.2650  0.2747  0.1907
13274TIP3    H161313   5.336   5.930   1.259  1.2193 -1.1633  0.4875
13274TIP3    H261314   5.326   5.928   1.108  0.1349 -0.5592  0.5382
13275TIP3   OH261315   5.821   1.246   0.492 -0.0914 -0.6060  0.1527
13275TIP3    H161316   5.867   1.163   0.504  2.9450  0.7913 -0.8940
13275TIP3    H261317   5.798   1.273   0.581  1.5612 -1.1749  0.7829
13276TIP3   OH261318   6.101   1.647   2.115  0.6056 -0.1622  1.1334
13276TIP3    H161319   6.009   1.675   2.109  0.6359 -0.2690 -0.0638
13276TIP3    H261320   6.098   1.552   2.107  0.8365 -0.1413  0.7593
13277TIP3   OH261321   4.890   4.500   4.572  0.5098 -0.2071  0.3402
13277TIP3    H161322   4.961   4.436   4.579  0.0193 -0.8174 -0.1068
13277TIP3    H261323   4.831   4.478   4.643 -0.2740 -1.0471 -0.5531
13278TIP3   OH261324   4.484   3.175   0.975 -0.4313 -0.0012 -0.0946
13278TIP3    H161325   4.392   3.201   0.962 -0.6685 -0.4035  0.6990
13278TIP3    H261326   4.481   3.114   1.048  0.6252  0.9606  0.7924
13279TIP3   OH261327   3.939   1.452  16.664 -0.1741  0.1324 -0.5280
13279TIP3    H161328   3.987   1.392  16.720 -0.3600  0.6306  0.1841
13279TIP3    H261329   3.878   1.496  16.723 -1.7093 -0.6855 -1.4566
13280TIP3   OH261330   3.529   3.312  13.945  0.5768  0.0292 -0.0008
13280TIP3    H161331   3.511   3.382  13.882  0.7743 -0.0327 -0.1266
13280TIP3    H261332   3.617   3.330  13.978  0.3059  0.3079  0.5893
13281TIP3   OH261333   5.638   6.687   0.787  0.2252 -0.2778 -0.0094
13281TIP3    H161334   5.554   6.644   0.769  0.7910 -1.5650  0.3666
13281TIP3    H261335   5.648   6.682   0.882  0.7414 -0.1642 -0.0555
13282TIP3   OH261336   3.738   4.465  11.117 -0.1871 -0.3858 -0.1749
13282TIP3    H161337   3.801   4.517  11.167  0.6436 -0.6436 -0.9226
13282TIP3    H261338   3.790   4.393  11.081 -0.7448 -0.1805 -1.4319
13283TIP3   OH261339   6.661   3.631   5.683  0.3154  0.1222 -0.5782
13283TIP3    H161340   6.656   3.711   5.631 -1.3295  0.9810  0.8029
13283TIP3    H261341   6.733   3.646   5.744  0.6524  0.1341 -0.9778
13284TIP3   OH261342   2.378   1.221  15.677 -0.2225 -0.3296  0.3277
13284TIP3    H161343   2.394   1.263  15.592 -2.2258  0.3781  0.2465
13284TIP3    H261344   2.373   1.128  15.657  0.8381 -0.3179 -0.0640
13285TIP3   OH261345   6.505   0.211  11.984 -0.7780 -0.3663 -0.5758
13285TIP3    H161346   6.470   0.146  12.045 -2.1036 -0.4243 -1.3562
13285TIP3    H261347   6.513   0.163  11.901 -0.4657  0.1071 -0.8190
13286TIP3   OH261348   3.219   4.524   2.017 -0.1532  0.4797 -0.1017
13286TIP3    H161349   3.232   4.599   2.075 -0.2692 -0.7336  1.5748
13286TIP3    H261350   3.290   4.532   1.952  0.9817  1.0383  1.1469
13287TIP3   OH261351   2.884   3.115   2.987  0.4529  0.3392 -0.4352
13287TIP3    H161352   2.965   3.151   3.023  0.4957  0.2266 -0.4154
13287TIP3    H261353   2.887   3.022   3.013 -0.1910  0.5663  0.4786
13288TIP3   OH261354   5.605   6.356   0.626  0.0631 -0.3656 -0.2812
13288TIP3    H161355   5.556   6.299   0.686 -0.8074  0.9797  0.3473
13288TIP3    H261356   5.547   6.431   0.614  2.9021  2.5776  2.5155
13289TIP3   OH261357   6.376   4.669  16.959 -0.2102 -0.3510 -0.8700
13289TIP3    H161358   6.462   4.629  16.967  0.1364  0.2982 -1.2675
13289TIP3    H261359   6.321   4.622  17.023  0.8653  0.4261  0.6682
13290TIP3   OH261360   4.629   4.300  16.489  0.5754  0.4231 -0.4217
13290TIP3    H161361   4.616   4.376  16.431  0.5662  0.0357 -0.9402
13290TIP3    H261362   4.665   4.233  16.431  0.4604 -0.0109  0.0102
13291TIP3   OH261363   3.094   5.446   5.023  0.7108 -0.0014 -0.7960
13291TIP3    H161364   3.143   5.484   4.950  0.9239 -0.0273 -0.6670
13291TIP3    H261365   3.004   5.441   4.991  0.9130 -0.6056 -1.2988
13292TIP3   OH261366   5.382   4.766  15.954  0.4410 -0.1277  0.2120
13292TIP3    H161367   5.431   4.685  15.946  0.7396  0.0060  0.6340
13292TIP3    H261368   5.337   4.759  16.038  0.9278  0.3868  0.5222
13293TIP3   OH261369   4.885   0.801  16.605 -0.5203 -0.6571  0.3937
13293TIP3    H161370   4.970   0.836  16.576 -0.8656 -0.6058 -0.5686
13293TIP3    H261371   4.826   0.818  16.533 -0.8215 -2.8029  0.0807
13294TIP3   OH261372   5.800   5.654   5.254  0.0133  0.3145 -0.2819
13294TIP3    H161373   5.852   5.726   5.217  0.4904 -0.2949 -0.8160
13294TIP3    H261374   5.863   5.583   5.266 -0.5817 -0.2286 -0.3608
13295TIP3   OH261375   0.165   2.791  11.877  0.5308 -0.1922 -0.1910
13295TIP3    H161376   0.149   2.800  11.971  0.1265 -0.8339 -0.1902
13295TIP3    H261377   0.119   2.710  11.852  0.3979  0.1185 -0.9925
13296TIP3   OH261378   3.675   3.603  16.972  0.3886  0.2256 -0.7938
13296TIP3    H161379   3.644   3.515  16.950 -0.1919  0.2817 -0.2173
13296TIP3    H261380   3.598   3.649  17.003  0.8527  0.6825 -0.2866
13297TIP3   OH261381   2.315   5.697   0.169  0.2101 -0.8680  0.0235
13297TIP3    H161382   2.382   5.650   0.218  0.2558 -0.7870  0.0389
13297TIP3    H261383   2.273   5.755   0.233  1.7781  0.9140 -0.4693
13298TIP3   OH261384   4.424   2.414   4.449 -0.3149  0.1532  0.0020
13298TIP3    H161385   4.474   2.425   4.530 -0.3349 -0.0007  0.0352
13298TIP3    H261386   4.352   2.478   4.457  0.6168  1.3301 -0.6422
13299TIP3   OH261387   5.951   5.853  10.681 -0.3282 -0.1745 -0.0216
13299TIP3    H161388   5.869   5.874  10.725 -1.4636 -0.9807 -1.6496
13299TIP3    H261389   5.925   5.805  10.603  1.7738 -1.6604  0.0921
13300TIP3   OH261390   6.792   5.034  16.952 -0.3768 -0.5850  0.1201
13300TIP3    H161391   6.733   5.033  17.027 -1.2992  2.0208 -0.4604
13300TIP3    H261392   6.878   5.015  16.989 -1.0969 -1.2796  1.5107
13301TIP3   OH261393   6.378   2.921   0.560 -0.0777 -0.1870  0.3360
13301TIP3    H161394   6.442   2.887   0.497 -0.0584 -0.5312  0.5404
13301TIP3    H261395   6.368   2.851   0.624 -0.7766 -0.1925  0.2255
13302TIP3   OH261396   1.514   6.821  10.746  0.8076 -0.2602 -0.0092
13302TIP3    H161397   1.420   6.800  10.743  1.0085 -1.0975 -1.0619
13302TIP3    H261398   1.530   6.868  10.664  1.2574  0.0742  0.2723
13303TIP3   OH261399   5.229   5.074   1.656  0.3714 -0.0415 -0.3021
13303TIP3    H161400   5.249   5.129   1.580  0.0311  2.4557  1.3067
13303TIP3    H261401   5.145   5.034   1.635 -0.2226  1.4309 -0.8632
13304TIP3   OH261402   1.466   1.185   1.755  0.0119  0.5401 -1.0410
13304TIP3    H161403   1.526   1.255   1.781 -1.7866  1.7719  0.0020
13304TIP3    H261404   1.492   1.164   1.666  1.7365  1.2884 -0.7664
13305TIP3   OH261405   3.567   6.383   5.302 -0.1364 -0.0149  0.0276
13305TIP3    H161406   3.515   6.328   5.243  0.2611 -0.2218 -0.1355
13305TIP3    H261407   3.652   6.389   5.259  0.3315 -0.6159  0.8485
13306TIP3   OH261408   2.344   4.041  16.003 -0.0037  0.4502 -0.1146
13306TIP3    H161409   2.249   4.034  15.995 -0.0439  1.2646 -0.4348
13306TIP3    H261410   2.378   3.979  15.939 -0.3170  0.0558  0.0973
13307TIP3   OH261411   2.462   0.574  13.030  0.0931  0.5689  0.2808
13307TIP3    H161412   2.545   0.621  13.035  1.1430 -1.1601 -0.0497
13307TIP3    H261413   2.484   0.483  13.051 -1.8181  0.1604  0.7186
13308TIP3   OH261414   3.818   5.267   4.827 -0.4938  0.1254 -0.2851
13308TIP3    H161415   3.820   5.238   4.735 -0.1406 -0.8679  0.0130
13308TIP3    H261416   3.901   5.313   4.839  0.0247 -0.8197 -0.1497
13309TIP3   OH261417   4.773   4.243   6.021 -0.1738  0.0224 -0.5426
13309TIP3    H161418   4.812   4.157   6.009 -1.8600 -0.6457 -1.6057
13309TIP3    H261419   4.728   4.239   6.105  0.3998  0.1481 -0.2239
13310TIP3   OH261420   2.279   1.527  11.551  0.0782  0.1106  0.3923
13310TIP3    H161421   2.251   1.577  11.475 -0.6043 -0.7097  0.0859
13310TIP3    H261422   2.204   1.533  11.612 -0.3694 -1.2199  0.0030
13311TIP3   OH261423   0.859   1.631  12.584  0.3503 -0.3489  0.5184
13311TIP3    H161424   0.802   1.679  12.523  0.1638 -1.0392  0.1345
13311TIP3    H261425   0.798   1.586  12.643  0.4728 -1.1467  0.0634
13312TIP3   OH261426   2.096   2.669   1.694 -0.1104  0.1068  0.8381
13312TIP3    H161427   2.062   2.622   1.618  0.5420 -0.1273  0.6798
13312TIP3    H261428   2.189   2.681   1.675 -0.0755  0.6149  1.3134
13313TIP3   OH261429   4.863   4.932  13.419  0.0880  0.2520  0.6427
13313TIP3    H161430   4.942   4.935  13.364  0.4280 -2.4684  0.8564
13313TIP3    H261431   4.863   5.016  13.465  1.8253  1.0790 -0.7470
13314TIP3   OH261432   2.353   6.643   5.418  0.1234 -0.2466  0.0270
13314TIP3    H161433   2.275   6.587   5.420  0.1587 -0.4418 -1.7913
13314TIP3    H261434   2.420   6.590   5.375  0.7091  0.5509 -0.0760
13315TIP3   OH261435   4.910   1.964  13.368 -0.4023 -0.0802  0.1191
13315TIP3    H161436   4.844   1.949  13.435  0.4105  0.0186  0.9591
13315TIP3    H261437   4.994   1.961  13.415  0.3086 -1.6911 -1.1464
13316TIP3   OH261438   4.595   0.157  14.833 -0.4004 -0.2008 -0.1747
13316TIP3    H161439   4.622   0.067  14.854 -0.2113  0.2865  1.8574
13316TIP3    H261440   4.502   0.160  14.856 -0.4588  0.0641 -0.4495
13317TIP3   OH261441   5.360   3.161  16.002  0.1570  0.4978 -0.3210
13317TIP3    H161442   5.323   3.076  16.028 -0.6880 -0.3134 -3.7019
13317TIP3    H261443   5.455   3.146  16.002  0.0406 -0.3396 -0.4281
13318TIP3   OH261444   2.545   2.158  15.586  0.0551  0.0192 -0.6715
13318TIP3    H161445   2.605   2.156  15.512  0.5202 -0.7023 -0.2728
13318TIP3    H261446   2.589   2.110  15.655 -0.8395 -0.2419 -0.2664
13319TIP3   OH261447   1.389   6.490  15.743 -0.0075  0.5287  0.1519
13319TIP3    H161448   1.351   6.438  15.814  0.5309  0.3713  0.3261
13319TIP3    H261449   1.443   6.556  15.786 -0.1784  0.8300 -0.0919
13320TIP3   OH261450   2.327   0.342  11.383  0.2256 -0.5117  0.7612
13320TIP3    H161451   2.287   0.384  11.459 -0.0487 -1.7109  1.2994
13320TIP3    H261452   2.399   0.400  11.359 -1.4437  1.3995  0.1039
13321TIP3   OH261453   1.844   5.408   5.155  0.2183 -0.3035  0.4129
13321TIP3    H161454   1.872   5.475   5.093 -0.6521 -0.6655 -0.3984
13321TIP3    H261455   1.890   5.430   5.236 -1.8039  2.6918  0.9077
13322TIP3   OH261456   6.278   3.194  15.236 -0.6778  0.4631  0.3198
13322TIP3    H161457   6.315   3.108  15.217 -0.1625  0.4635  1.2501
13322TIP3    H261458   6.202   3.201  15.178  0.7423  0.4658 -1.6612
13323TIP3   OH261459   1.368   1.473  12.196  0.0702  0.1013  0.3819
13323TIP3    H161460   1.314   1.428  12.261  0.2755 -1.7747 -0.6626
13323TIP3    H261461   1.424   1.531  12.247 -0.1519 -0.9018  1.8479
13324TIP3   OH261462   4.086   0.236   2.054  0.1069 -0.0049  0.3590
13324TIP3    H161463   4.029   0.183   1.997  0.4149 -1.5488  1.4137
13324TIP3    H261464   4.045   0.322   2.055 -0.1033 -0.0205 -1.8910
13325TIP3   OH261465   0.558   2.192  14.594 -0.1463 -0.2272  0.2580
13325TIP3    H161466   0.502   2.148  14.658 -0.2213 -1.4851 -0.6296
13325TIP3    H261467   0.518   2.170  14.509  1.3004 -0.5918 -0.3513
13326TIP3   OH261468   5.059   3.064  12.210 -0.1208 -0.3800  0.3370
13326TIP3    H161469   5.032   2.981  12.250 -1.0037  0.8679  2.4590
13326TIP3    H261470   5.155   3.059  12.209 -0.1763 -1.8683 -0.6198
13327TIP3   OH261471   1.016   3.537   1.304  0.0173  0.4135  0.2956
13327TIP3    H161472   1.045   3.483   1.230  2.3869  1.0716  0.6689
13327TIP3    H261473   1.026   3.627   1.273  0.0603  0.6766  1.0517
13328TIP3   OH261474   5.311   0.311   5.598  0.1319 -0.1037  0.2530
13328TIP3    H161475   5.388   0.275   5.554 -0.0758 -0.1695 -0.0541
13328TIP3    H261476   5.289   0.246   5.665  0.3172 -0.1037  0.3139
13329TIP3   OH261477   1.948   4.872   2.545 -0.2784 -0.4475  0.6394
13329TIP3    H161478   1.903   4.815   2.483 -0.8053 -0.3805  0.9581
13329TIP3    H261479   2.027   4.900   2.498 -0.0830 -1.3170  0.4218
13330TIP3   OH261480   2.737   3.784  14.939 -0.0726  0.3363  0.4451
13330TIP3    H161481   2.805   3.824  14.993 -0.8637 -0.3043  1.9922
13330TIP3    H261482   2.783   3.717  14.888  0.7867  1.3408 -0.1278
13331TIP3   OH261483   5.783   2.699   5.451 -0.1763  0.1347  0.2280
13331TIP3    H161484   5.879   2.698   5.450 -0.1808 -0.9674 -0.9400
13331TIP3    H261485   5.759   2.632   5.515 -0.1551 -0.9562 -0.8812
13332TIP3   OH261486   1.023   0.683   3.066  0.0727 -0.4881 -0.4308
13332TIP3    H161487   1.100   0.726   3.030  2.1142 -2.4582  1.2579
13332TIP3    H261488   1.018   0.599   3.019  0.4818 -1.4243  1.1138
13333TIP3   OH261489   0.764   3.307   2.292 -0.3945  0.1585 -0.2637
13333TIP3    H161490   0.685   3.265   2.260 -0.6703  1.2593 -1.1060
13333TIP3    H261491   0.735   3.393   2.322  0.5947  0.9894 -1.5478
13334TIP3   OH261492   3.345   4.546  13.132  0.4996  0.2187 -0.3372
13334TIP3    H161493   3.325   4.454  13.116  0.5530  0.3975 -1.5670
13334TIP3    H261494   3.322   4.561  13.223 -1.9422 -0.3838 -0.7783
13335TIP3   OH261495   0.611   2.687  16.453  0.0072  0.4042 -0.0980
13335TIP3    H161496   0.622   2.717  16.543  0.6704 -1.2294  0.4091
13335TIP3    H261497   0.651   2.755  16.400  0.6126  0.8728  0.9275
13336TIP3   OH261498   6.091   5.899   1.832  0.2110 -0.2578 -0.6819
13336TIP3    H161499   6.150   5.948   1.775  1.7861 -2.4254 -1.0078
13336TIP3    H261500   6.148   5.854   1.893 -1.1947 -1.4284 -0.1657
13337TIP3   OH261501   3.209   4.484  11.753  0.1299 -0.3805  0.9962
13337TIP3    H161502   3.150   4.555  11.728  1.3297  0.5921  0.8064
13337TIP3    H261503   3.219   4.432  11.673 -0.1846 -0.3550  0.9378
13338TIP3   OH261504   4.561   3.743   0.520  0.2953 -0.0148  0.6450
13338TIP3    H161505   4.623   3.703   0.581  0.0448  0.6182  1.3306
13338TIP3    H261506   4.499   3.674   0.499 -0.5411  0.1561  2.3559
13339TIP3   OH261507   4.842   5.807   0.176 -0.6046  0.6635 -0.5243
13339TIP3    H161508   4.875   5.870   0.240 -0.4192  0.0008  0.0540
13339TIP3    H261509   4.894   5.728   0.193 -1.6761 -0.0263 -0.3974
13340TIP3   OH261510   0.689   6.713   4.146  0.3717 -0.0853 -0.0434
13340TIP3    H161511   0.778   6.683   4.168 -0.6310 -2.1496  1.6154
13340TIP3    H261512   0.651   6.640   4.097  0.0169  1.4119 -2.1449
13341TIP3   OH261513   6.818   1.339   4.907 -0.0931  0.6557 -0.5258
13341TIP3    H161514   6.848   1.319   4.818  1.6638 -0.0088  0.1601
13341TIP3    H261515   6.795   1.254   4.944 -0.3324  0.8658 -0.1861
13342TIP3   OH261516   1.504   0.082  13.171  0.0818  0.1355 -0.3733
13342TIP3    H161517   1.460   0.003  13.139 -0.5375  0.9719 -1.6525
13342TIP3    H261518   1.477   0.151  13.111  0.2468  1.4382  0.9761
13343TIP3   OH261519   1.788   0.494  15.266 -0.9076  0.3051 -0.1555
13343TIP3    H161520   1.772   0.440  15.189  1.7330 -0.9194  0.0575
13343TIP3    H261521   1.803   0.582  15.231  1.5698 -0.4816 -1.2810
13344TIP3   OH261522   0.724   5.218   3.076  0.8569 -0.6634  0.0051
13344TIP3    H161523   0.751   5.273   3.150 -1.6385 -0.6784  1.0177
13344TIP3    H261524   0.766   5.134   3.093  0.2126 -0.7156  1.5373
13345TIP3   OH261525   5.006   1.347  14.923  0.9765 -0.1645 -0.3881
13345TIP3    H161526   5.086   1.371  14.875  0.5648  1.1042 -0.4706
13345TIP3    H261527   4.990   1.421  14.981 -1.9412  1.2009 -2.6735
13346TIP3   OH261528   6.152   3.032   6.839 -0.2546  0.2548  0.1434
13346TIP3    H161529   6.234   3.026   6.888  0.0195 -0.9793 -0.4372
13346TIP3    H261530   6.093   3.081   6.897  1.0989  1.8426  0.2468
13347TIP3   OH261531   4.409   3.447  13.118  0.0419  0.5903  0.0348
13347TIP3    H161532   4.330   3.500  13.128  1.0695  1.9947  1.0475
13347TIP3    H261533   4.478   3.510  13.096  0.7300 -0.7147 -1.8072
13348TIP3   OH261534   0.795   2.562   3.099 -0.5329  0.2541 -0.6909
13348TIP3    H161535   0.867   2.625   3.093 -0.7110  0.4209 -1.1439
13348TIP3    H261536   0.717   2.614   3.082 -0.7582  0.0673 -0.2365
13349TIP3   OH261537   3.675   2.557   0.986  0.3361 -0.3268  0.3699
13349TIP3    H161538   3.717   2.474   1.005  0.3723 -0.3615  0.1362
13349TIP3    H261539   3.732   2.623   1.026  1.9032 -0.1688 -1.8966
13350TIP3   OH261540   4.914   4.690   0.895 -0.1247  0.1180  0.0798
13350TIP3    H161541   4.909   4.602   0.932  1.4458  0.1211  0.3659
13350TIP3    H261542   4.904   4.749   0.970  1.6466  0.1329  0.3485
13351TIP3   OH261543   3.562   3.776   6.671 -0.4365 -0.3539 -0.1235
13351TIP3    H161544   3.516   3.751   6.591  0.6249 -0.1249 -0.8266
13351TIP3    H261545   3.515   3.853   6.703 -0.6018 -0.1720 -0.7825
13352TIP3   OH261546   5.740   5.145   6.184 -0.1176 -0.5104  0.1280
13352TIP3    H161547   5.676   5.215   6.196 -0.7189 -1.0669  0.2371
13352TIP3    H261548   5.783   5.136   6.269  0.0711 -0.1730  0.0691
13353TIP3   OH261549   1.173   5.599   6.601 -0.1641  0.0689  0.1793
13353TIP3    H161550   1.223   5.542   6.659 -0.2023 -0.1990 -0.0467
13353TIP3    H261551   1.239   5.649   6.553 -0.1425  0.7959  0.9452
13354TIP3   OH261552   1.888   4.345   3.082  0.2273 -0.1000  1.0651
13354TIP3    H161553   1.861   4.436   3.099 -1.4046 -0.3426 -0.0362
13354TIP3    H261554   1.825   4.292   3.131  0.8109 -0.6644  1.2171
13355TIP3   OH261555   2.449   3.999   2.219  0.9744  0.2604  0.2232
13355TIP3    H161556   2.468   4.088   2.247  0.4414  0.9079 -1.3662
13355TIP3    H261557   2.508   3.984   2.146  0.7332 -0.5272  0.1821
13356TIP3   OH261558   4.591   5.320  12.632  0.4844 -0.1826 -0.4809
13356TIP3    H161559   4.499   5.307  12.656  0.5431 -0.1736 -0.2559
13356TIP3    H261560   4.591   5.316  12.536  0.3899 -1.0848 -0.4475
13357TIP3   OH261561   4.655   3.146  14.201 -0.1002  0.0832  0.1575
13357TIP3    H161562   4.603   3.151  14.120  1.4430  0.0466 -0.8695
13357TIP3    H261563   4.634   3.227  14.247  0.4871  1.0642 -1.2332
13358TIP3   OH261564   3.208   2.730  14.621 -0.3167 -0.4106  0.4099
13358TIP3    H161565   3.145   2.674  14.577 -0.2457 -0.5878  0.5300
13358TIP3    H261566   3.219   2.690  14.708  0.8374 -1.0596 -0.0136
13359TIP3   OH261567   5.420   6.347  15.282 -0.7231  0.1970  0.0820
13359TIP3    H161568   5.502   6.385  15.315 -0.9302 -0.0865  0.9244
13359TIP3    H261569   5.437   6.332  15.189 -0.2558  1.3226 -0.0301
13360TIP3   OH261570   3.853   3.162  12.973  0.2449 -0.8010 -0.2249
13360TIP3    H161571   3.869   3.152  13.067 -0.5559 -1.9958 -0.1990
13360TIP3    H261572   3.773   3.216  12.968  1.3969  0.9768 -0.2802
13361TIP3   OH261573   0.217   1.550   1.667 -0.3479  0.4529 -0.0148
13361TIP3    H161574   0.253   1.609   1.733  0.2860 -2.6513  2.6690
13361TIP3    H261575   0.122   1.565   1.672 -0.2673  0.7195  1.2366
13362TIP3   OH261576   1.552   5.833   6.311  0.3885  0.2221  0.7139
13362TIP3    H161577   1.496   5.902   6.276  0.1421 -0.1600  0.3540
13362TIP3    H261578   1.629   5.833   6.254 -0.2589 -0.7709 -0.1780
13363TIP3   OH261579   5.161   6.190  11.358  0.3144 -0.1460  0.0124
13363TIP3    H161580   5.247   6.148  11.365  1.3372  2.0095  1.8013
13363TIP3    H261581   5.139   6.214  11.448 -2.3522 -0.8626 -0.3584
13364TIP3   OH261582   1.465   6.209  11.889  0.1003 -0.2301 -0.6632
13364TIP3    H161583   1.471   6.241  11.979 -0.6711  0.8669 -0.9744
13364TIP3    H261584   1.523   6.133  11.886 -0.2282 -0.5614  0.8734
13365TIP3   OH261585   6.336   6.572   4.437 -0.5490  0.3331  0.8292
13365TIP3    H161586   6.291   6.645   4.396 -0.7156  0.0084  0.4282
13365TIP3    H261587   6.269   6.505   4.448 -0.3614  0.1782  1.0515
13366TIP3   OH261588   0.115   6.389   3.970 -0.3890 -0.0196  0.1974
13366TIP3    H161589   0.181   6.361   4.033  0.0793 -2.0423 -1.1249
13366TIP3    H261590   0.162   6.398   3.887 -1.2452  1.3361 -0.1832
13367TIP3   OH261591   4.848   4.253   0.394 -0.6033 -0.1171  0.3474
13367TIP3    H161592   4.763   4.263   0.436  0.3276 -1.1880  2.6894
13367TIP3    H261593   4.911   4.280   0.461  0.9231  1.8656 -1.7396
13368TIP3   OH261594   2.006   3.640  15.656  0.1725  0.2797 -0.6986
13368TIP3    H161595   1.948   3.618  15.583  0.1125  0.3289 -0.6657
13368TIP3    H261596   1.956   3.704  15.707 -0.3953 -0.8508  0.2131
13369TIP3   OH261597   1.126   4.767   0.052  0.4279  0.1996  0.2046
13369TIP3    H161598   1.052   4.717   0.087  1.5288 -1.1662  0.7081
13369TIP3    H261599   1.086   4.837   0.001 -1.2149 -0.9859 -0.2423
13370TIP3   OH261600   1.106   1.908  16.995 -0.1296 -0.1999 -0.2781
13370TIP3    H161601   1.075   1.983  17.046 -1.1296 -0.0081 -1.1435
13370TIP3    H261602   1.051   1.835  17.023  0.7156 -0.5931  0.4219
13371TIP3   OH261603   2.338   1.791  11.241  0.5737 -0.3757 -0.3807
13371TIP3    H161604   2.361   1.878  11.208  1.3029  0.0996  1.2818
13371TIP3    H261605   2.420   1.757  11.278 -0.2311 -0.7513  1.1340
13372TIP3   OH261606   2.084   4.496   3.645  0.0300 -0.5303 -0.5560
13372TIP3    H161607   2.030   4.511   3.568 -0.8025  0.6601  0.2270
13372TIP3    H261608   2.041   4.546   3.715  2.9530  1.8343 -0.2453
13373TIP3   OH261609   4.718   4.405   3.554  0.5017  0.0811 -0.5623
13373TIP3    H161610   4.641   4.352   3.572  1.0126  0.0895  2.0056
13373TIP3    H261611   4.712   4.425   3.460  0.0769 -4.1153 -1.6334
13374TIP3   OH261612   1.024   1.805  14.933 -0.1004 -0.7238 -0.2418
13374TIP3    H161613   1.059   1.893  14.949  0.3198 -0.9074 -0.1511
13374TIP3    H261614   1.082   1.747  14.981 -1.5508 -0.9000  1.3752
13375TIP3   OH261615   5.391   1.384  16.901 -0.3088  0.8402 -0.4207
13375TIP3    H161616   5.409   1.449  16.969 -2.4022  1.1387 -0.0659
13375TIP3    H261617   5.345   1.314  16.947  1.1790 -0.5505 -0.9606
13376TIP3   OH261618   1.425   3.389  14.569 -0.4059  0.2795  0.7898
13376TIP3    H161619   1.496   3.448  14.593 -2.5762  2.3759  2.5741
13376TIP3    H261620   1.411   3.334  14.646 -1.2002  0.4224  0.7616
13377TIP3   OH261621   0.309   3.427   2.591  0.1314 -0.3474  0.1404
13377TIP3    H161622   0.319   3.496   2.656  0.4391  0.3690 -0.6535
13377TIP3    H261623   0.216   3.403   2.596 -0.1016  0.5106  0.0409
13378TIP3   OH261624   4.903   5.937   1.855 -0.2889  0.9536 -0.0044
13378TIP3    H161625   4.876   6.015   1.905  0.6231  0.3178  1.5563
13378TIP3    H261626   4.876   5.863   1.910 -0.0236  0.1980 -0.8746
13379TIP3   OH261627   2.345   4.307  10.745 -0.3785 -0.1024  0.2091
13379TIP3    H161628   2.311   4.237  10.689  0.5727 -1.5610  1.3442
13379TIP3    H261629   2.440   4.306  10.730 -0.5283  2.8239 -1.7392
13380TIP3   OH261630   5.786   1.976  12.653 -0.2861 -0.2612  0.1777
13380TIP3    H161631   5.769   1.882  12.658  1.8628 -0.7922 -1.3018
13380TIP3    H261632   5.880   1.984  12.666 -0.2650  1.5784 -0.7853
13381TIP3   OH261633   1.361   1.248   4.657  0.0996  0.4455  0.1057
13381TIP3    H161634   1.397   1.160   4.668 -0.7351 -0.2050 -1.9416
13381TIP3    H261635   1.273   1.243   4.693  0.3855  0.7254  0.8576
13382TIP3   OH261636   5.731   3.230  16.687 -0.1782  0.0716  0.6463
13382TIP3    H161637   5.653   3.278  16.661 -1.0816 -1.3701  0.5558
13382TIP3    H261638   5.804   3.283  16.656 -1.1256 -0.9174 -3.8911
13383TIP3   OH261639   2.240   5.456  11.949  0.1237 -0.0673 -0.6716
13383TIP3    H161640   2.269   5.454  11.858 -0.3730 -0.1925 -0.8326
13383TIP3    H261641   2.320   5.449  12.000  0.4378  0.3751 -1.0959
13384TIP3   OH261642   1.592   3.049   1.916  0.2281  0.2648  0.2264
13384TIP3    H161643   1.516   3.006   1.956 -0.8587  1.7559 -0.1189
13384TIP3    H261644   1.585   3.028   1.823  1.3055 -1.1108  0.4436
13385TIP3   OH261645   0.746   1.126   2.943 -0.0324 -0.0020  0.2869
13385TIP3    H161646   0.793   1.053   2.903  2.0625  1.5340 -0.2736
13385TIP3    H261647   0.743   1.106   3.036 -1.0874 -1.6038 -0.0669
13386TIP3   OH261648   0.271   4.572   1.137 -0.3158 -1.1157  0.4587
13386TIP3    H161649   0.192   4.623   1.119  1.0171  2.1703  2.8654
13386TIP3    H261650   0.241   4.499   1.192 -1.6673  0.1808  1.5105
13387TIP3   OH261651   0.974   1.105  12.951  0.3265 -0.1217  0.0005
13387TIP3    H161652   0.954   1.199  12.948  0.4900  0.0057  1.6236
13387TIP3    H261653   1.027   1.095  13.030  1.6877 -1.3517 -1.0181
13388TIP3   OH261654   6.209   6.240   2.912 -0.3191 -0.2730  0.2129
13388TIP3    H161655   6.256   6.317   2.879  1.2644 -1.1005  0.4641
13388TIP3    H261656   6.195   6.258   3.005  0.2512 -0.3663  0.3225
13389TIP3   OH261657   5.767   0.504  14.218  0.1923  0.0281 -0.3143
13389TIP3    H161658   5.783   0.534  14.308  2.2102  2.0044 -1.2259
13389TIP3    H261659   5.855   0.490  14.182 -0.5089  0.5534 -2.3622
13390TIP3   OH261660   4.458   2.003  13.556  0.0296 -0.0357 -0.6980
13390TIP3    H161661   4.499   1.916  13.556  1.2879  0.4821 -2.9828
13390TIP3    H261662   4.510   2.054  13.494 -1.4891  1.9851 -0.4064
13391TIP3   OH261663   6.005   3.162  10.477 -0.0039 -0.4333 -0.1352
13391TIP3    H161664   6.031   3.114  10.398  0.2933 -0.9039  0.2452
13391TIP3    H261665   6.084   3.209  10.504  0.2010 -1.1191  0.4862
13392TIP3   OH261666   3.460   2.682   1.705 -0.3140  0.4593  0.2129
13392TIP3    H161667   3.546   2.712   1.674  0.0882  0.4268  1.2470
13392TIP3    H261668   3.475   2.657   1.796 -1.4018  0.3335  0.3720
13393TIP3   OH261669   3.932   0.623   2.969  0.3656  0.3735  0.2940
13393TIP3    H161670   3.940   0.642   3.062 -2.2530 -0.2387  0.7250
13393TIP3    H261671   3.882   0.541   2.966  0.2749  0.4593 -1.6403
13394TIP3   OH261672   0.666   1.007  12.485 -0.3060  0.6033  0.3384
13394TIP3    H161673   0.678   1.099  12.465  0.5992  0.6855  1.1998
13394TIP3    H261674   0.620   0.972  12.409  0.6407  1.4511 -0.6615
13395TIP3   OH261675   6.587   1.563   6.369 -0.1962 -0.3198  0.1504
13395TIP3    H161676   6.531   1.535   6.441 -0.4378  1.0452  0.5178
13395TIP3    H261677   6.542   1.638   6.331  1.7965  1.4119  1.0486
13396TIP3   OH261678   3.393   1.099  10.633 -0.4369 -0.3382  0.1091
13396TIP3    H161679   3.324   1.121  10.571  0.1690 -0.7002 -0.7039
13396TIP3    H261680   3.470   1.079  10.579  0.0571 -0.8260  0.9584
13397TIP3   OH261681   4.122   6.259   1.087  0.1578 -0.1553  0.1976
13397TIP3    H161682   4.109   6.245   1.181  1.4311 -1.9030  0.1474
13397TIP3    H261683   4.217   6.260   1.075  0.0145 -0.6467 -1.1708
13398TIP3   OH261684   5.970   2.756  15.927 -0.2061  0.1810  0.5251
13398TIP3    H161685   5.878   2.764  15.901 -0.4743 -3.1527 -0.0726
13398TIP3    H261686   5.977   2.666  15.960  2.5566  0.8083  1.9177
13399TIP3   OH261687   3.836   1.137  13.756  0.1236  0.5876  0.0923
13399TIP3    H161688   3.775   1.201  13.793 -0.9128 -0.4296  0.2147
13399TIP3    H261689   3.859   1.081  13.829  0.0311  0.0621 -0.2777
13400TIP3   OH261690   3.472   3.697  16.581  0.1448  0.3025  0.5494
13400TIP3    H161691   3.403   3.703  16.647 -2.6425 -0.8663 -2.0503
13400TIP3    H261692   3.490   3.603  16.574  0.4100  0.4121 -0.3356
13401TIP3   OH261693   6.630   3.850   1.009  0.1491 -0.1125  0.2589
13401TIP3    H161694   6.541   3.862   0.975  0.4655  1.0442 -0.2127
13401TIP3    H261695   6.637   3.914   1.080  0.8618  0.3905 -0.2457
13402TIP3   OH261696   3.050   2.433  13.672  0.3352 -0.2194  0.1214
13402TIP3    H161697   3.081   2.515  13.633  1.0960  0.5093  2.1139
13402TIP3    H261698   3.067   2.367  13.605 -0.1039  1.2014 -1.4500
13403TIP3   OH261699   5.471   4.900  12.825 -0.1528  0.6831  0.0189
13403TIP3    H161700   5.398   4.840  12.840  0.8596 -0.5563  0.1335
13403TIP3    H261701   5.539   4.871  12.885 -0.1206  2.8792  1.1333
13404TIP3   OH261702   2.149   3.845   0.235 -0.5296  0.2224  0.2642
13404TIP3    H161703   2.203   3.922   0.250  0.6918 -0.2249 -1.4736
13404TIP3    H261704   2.209   3.771   0.246 -1.0387 -0.3395 -0.6065
13405TIP3   OH261705   0.827   3.094  10.937 -0.0316  0.5863 -0.1652
13405TIP3    H161706   0.788   3.130  10.857 -1.1619  1.4581  0.7366
13405TIP3    H261707   0.887   3.162  10.966 -0.0305  0.5065  0.0194
13406TIP3   OH261708   5.295   2.155   5.451  0.0104 -0.4428 -0.0287
13406TIP3    H161709   5.225   2.106   5.409 -0.7277 -0.9444  1.6978
13406TIP3    H261710   5.256   2.239   5.473  0.8523  0.4224 -1.6793
13407TIP3   OH261711   4.903   2.168  13.186 -0.3714 -0.2376  0.2512
13407TIP3    H161712   4.928   2.079  13.211 -0.7561  0.1550  2.1707
13407TIP3    H261713   4.832   2.191  13.246 -1.4581  0.7604 -1.3373
13408TIP3   OH261714   1.019   3.816   2.496  0.0618  0.4107 -0.3061
13408TIP3    H161715   1.058   3.891   2.541  0.1709  0.6040 -0.7170
13408TIP3    H261716   0.951   3.853   2.440 -0.2830  0.1391 -0.0754
13409TIP3   OH261717   4.513   3.561   2.548  0.2752  0.0973  0.0410
13409TIP3    H161718   4.595   3.516   2.567 -0.3500 -0.4501  1.6361
13409TIP3    H261719   4.504   3.625   2.619 -0.0544  1.0643 -0.8403
13410TIP3   OH261720   6.149   0.986   3.536  0.4278  0.3582 -0.0618
13410TIP3    H161721   6.219   1.043   3.569  0.0458 -0.9483  3.4162
13410TIP3    H261722   6.176   0.898   3.562 -0.2248 -0.8184 -3.0666
13411TIP3   OH261723   4.836   3.133   4.295  0.0112 -0.3459  0.0035
13411TIP3    H161724   4.825   3.163   4.205 -0.2727 -0.2458  0.0697
13411TIP3    H261725   4.862   3.211   4.343  1.7422 -0.7160 -0.2764
13412TIP3   OH261726   3.850   2.990  16.463 -0.4689 -0.4948 -0.0180
13412TIP3    H161727   3.926   2.952  16.507  1.6208  0.3559 -2.6470
13412TIP3    H261728   3.785   2.920  16.464  1.6531 -2.6162 -0.7865
13413TIP3   OH261729   3.514   6.541   0.235 -0.4027  0.4827 -0.7165
13413TIP3    H161730   3.513   6.547   0.140 -0.6740 -1.9601 -0.9346
13413TIP3    H261731   3.431   6.499   0.257 -0.1515  0.6124  0.5700
13414TIP3   OH261732   5.612   3.364   4.733  0.0972  0.0579  0.4985
13414TIP3    H161733   5.545   3.319   4.786 -1.7775 -0.2009 -1.9061
13414TIP3    H261734   5.580   3.355   4.643  2.5603  1.4411 -0.5841
13415TIP3   OH261735   4.649   1.148  14.572 -0.4006  0.1969  0.1405
13415TIP3    H161736   4.559   1.117  14.571 -0.0810 -0.7734  0.3884
13415TIP3    H261737   4.665   1.174  14.663 -0.1604 -0.5008  0.3092
13416TIP3   OH261738   6.107   6.230  16.877  0.0546 -0.1825  0.8050
13416TIP3    H161739   6.082   6.154  16.824  0.9853 -0.4935  0.7904
13416TIP3    H261740   6.070   6.212  16.964 -0.1574 -0.4098  0.6689
13417TIP3   OH261741   4.195   3.221  14.069  0.2790 -0.6088 -0.6401
13417TIP3    H161742   4.263   3.287  14.082 -0.7213  0.4599 -0.7050
13417TIP3    H261743   4.155   3.212  14.156 -1.1376  0.6355 -1.1356
13418TIP3   OH261744   5.004   5.019   1.383 -0.0709 -0.3652  0.4110
13418TIP3    H161745   5.076   5.081   1.397  0.8923 -1.1058 -0.9347
13418TIP3    H261746   5.019   4.949   1.446  0.0689 -0.2439  0.5113
13419TIP3   OH261747   6.129   1.762  17.178 -0.3319  0.7643 -0.2738
13419TIP3    H161748   6.047   1.755  17.128  0.1164  0.4147 -0.9689
13419TIP3    H261749   6.123   1.693  17.244 -0.3184  0.3080 -0.7405
13420TIP3   OH261750   5.047   2.481   4.619 -0.2518 -0.0505 -0.0354
13420TIP3    H161751   5.004   2.416   4.563 -1.1995  0.6491 -0.1422
13420TIP3    H261752   5.011   2.465   4.706 -0.8852  0.6372 -0.1544
13421TIP3   OH261753   0.995   3.436  13.278 -0.7217 -0.4997 -0.3532
13421TIP3    H161754   0.970   3.424  13.186  0.2964  0.4639 -0.7814
13421TIP3    H261755   0.976   3.528  13.296  1.2315 -0.0414 -0.3366
13422TIP3   OH261756   1.182   6.201  16.141 -0.3326 -0.0918 -0.3450
13422TIP3    H161757   1.105   6.199  16.198 -0.2959 -0.5120 -0.3051
13422TIP3    H261758   1.233   6.124  16.167  0.4310  0.5332  0.0745
13423TIP3   OH261759   6.247   5.784   3.836  0.4499  0.4200  0.6631
13423TIP3    H161760   6.260   5.709   3.894 -0.0019 -0.9089 -0.8623
13423TIP3    H261761   6.153   5.800   3.838  0.5504  1.0050  1.0229
13424TIP3   OH261762   5.846   3.264   4.121  0.6327 -0.0885  0.1850
13424TIP3    H161763   5.841   3.358   4.134 -0.4318 -0.1716  0.5000
13424TIP3    H261764   5.860   3.229   4.210 -1.3138 -0.3477  0.4230
13425TIP3   OH261765   2.727   6.299  17.123 -0.5937 -0.2056 -0.9834
13425TIP3    H161766   2.643   6.296  17.167 -0.2627 -0.4408 -0.3489
13425TIP3    H261767   2.760   6.387  17.138 -0.5251 -0.2552 -0.8380
13426TIP3   OH261768   6.078   0.279   2.767 -0.0184  0.1736 -0.3077
13426TIP3    H161769   6.068   0.230   2.849 -0.9476  0.7654 -0.0547
13426TIP3    H261770   6.170   0.266   2.742  0.4129  0.4271  1.0971
13427TIP3   OH261771   0.252   2.590   0.541 -0.4690  0.1005  0.3560
13427TIP3    H161772   0.162   2.617   0.525 -0.0299  2.5628  1.5838
13427TIP3    H261773   0.282   2.557   0.456 -2.4650 -0.7254 -0.0852
13428TIP3   OH261774   0.437   6.088  14.976  0.0408 -0.4670 -0.3485
13428TIP3    H161775   0.457   5.995  14.964 -1.9499 -1.1205  0.9544
13428TIP3    H261776   0.382   6.111  14.901  0.7411 -0.2527 -0.8044
13429TIP3   OH261777   3.817   4.208  12.328 -0.2482 -0.2720  0.1534
13429TIP3    H161778   3.885   4.235  12.389  0.8963 -1.1504 -0.6910
13429TIP3    H261779   3.762   4.285  12.317  1.7587  1.1312 -0.6709
13430TIP3   OH261780   0.681   0.149  14.042  0.4530 -0.1979 -0.8529
13430TIP3    H161781   0.595   0.173  14.007  0.4933 -0.0107 -0.8287
13430TIP3    H261782   0.668   0.147  14.137  0.6145  0.4070 -0.8131
13431TIP3   OH261783   6.577   2.537  10.838  0.5659 -0.1177 -0.3650
13431TIP3    H161784   6.486   2.524  10.866  0.8882 -1.8823 -0.0103
13431TIP3    H261785   6.572   2.543  10.743  0.2168 -2.0926 -0.5137
13432TIP3   OH261786   4.343   3.184   6.213  0.6758 -0.1924  0.5710
13432TIP3    H161787   4.365   3.116   6.149  1.9741  1.6406 -1.0611
13432TIP3    H261788   4.248   3.192   6.208  0.5202 -1.6865  0.6246
13433TIP3   OH261789   2.483   0.443  11.800 -0.1401 -0.4146  0.3544
13433TIP3    H161790   2.559   0.490  11.835 -2.0942  0.5395  3.7396
13433TIP3    H261791   2.515   0.354  11.782  2.3343  0.6559 -1.0418
13434TIP3   OH261792   6.506   3.351  12.790  0.0176 -0.4472  0.1531
13434TIP3    H161793   6.542   3.439  12.790  0.8935 -0.7667 -1.1641
13434TIP3    H261794   6.462   3.344  12.705  1.0524 -1.6762 -0.3142
13435TIP3   OH261795   1.075   2.421  17.159  0.2717  0.0494  0.4109
13435TIP3    H161796   1.127   2.481  17.104  1.0972 -0.1488  0.9459
13435TIP3    H261797   0.989   2.462  17.165  0.9032  1.3594  1.0099
13436TIP3   OH261798   3.775   6.572   3.085 -0.7848  0.0158  0.0824
13436TIP3    H161799   3.811   6.638   3.144 -1.0757 -1.0935  1.5615
13436TIP3    H261800   3.847   6.511   3.070 -0.9840 -0.2086  0.0346
13437TIP3   OH261801   4.284   2.111  11.926  0.0758 -0.5028  0.2675
13437TIP3    H161802   4.229   2.039  11.958 -0.6336  0.1566  0.5630
13437TIP3    H261803   4.264   2.184  11.985  0.5117  0.0442 -0.2527
13438TIP3   OH261804   4.562   2.048   2.238 -0.4040 -0.1105 -0.7954
13438TIP3    H161805   4.577   1.976   2.299 -2.3193  0.4601  0.4370
13438TIP3    H261806   4.649   2.070   2.205  1.0892  0.7745  3.1531
13439TIP3   OH261807   6.799   5.652  14.048 -0.0439  0.2620 -0.5057
13439TIP3    H161808   6.891   5.672  14.062 -0.7883  3.2827  0.8357
13439TIP3    H261809   6.771   5.607  14.128  0.0965 -0.0089 -0.6087
13440TIP3   OH261810   6.585   6.209   0.182  0.7465 -0.0763 -0.3235
13440TIP3    H161811   6.598   6.286   0.238 -0.7171 -1.2516  1.7773
13440TIP3    H261812   6.490   6.205   0.169  0.6366 -2.1785  0.6837
13441TIP3   OH261813   4.339   3.563  13.910 -0.0883  0.2978  0.2372
13441TIP3    H161814   4.288   3.623  13.856  0.1604 -0.5263 -0.9515
13441TIP3    H261815   4.400   3.619  13.957  0.0345  0.9972 -0.7339
13442TIP3   OH261816   1.288   6.137   3.486 -0.1262  0.0865 -0.2534
13442TIP3    H161817   1.294   6.064   3.548  1.1719  0.2556 -0.1540
13442TIP3    H261818   1.347   6.114   3.415 -2.2140 -0.4831 -1.8957
13443TIP3   OH261819   3.281   5.214  13.980 -0.0288  0.3457  0.0363
13443TIP3    H161820   3.187   5.210  13.961  0.4117 -0.6782 -2.3218
13443TIP3    H261821   3.294   5.157  14.055 -1.3359  0.8834  0.6988
13444TIP3   OH261822   1.889   3.695  14.700 -0.4082 -0.6123  0.1047
13444TIP3    H161823   1.948   3.771  14.702 -1.9135  0.7227 -2.0211
13444TIP3    H261824   1.946   3.622  14.677  0.9232 -0.0144  1.2838
13445TIP3   OH261825   4.165   1.770  16.851 -0.0581  0.0138 -0.4473
13445TIP3    H161826   4.237   1.830  16.830 -0.1442  0.2830  0.0049
13445TIP3    H261827   4.134   1.739  16.766 -0.0365  0.6438 -0.6924
13446TIP3   OH261828   0.279   3.975   0.683  0.1738  0.4534  0.4508
13446TIP3    H161829   0.243   3.905   0.737 -0.2528  0.2771 -0.0414
13446TIP3    H261830   0.211   4.043   0.683 -0.8831 -0.5034 -1.6996
13447TIP3   OH261831   1.128   5.746   0.039  0.2368 -0.1384 -0.2689
13447TIP3    H161832   1.118   5.659   0.079  1.3376 -0.5830 -0.9456
13447TIP3    H261833   1.051   5.794   0.070 -0.3005 -1.2872  0.2678
13448TIP3   OH261834   0.881   3.989   2.336 -0.4444 -0.3183  0.1273
13448TIP3    H161835   0.903   3.960   2.247 -0.4232 -0.1025  0.0626
13448TIP3    H261836   0.909   4.080   2.340 -0.0488 -0.4492  0.4930
13449TIP3   OH261837   1.821   0.449   1.186 -0.5124 -0.4787  0.3561
13449TIP3    H161838   1.752   0.511   1.209 -1.4105 -1.2577 -0.1553
13449TIP3    H261839   1.902   0.497   1.202 -1.1227  1.8224 -2.4548
13450TIP3   OH261840   4.874   3.387  12.855 -0.1841  0.0630  0.3160
13450TIP3    H161841   4.950   3.437  12.826  0.1062 -0.2650  0.5088
13450TIP3    H261842   4.854   3.421  12.942 -0.3284  0.2283  0.2182
13451TIP3   OH261843   4.672   3.473   2.064  0.3102 -0.1799 -0.2128
13451TIP3    H161844   4.710   3.538   2.005  2.1383 -1.3144 -0.3916
13451TIP3    H261845   4.578   3.478   2.048  0.5172  1.4440 -1.2062
13452TIP3   OH261846   5.557   2.892  10.953  0.4601  0.3789  0.3194
13452TIP3    H161847   5.469   2.902  10.990 -0.2976  1.3390 -1.6165
13452TIP3    H261848   5.556   2.947  10.875  2.6752  0.0924  0.0428
13453TIP3   OH261849   0.408   5.847   5.396  0.3469 -0.2998  0.1784
13453TIP3    H161850   0.370   5.855   5.484 -0.7904 -0.2250 -0.3141
13453TIP3    H261851   0.418   5.937   5.366 -0.7021 -0.3541 -0.3690
13454TIP3   OH261852   6.667   3.387  10.834  0.3556 -0.4686  0.5374
13454TIP3    H161853   6.738   3.433  10.790  0.0598 -0.1784  0.3641
13454TIP3    H261854   6.672   3.298  10.801  0.6254 -0.4437  0.5080
13455TIP3   OH261855   6.014   4.704   6.516 -0.4346 -0.3432 -0.3363
13455TIP3    H161856   6.086   4.642   6.505  1.9713  2.0399  0.7557
13455TIP3    H261857   5.969   4.675   6.594  1.0057 -0.4621  0.4872
13456TIP3   OH261858   6.551   0.763   3.293  0.0640 -0.1770  0.0149
13456TIP3    H161859   6.496   0.775   3.370 -2.0404  2.1642 -1.6555
13456TIP3    H261860   6.518   0.683   3.252 -1.3000  0.4911 -0.2626
13457TIP3   OH261861   0.382   1.381  11.226 -0.1593  0.0387  0.1224
13457TIP3    H161862   0.404   1.289  11.214 -0.7554 -0.3138  1.5146
13457TIP3    H261863   0.456   1.418  11.272 -0.6820 -0.1898  1.1762
13458TIP3   OH261864   4.629   5.535  15.543  0.3294 -0.4753 -0.0824
13458TIP3    H161865   4.556   5.567  15.489  0.1422 -0.3962  0.2162
13458TIP3    H261866   4.628   5.590  15.621  0.0481 -1.1433  0.3994
13459TIP3   OH261867   5.039   4.497  10.357 -0.1259  0.6567  0.5486
13459TIP3    H161868   5.088   4.440  10.416 -0.9083 -0.3821  0.2283
13459TIP3    H261869   4.952   4.456  10.351 -0.7218  1.9048  0.3317
13460TIP3   OH261870   0.799   3.629  13.159  0.5179 -0.3780 -0.0406
13460TIP3    H161871   0.836   3.677  13.233 -1.5375  0.4443  0.5092
13460TIP3    H261872   0.770   3.697  13.099  2.1154 -1.0382 -1.6408
13461TIP3   OH261873   5.673   4.976  15.206  0.2242  0.4826  0.2291
13461TIP3    H161874   5.757   4.936  15.184 -0.0286  1.0244 -1.9437
13461TIP3    H261875   5.631   4.913  15.264  1.3685 -0.6605 -0.1417
13462TIP3   OH261876   6.286   0.281  14.619 -0.4498 -0.0151  0.6476
13462TIP3    H161877   6.367   0.287  14.568 -0.1829 -2.7558  0.6291
13462TIP3    H261878   6.314   0.300  14.709 -0.1576  0.7789  0.4048
13463TIP3   OH261879   0.435   6.640  12.036 -0.3900  0.0616  0.6349
13463TIP3    H161880   0.524   6.673  12.025 -0.6214  0.6909  0.6416
13463TIP3    H261881   0.427   6.570  11.970  1.0411 -1.9730  2.4709
13464TIP3   OH261882   4.165   2.117  16.244 -0.1346 -0.6262  0.2554
13464TIP3    H161883   4.128   2.076  16.166 -0.9458 -2.6878  1.6315
13464TIP3    H261884   4.132   2.064  16.317  1.0328  0.8798  1.9699
13465TIP3   OH261885   6.225   3.254  11.605  0.6426 -0.4922  0.0272
13465TIP3    H161886   6.233   3.227  11.513  3.6084  0.4580 -0.1044
13465TIP3    H261887   6.282   3.193  11.652 -0.7480 -0.8836  1.2407
13466TIP3   OH261888   5.981   6.703  17.097  0.7179 -0.4108 -0.3310
13466TIP3    H161889   6.030   6.771  17.051  1.1157 -0.6436 -0.2576
13466TIP3    H261890   6.028   6.622  17.077 -0.0704 -0.7519 -0.8904
13467TIP3   OH261891   1.383   4.759   3.916 -0.2524 -0.1222  0.1276
13467TIP3    H161892   1.408   4.675   3.876 -1.0575 -0.3450  0.0725
13467TIP3    H261893   1.377   4.739   4.010 -1.2147 -0.3280  0.0279
13468TIP3   OH261894   2.859   4.493  11.637 -0.1763  0.0626 -0.2725
13468TIP3    H161895   2.927   4.430  11.659  0.4828 -0.4869 -3.4659
13468TIP3    H261896   2.887   4.575  11.679  1.1531 -0.7291  0.4372
13469TIP3   OH261897   5.244   2.702   6.380  0.2942 -0.2238  0.2738
13469TIP3    H161898   5.173   2.640   6.395 -1.7432  2.0210  0.6289
13469TIP3    H261899   5.290   2.708   6.464 -1.1473  0.6085  1.0477
13470TIP3   OH261900   5.010   0.566  14.241 -0.2364  0.4160 -0.0868
13470TIP3    H161901   5.086   0.607  14.200 -0.7541  1.3103 -0.1640
13470TIP3    H261902   4.949   0.549  14.169 -0.4908  0.5297  0.1006
13471TIP3   OH261903   5.789   2.573  12.308 -0.3407 -0.2523 -0.5669
13471TIP3    H161904   5.796   2.655  12.258  1.3795  0.0854  0.1672
13471TIP3    H261905   5.754   2.510  12.245 -2.1852  1.1249 -1.0193
13472TIP3   OH261906   5.083   1.301   1.922  0.5062  0.0191 -0.3239
13472TIP3    H161907   5.096   1.396   1.923 -2.0876  0.4226  0.7223
13472TIP3    H261908   5.121   1.270   2.004  0.4217  0.2930 -0.1821
13473TIP3   OH261909   3.078   3.306  14.497 -0.2039  0.3694  0.4831
13473TIP3    H161910   3.022   3.380  14.520  0.3567  0.8722  0.2263
13473TIP3    H261911   3.083   3.308  14.402 -0.1394  0.0307  0.4772
13474TIP3   OH261912   1.616   3.084  11.269  0.2154 -0.0162  0.0198
13474TIP3    H161913   1.678   3.035  11.322  1.5914 -0.1563 -1.6180
13474TIP3    H261914   1.548   3.020  11.246 -0.7253  0.1928  1.9988
13475TIP3   OH261915   4.588   0.615  16.178 -0.2251  0.3503 -0.0731
13475TIP3    H161916   4.638   0.641  16.100 -1.8977 -0.7729 -1.5974
13475TIP3    H261917   4.543   0.534  16.153  0.3264 -0.8898  2.5934
13476TIP3   OH261918   3.283   1.829  16.932 -0.9629  0.0793 -0.0735
13476TIP3    H161919   3.207   1.887  16.931 -1.5911 -0.7242 -0.0077
13476TIP3    H261920   3.266   1.766  16.863  0.5164  0.9471 -1.3051
13477TIP3   OH261921   0.939   0.641  13.910 -0.0695 -0.1010 -0.6922
13477TIP3    H161922   0.924   0.700  13.836  1.3695  0.0978 -0.8559
13477TIP3    H261923   1.023   0.669  13.946 -0.5348 -0.4863  0.7609
13478TIP3   OH261924   1.916   6.780  14.137 -0.6474  0.1664  0.3324
13478TIP3    H161925   1.961   6.802  14.055 -0.4338  0.9520  0.6528
13478TIP3    H261926   1.825   6.804  14.121 -0.6374  0.1631  0.2690
13479TIP3   OH261927   6.149   2.001   2.428 -0.2140  0.2026 -0.6468
13479TIP3    H161928   6.244   2.004   2.425 -0.0784 -1.7362 -0.0504
13479TIP3    H261929   6.122   1.998   2.336  0.4465 -1.1471 -0.8214
13480TIP3   OH261930   3.313   6.350  11.843  0.2231  0.2821  0.4481
13480TIP3    H161931   3.239   6.289  11.846  1.1843 -0.8970  1.7946
13480TIP3    H261932   3.300   6.400  11.763 -2.1314  0.2549  0.7467
13481TIP3   OH261933   5.940   5.937   5.812  0.2896  0.3255  0.2430
13481TIP3    H161934   5.955   6.008   5.874  1.2628  0.0938  0.2797
13481TIP3    H261935   6.013   5.877   5.825  0.0006 -0.1994 -0.4705
13482TIP3   OH261936   4.695   1.090  17.158  0.2991 -0.4498  0.2425
13482TIP3    H161937   4.637   1.056  17.089  0.0517  2.0096 -0.8808
13482TIP3    H261938   4.681   1.031  17.232 -3.1264 -0.4392 -0.2269
13483TIP3   OH261939   4.693   6.509  15.507  0.1875  0.2481  0.1930
13483TIP3    H161940   4.620   6.501  15.568 -0.0883  1.9894  0.1322
13483TIP3    H261941   4.676   6.442  15.440 -1.1162  0.3204  0.4256
13484TIP3   OH261942   1.297   5.475  16.473 -0.0460 -0.2108  0.3162
13484TIP3    H161943   1.276   5.531  16.398 -0.5686  0.1935  0.7619
13484TIP3    H261944   1.373   5.516  16.513  2.2465 -2.1123 -1.7683
13485TIP3   OH261945   1.488   1.223  13.957 -0.0709 -0.3288  0.8786
13485TIP3    H161946   1.533   1.265  14.031 -0.7652 -0.9087  1.6500
13485TIP3    H261947   1.462   1.138  13.991 -2.0982  0.1332  0.5800
13486TIP3   OH261948   2.409   4.101   5.330 -0.1370 -0.0681  0.6347
13486TIP3    H161949   2.486   4.051   5.305 -0.3878  0.4882 -1.3831
13486TIP3    H261950   2.356   4.039   5.381 -0.1233 -1.6835 -1.1900
13487TIP3   OH261951   1.706   3.941   5.733  0.0264 -0.1114 -0.3164
13487TIP3    H161952   1.694   4.018   5.676  0.9906 -0.0892 -0.5085
13487TIP3    H261953   1.677   3.970   5.819  0.7519  0.6059 -0.3018
13488TIP3   OH261954   4.867   2.295   1.069  0.3629 -0.5146  0.5730
13488TIP3    H161955   4.855   2.235   1.142 -0.1607  0.3506  1.2234
13488TIP3    H261956   4.857   2.240   0.991 -1.5450 -1.0475  1.1303
13489TIP3   OH261957   5.713   0.831  13.830 -0.6157  0.6141  0.6738
13489TIP3    H161958   5.678   0.803  13.915 -0.8637  0.6846  0.5955
13489TIP3    H261959   5.643   0.884  13.792 -0.3240  0.9675  0.6256
13490TIP3   OH261960   1.271   5.770  12.541 -0.0438 -0.3000  0.2585
13490TIP3    H161961   1.358   5.732  12.551  0.1080  0.2854  1.3998
13490TIP3    H261962   1.210   5.697  12.555  0.2514 -0.3930  1.0805
13491TIP3   OH261963   4.298   1.970   6.782  0.6112 -0.0357 -0.0549
13491TIP3    H161964   4.215   1.992   6.823  0.5306 -0.1569 -0.1519
13491TIP3    H261965   4.277   1.959   6.689  0.7075 -0.2100 -0.0564
13492TIP3   OH261966   4.950   6.309   5.984 -0.0082 -0.7598 -0.2583
13492TIP3    H161967   4.944   6.221   6.021  1.5364 -0.1648  1.6051
13492TIP3    H261968   4.885   6.360   6.033  1.8841 -0.0187  1.6326
13493TIP3   OH261969   0.818   2.615  12.704  0.0610  0.3363  0.2181
13493TIP3    H161970   0.775   2.699  12.723  0.4327  0.5528  0.1209
13493TIP3    H261971   0.821   2.570  12.788 -2.2993 -0.6219 -0.1157
13494TIP3   OH261972   4.587   0.404   3.993  0.7793  0.2666  0.4474
13494TIP3    H161973   4.521   0.380   4.058  0.4204 -1.0318 -0.3645
13494TIP3    H261974   4.551   0.479   3.948 -0.3717 -0.6838 -0.2763
13495TIP3   OH261975   1.142   2.224  16.707 -0.5851 -0.0598  0.4714
13495TIP3    H161976   1.162   2.316  16.686 -0.8461 -0.4474 -1.7396
13495TIP3    H261977   1.185   2.209  16.792  1.1351  1.5680 -0.0279
13496TIP3   OH261978   0.142   1.740   6.209  0.0129 -0.0638  0.2804
13496TIP3    H161979   0.172   1.823   6.247 -1.4388  0.5047  0.2284
13496TIP3    H261980   0.122   1.685   6.285  2.4195 -0.9932  0.3585
13497TIP3   OH261981   4.985   1.878   2.117  0.5079 -0.2697  0.0465
13497TIP3    H161982   4.930   1.809   2.155  0.4759 -0.8302 -0.9892
13497TIP3    H261983   4.923   1.945   2.090  0.4962 -0.0634  0.5679
13498TIP3   OH261984   3.737   3.612   5.155 -0.1438 -0.0951  0.1361
13498TIP3    H161985   3.774   3.556   5.087  1.3081  0.1571  0.6714
13498TIP3    H261986   3.650   3.635   5.123  0.6213  0.3078 -1.7900
13499TIP3   OH261987   5.071   0.905  11.351  0.1234 -0.3561 -0.1786
13499TIP3    H161988   4.979   0.927  11.365 -0.1770 -0.7586 -1.3895
13499TIP3    H261989   5.075   0.875  11.260  1.5601  0.1743 -0.3161
13500TIP3   OH261990   2.162   2.973   3.381 -0.0095  0.0272  0.0441
13500TIP3    H161991   2.097   3.020   3.433 -0.4325  1.0156 -1.3173
13500TIP3    H261992   2.150   2.881   3.405  1.1534  0.5608  3.1098
13501TIP3   OH261993   2.603   3.171   5.629 -0.7730  0.1766  0.2335
13501TIP3    H161994   2.512   3.192   5.610 -1.0501 -0.4685  0.7963
13501TIP3    H261995   2.633   3.120   5.553 -1.1248 -0.2854  0.4006
13502TIP3   OH261996   5.770   0.284   4.031 -0.0895  0.2497 -0.8070
13502TIP3    H161997   5.809   0.252   3.950  0.5876 -0.6550 -0.1376
13502TIP3    H261998   5.769   0.208   4.089  1.4899  1.3757  0.8040
13503TIP3   OH261999   1.549   2.477  14.515 -0.5874 -0.5694  0.8405
13503TIP3    H162000   1.466   2.470  14.563 -0.2577  0.4356  1.5711
13503TIP3    H262001   1.617   2.469  14.582 -0.1217  0.8168  0.5567
13504TIP3   OH262002   4.679   1.279   5.833 -0.0542 -1.0132  0.0308
13504TIP3    H162003   4.744   1.240   5.775 -1.0707 -1.3354 -0.9338
13504TIP3    H262004   4.658   1.364   5.793 -0.5475 -1.1090  0.0730
13505TIP3   OH262005   6.032   1.303  13.537  0.0577  0.3415 -0.1229
13505TIP3    H162006   6.035   1.230  13.475  3.6979  0.8922 -0.8006
13505TIP3    H262007   5.962   1.360  13.502 -0.8550 -1.3735 -1.2473
13506TIP3   OH262008   4.473   3.125   5.081 -0.4312 -0.0593 -0.5236
13506TIP3    H162009   4.542   3.188   5.059  0.3135 -0.5182  0.4530
13506TIP3    H262010   4.492   3.099   5.171 -1.2943 -0.9632 -0.5898
13507TIP3   OH262011   6.399   3.744   4.576  0.4281 -0.5994 -0.2805
13507TIP3    H162012   6.370   3.828   4.541  1.4378 -1.1946 -2.7909
13507TIP3    H262013   6.319   3.693   4.585 -0.2237  0.6425  1.4807
13508TIP3   OH262014   3.218   3.851   5.836 -0.0466  0.5743 -0.4549
13508TIP3    H162015   3.216   3.846   5.932 -3.2175 -0.2218 -0.4765
13508TIP3    H262016   3.231   3.761   5.808 -1.6056  0.4245 -0.7492
13509TIP3   OH262017   0.732   3.441   1.643  0.2094  0.2480 -0.2141
13509TIP3    H162018   0.704   3.480   1.726 -2.4368 -0.7230 -0.5572
13509TIP3    H262019   0.738   3.515   1.583  0.0047  0.6907  0.2955
13510TIP3   OH262020   6.063   5.494   3.865 -0.5155 -0.4048 -0.4986
13510TIP3    H162021   6.128   5.474   3.798 -0.2082 -0.2290 -0.2532
13510TIP3    H262022   6.099   5.568   3.912 -0.1268 -1.3203  0.6833
13511TIP3   OH262023   3.272   6.251   3.701 -0.0595 -0.2063 -0.4889
13511TIP3    H162024   3.361   6.216   3.710  1.2384  2.6334 -1.1450
13511TIP3    H262025   3.254   6.293   3.785  1.0771  2.9084 -1.6556
13512TIP3   OH262026   0.280   4.376  16.018 -0.5134 -0.0070 -0.1790
13512TIP3    H162027   0.326   4.314  16.075  0.9615  0.3026 -0.9777
13512TIP3    H262028   0.264   4.453  16.073 -1.8105 -0.8251  0.6380
13513TIP3   OH262029   3.239   4.368  12.890 -0.3410  0.0107 -0.1037
13513TIP3    H162030   3.163   4.330  12.933  0.5573  1.1951  2.8400
13513TIP3    H262031   3.312   4.312  12.917  0.1505  0.2927 -0.8248
13514TIP3   OH262032   0.914   3.716   5.403 -0.5005 -0.4362 -0.1979
13514TIP3    H162033   0.931   3.622   5.401 -0.5181 -0.4324 -1.8699
13514TIP3    H262034   0.821   3.723   5.424 -0.0014 -0.6753  2.3636
13515TIP3   OH262035   6.033   6.417  14.488 -0.0007  0.3419 -0.6480
13515TIP3    H162036   6.060   6.495  14.439 -1.0708  1.8712  1.0582
13515TIP3    H262037   5.938   6.413  14.476  0.0435 -0.7379 -0.7335
13516TIP3   OH262038   4.735   3.436  15.753  0.5428 -0.1525 -0.5273
13516TIP3    H162039   4.681   3.366  15.716  2.2230 -1.5954 -0.3653
13516TIP3    H262040   4.807   3.390  15.798  0.5948  1.6221  1.3705
13517TIP3   OH262041   2.684   5.640  12.229  0.0546  0.1035 -0.0848
13517TIP3    H162042   2.612   5.652  12.168 -1.6560  0.4820  1.8905
13517TIP3    H262043   2.758   5.613  12.175 -1.0608  1.4425 -2.4224
13518TIP3   OH262044   1.419   3.513  16.026 -0.4261  0.4892  0.4299
13518TIP3    H162045   1.498   3.546  15.983  0.1235 -1.2186  0.0718
13518TIP3    H262046   1.349   3.528  15.962  0.1892 -0.9765 -0.6434
13519TIP3   OH262047   1.686   4.649   4.704  0.1915  0.1008  0.0477
13519TIP3    H162048   1.761   4.663   4.762  0.4496  0.2071 -0.3119
13519TIP3    H262049   1.634   4.729   4.712  0.2162  0.1086  0.1424
13520TIP3   OH262050   2.855   1.060  16.500  0.6801 -0.2745  0.0988
13520TIP3    H162051   2.944   1.028  16.485 -0.0149 -1.9389 -0.7957
13520TIP3    H262052   2.839   1.121  16.428 -0.0353 -2.6075 -1.8721
13521TIP3   OH262053   3.091   2.302   0.106  0.3217  0.1683  0.6623
13521TIP3    H162054   3.031   2.253   0.049  2.1535 -1.7313  0.2686
13521TIP3    H262055   3.166   2.322   0.050  2.1080 -1.6015  2.2570
13522TIP3   OH262056   3.692   3.361  16.841  0.2101  0.5034 -0.2896
13522TIP3    H162057   3.755   3.302  16.799 -0.1149 -0.1341  0.1020
13522TIP3    H262058   3.636   3.303  16.893  1.0312  1.3329  1.5859
13523TIP3   OH262059   2.652   0.898  12.489 -0.1994 -0.2601 -0.0291
13523TIP3    H162060   2.624   0.936  12.573  0.9739  1.8109 -0.4980
13523TIP3    H262061   2.627   0.964  12.424 -0.1850 -1.3779 -1.2013
13524TIP3   OH262062   5.115   1.821  14.045  0.0464 -0.2370  0.4292
13524TIP3    H162063   5.187   1.783  14.094  0.9085  1.3343  0.4519
13524TIP3    H262064   5.072   1.880  14.107 -0.5648 -0.3039  0.0821
13525TIP3   OH262065   0.273   0.390   2.643  0.7704 -0.4651 -0.4247
13525TIP3    H162066   0.266   0.482   2.618  2.4597 -0.4087 -0.8695
13525TIP3    H262067   0.186   0.366   2.674  0.7441  1.8168  1.5546
13526TIP3   OH262068   5.812   4.451   1.507 -0.3096  0.2625 -0.1487
13526TIP3    H162069   5.743   4.455   1.440  0.2757 -0.7072 -0.8417
13526TIP3    H262070   5.766   4.426   1.587 -0.8088 -0.0585 -0.5295
13527TIP3   OH262071   2.451   1.938  14.545  0.4379  0.0881 -0.4917
13527TIP3    H162072   2.410   1.876  14.606  1.0311  0.9852  0.8469
13527TIP3    H262073   2.386   2.008  14.535 -0.2528 -0.7141 -2.0438
13528TIP3   OH262074   4.081   5.021   2.133  0.0645 -0.2416  0.2857
13528TIP3    H162075   4.095   4.935   2.094 -0.0422 -0.5150  0.8389
13528TIP3    H262076   3.988   5.023   2.154 -0.2600  0.6026 -1.1006
13529TIP3   OH262077   2.606   3.267  15.465 -0.0676  0.0330  0.2233
13529TIP3    H162078   2.615   3.360  15.445 -1.1062  0.2189  0.5818
13529TIP3    H262079   2.579   3.264  15.557 -0.9297 -0.5827 -0.0382
13530TIP3   OH262080   1.744   3.859  16.684  0.2101  0.1249 -1.0805
13530TIP3    H162081   1.743   3.764  16.694  1.2704  0.0763 -1.3455
13530TIP3    H262082   1.652   3.885  16.696  0.0648 -0.8147  0.0285
13531TIP3   OH262083   5.349   2.396   3.111 -0.1254  0.8884 -0.0502
13531TIP3    H162084   5.321   2.305   3.111  1.5504  0.3218  0.7445
13531TIP3    H262085   5.386   2.410   3.024  1.5345  0.1275  0.4966
13532TIP3   OH262086   4.446   5.952   3.417 -0.0080  0.5828 -0.1242
13532TIP3    H162087   4.462   5.909   3.501  1.2028  0.3352 -0.4595
13532TIP3    H262088   4.524   6.005   3.402 -1.1371  2.3525 -0.0823
13533TIP3   OH262089   2.198   6.425  16.401  0.1155 -0.8922  0.0445
13533TIP3    H162090   2.210   6.500  16.341  2.4626 -0.4191  0.9963
13533TIP3    H262091   2.145   6.460  16.472  1.0811 -0.1368  0.4166
13534TIP3   OH262092   5.618   6.017   1.320  0.1659 -0.1040  0.0755
13534TIP3    H162093   5.536   5.989   1.280 -0.8790 -0.0996  2.0942
13534TIP3    H262094   5.681   5.951   1.293 -1.3625 -2.2798  1.5048
13535TIP3   OH262095   4.899   2.738   1.128 -0.5767  0.2701  0.1029
13535TIP3    H162096   4.872   2.691   1.207 -3.0249  1.0310 -0.2162
13535TIP3    H262097   4.969   2.684   1.091 -1.1024 -1.4138  1.4406
13536TIP3   OH262098   5.646   4.099   4.115 -0.2448  0.0811  0.7791
13536TIP3    H162099   5.670   4.045   4.040  0.3950  0.0742  0.9801
13536TIP3    H262100   5.633   4.187   4.079 -0.0707  0.0493  0.6394
13537TIP3   OH262101   5.162   1.314   6.189 -0.1536  0.5129 -0.3436
13537TIP3    H162102   5.219   1.327   6.113  0.3127  0.8810  0.0643
13537TIP3    H262103   5.076   1.342   6.160 -0.6831 -2.2366 -1.7431
13538TIP3   OH262104   3.763   3.599   1.002  0.0948 -1.0369 -0.5656
13538TIP3    H162105   3.794   3.687   0.980 -1.4591 -0.2043  0.3743
13538TIP3    H262106   3.840   3.543   0.992  1.3986  0.5972 -0.1547
13539TIP3   OH262107   6.228   1.410  14.754  0.5375  0.6248  0.4779
13539TIP3    H162108   6.285   1.451  14.688 -0.2819  2.0181  0.6026
13539TIP3    H262109   6.195   1.331  14.711  2.3546 -0.1181  0.3252
13540TIP3   OH262110   0.412   4.314  11.506 -0.0133  0.3687 -0.7999
13540TIP3    H162111   0.449   4.330  11.592  1.7307  1.2816 -1.6641
13540TIP3    H262112   0.317   4.310  11.520  0.2268  0.6500  1.1056
13541TIP3   OH262113   4.320   5.687   0.202 -0.5388  0.2617  0.2396
13541TIP3    H162114   4.263   5.763   0.195  0.8376  1.3206  0.1725
13541TIP3    H262115   4.366   5.698   0.285 -0.2725 -0.4447  0.1929
13542TIP3   OH262116   2.499   3.109   6.466 -0.3951 -0.3616 -0.7469
13542TIP3    H162117   2.542   3.167   6.403  1.8873  0.9660  1.8245
13542TIP3    H262118   2.448   3.167   6.522 -2.6052 -1.5426 -1.3995
13543TIP3   OH262119   4.773   1.810  11.190 -0.1276  0.8246  0.5481
13543TIP3    H162120   4.718   1.732  11.182 -2.4913  2.2594  1.4580
13543TIP3    H262121   4.848   1.782  11.243 -0.7530 -0.8861  0.5779
13544TIP3   OH262122   2.248   4.931  12.964  0.2435 -0.4186 -0.0824
13544TIP3    H162123   2.237   5.000  12.898  0.0903 -1.1192 -0.7982
13544TIP3    H262124   2.181   4.950  13.029 -1.7781 -1.5084 -1.6987
13545TIP3   OH262125   6.729   6.572  13.080  0.2978 -0.2274  0.2581
13545TIP3    H162126   6.765   6.506  13.139  0.0472 -0.4763  0.1346
13545TIP3    H262127   6.787   6.647  13.089  0.8012 -0.5959  0.1236
13546TIP3   OH262128   2.777   3.808  13.709  0.4805  1.0274  0.8672
13546TIP3    H162129   2.684   3.826  13.699  0.0482 -0.5520  1.7387
13546TIP3    H262130   2.784   3.756  13.788  2.2817  2.1664  1.5270
13547TIP3   OH262131   1.350   0.748   3.161 -0.2178 -0.4028 -0.5162
13547TIP3    H162132   1.282   0.778   3.222  0.8070  0.3186  0.2855
13547TIP3    H262133   1.327   0.789   3.078 -1.6602 -1.4309 -0.6748
13548TIP3   OH262134   6.260   5.974  10.848 -0.4222  0.1296 -0.4324
13548TIP3    H162135   6.355   5.971  10.846 -0.4470 -0.7122 -2.1010
13548TIP3    H262136   6.234   5.985  10.756 -1.9187  1.4360  0.0953
13549TIP3   OH262137   2.299   2.830  16.676  0.4911  0.4427  0.4451
13549TIP3    H162138   2.336   2.742  16.679  2.2337  1.1495  1.0022
13549TIP3    H262139   2.217   2.820  16.628 -0.0165 -1.6975  1.6498
13550TIP3   OH262140   5.844   5.573   3.453 -0.1014  0.2736 -0.0740
13550TIP3    H162141   5.863   5.522   3.531  0.2951  0.8079  0.1843
13550TIP3    H262142   5.771   5.630   3.478  0.7615  1.2689  0.2949
13551TIP3   OH262143   4.568   6.768  16.041  0.3020  0.3466 -0.2585
13551TIP3    H162144   4.519   6.700  15.994  2.4423  0.0933 -2.3109
13551TIP3    H262145   4.627   6.805  15.975  1.1223  2.3516  1.4767
13552TIP3   OH262146   4.338   0.386  12.065 -0.0051  0.5919  0.0486
13552TIP3    H162147   4.255   0.413  12.027 -0.0531 -0.6981 -0.8280
13552TIP3    H262148   4.395   0.369  11.990  0.4629 -0.3228  0.5908
13553TIP3   OH262149   6.535   4.341  11.589  0.3635 -0.0363  0.4911
13553TIP3    H162150   6.498   4.257  11.617  1.3562 -1.2218 -1.5030
13553TIP3    H262151   6.543   4.392  11.670 -1.2795 -1.4338  1.6060
13554TIP3   OH262152   3.181   1.879  14.699 -0.4402 -0.1094 -0.3502
13554TIP3    H162153   3.130   1.843  14.627 -2.7414 -0.0988  1.1559
13554TIP3    H262154   3.174   1.814  14.769  0.3568  0.5921  0.4180
13555TIP3   OH262155   4.066   3.029  11.583 -0.4788 -0.5660  0.4443
13555TIP3    H162156   4.126   2.958  11.608  0.4634  0.1491  0.2658
13555TIP3    H262157   4.120   3.088  11.530 -1.3660  0.0641  0.2280
13556TIP3   OH262158   0.921   3.781   6.134  0.4948 -0.1144 -0.5643
13556TIP3    H162159   0.843   3.726   6.119  1.6880 -2.1021  0.0680
13556TIP3    H262160   0.993   3.730   6.097  1.9351  0.1277  1.7229
13557TIP3   OH262161   4.435   1.668   1.947 -0.2271  0.7890  0.2936
13557TIP3    H162162   4.350   1.705   1.923 -0.7269 -0.7262 -0.3608
13557TIP3    H262163   4.429   1.575   1.925  2.4076  1.0197 -2.0201
13558TIP3   OH262164   5.958   0.095   0.437 -0.4178 -0.0270  0.3280
13558TIP3    H162165   5.999   0.075   0.354  0.3129 -0.8846  0.8768
13558TIP3    H262166   5.867   0.115   0.415 -0.5413 -1.4342 -0.5645
13559TIP3   OH262167   4.381   3.387   3.988 -0.2325  0.4498  0.2915
13559TIP3    H162168   4.368   3.482   3.993 -1.4922  0.2579  1.0434
13559TIP3    H262169   4.313   3.351   4.044 -0.5331 -0.9697 -0.9499
13560TIP3   OH262170   3.011   3.855   4.624 -0.0944  0.0146  0.6834
13560TIP3    H162171   2.968   3.860   4.538 -0.7972  2.6353  1.1065
13560TIP3    H262172   3.104   3.844   4.604 -0.3411 -0.1784 -0.4024
13561TIP3   OH262173   1.225   2.233  12.081 -0.0421 -0.5280 -0.0952
13561TIP3    H162174   1.224   2.281  12.164  0.1957 -1.0478  0.2132
13561TIP3    H262175   1.218   2.141  12.107  2.4750 -0.8898 -0.4774
13562TIP3   OH262176   5.806   2.701   2.915 -0.9472  0.0359  0.3262
13562TIP3    H162177   5.780   2.659   2.833  0.2069 -1.5539  0.7170
13562TIP3    H262178   5.859   2.776   2.887  0.9864 -1.5176 -0.4649
13563TIP3   OH262179   6.135   5.574  15.350  0.3948  0.1673  0.2769
13563TIP3    H162180   6.227   5.586  15.370  0.6575 -0.6672 -0.3786
13563TIP3    H262181   6.106   5.660  15.320  1.1871  0.2201 -0.3642
13564TIP3   OH262182   4.755   1.069   1.660 -0.2929 -0.7114  0.2414
13564TIP3    H162183   4.765   0.980   1.627  0.5764 -1.4235  2.2460
13564TIP3    H262184   4.834   1.084   1.712 -2.1799 -0.3415  3.2819
13565TIP3   OH262185   4.300   0.969  12.357  0.2079 -0.0587 -0.3714
13565TIP3    H162186   4.272   0.920  12.435  1.4507 -0.5203 -0.1972
13565TIP3    H262187   4.242   1.045  12.355 -0.3613 -0.4474  0.5614
13566TIP3   OH262188   1.879   4.658  13.937  0.6217 -0.5068  0.0492
13566TIP3    H162189   1.964   4.672  13.980  1.0580  0.2261 -1.0053
13566TIP3    H262190   1.836   4.591  13.990  2.4678 -1.9928 -0.2362
13567TIP3   OH262191   5.094   5.409   0.733  0.5321 -0.1497 -0.2117
13567TIP3    H162192   5.081   5.432   0.641  1.9541 -0.7233 -0.5959
13567TIP3    H262193   5.087   5.492   0.781 -0.1884  0.1547 -0.8390
13568TIP3   OH262194   3.917   2.712   0.066 -0.0500 -0.5372 -0.4514
13568TIP3    H162195   3.824   2.692   0.082  0.2482 -1.4940  0.2203
13568TIP3    H262196   3.960   2.691   0.149  1.1053 -2.4664 -1.4642
13569TIP3   OH262197   3.433   1.085   4.570  0.3778 -0.5553 -0.1002
13569TIP3    H162198   3.356   1.127   4.609  0.9560  1.3573 -0.9254
13569TIP3    H262199   3.398   1.007   4.528 -0.8709 -0.5272  0.8120
13570TIP3   OH262200   3.311   0.243  16.141 -0.3055  0.8359  0.2553
13570TIP3    H162201   3.290   0.188  16.216 -0.8770 -2.2698 -1.9385
13570TIP3    H262202   3.407   0.239  16.135 -0.3170  0.3202  0.3329
13571TIP3   OH262203   3.787   3.391   5.979 -0.1274  0.3739 -0.2371
13571TIP3    H162204   3.846   3.317   5.991  0.3783  1.0370  1.8130
13571TIP3    H262205   3.731   3.391   6.057 -1.1204  1.2754 -0.9114
13572TIP3   OH262206   3.088   0.584   3.893 -0.1913  0.2290  0.1188
13572TIP3    H162207   3.074   0.674   3.864 -0.6237 -0.0095 -0.4313
13572TIP3    H262208   3.082   0.589   3.989 -0.6441  0.7132  0.0732
13573TIP3   OH262209   1.306   6.573  14.934 -0.3200  0.5179  0.0920
13573TIP3    H162210   1.324   6.540  15.022  0.0846 -1.0322 -0.5257
13573TIP3    H262211   1.228   6.526  14.905  0.4946 -0.2483 -0.9681
13574TIP3   OH262212   4.503   3.897  11.858  0.3461  0.3615  0.4558
13574TIP3    H162213   4.508   3.808  11.822  3.4983  0.8591 -0.5891
13574TIP3    H262214   4.579   3.942  11.822 -0.5295  3.1819  1.8782
13575TIP3   OH262215   5.436   2.135  14.017  0.2578  0.1328 -0.2495
13575TIP3    H162216   5.472   2.125  14.105  0.3090  0.5656 -0.2209
13575TIP3    H262217   5.455   2.051  13.974  3.6813  1.1619 -1.1011
13576TIP3   OH262218   1.087   1.451   3.971 -0.0636  0.6637 -0.0215
13576TIP3    H162219   1.078   1.434   3.877 -0.0314 -0.7015  0.2031
13576TIP3    H262220   1.044   1.376   4.013 -1.1269  1.8437  1.0711
13577TIP3   OH262221   1.415   5.613   4.589  0.2406  0.2422  0.8017
13577TIP3    H162222   1.443   5.575   4.506  1.4113  1.2359  0.6948
13577TIP3    H262223   1.377   5.541   4.637  0.0625 -0.4777 -0.3791
13578TIP3   OH262224   0.634   6.642  16.201  0.0525 -0.1038 -0.8344
13578TIP3    H162225   0.705   6.695  16.237  0.4491 -0.0991 -1.6029
13578TIP3    H262226   0.554   6.676  16.241  0.6537 -1.5873  1.8361
13579TIP3   OH262227   4.553   2.478   4.221 -0.0087  0.2113 -0.9568
13579TIP3    H162228   4.507   2.457   4.302 -0.3163  1.8715 -0.6594
13579TIP3    H262229   4.591   2.395   4.192 -0.6052 -0.5722  0.4311
13580TIP3   OH262230   2.387   6.729  16.033  0.5247 -0.4245  0.1261
13580TIP3    H162231   2.432   6.771  16.107  1.3426 -0.0394 -0.5612
13580TIP3    H262232   2.416   6.638  16.036 -0.1155 -0.6108  0.7738
13581TIP3   OH262233   6.702   3.574   5.116  0.4312 -0.0279 -0.4583
13581TIP3    H162234   6.708   3.572   5.021  2.2716 -0.1121 -0.3749
13581TIP3    H262235   6.756   3.649   5.142  0.2024 -0.1912  0.5364
13582TIP3   OH262236   5.545   3.752   0.842  0.7734  0.5476 -0.1305
13582TIP3    H162237   5.578   3.715   0.760  0.3539  0.7361 -0.3836
13582TIP3    H262238   5.462   3.708   0.856  0.0242  1.7433 -0.6929
13583TIP3   OH262239   2.125   6.649   5.198  0.0616 -0.1578 -0.4535
13583TIP3    H162240   2.192   6.585   5.220  0.8838  0.2703 -1.5909
13583TIP3    H262241   2.067   6.604   5.137  0.3054 -0.0072 -0.7998
13584TIP3   OH262242   0.939   1.097  11.417  0.0350  0.2700  0.2871
13584TIP3    H162243   1.023   1.085  11.461  0.0431  0.9333  0.4685
13584TIP3    H262244   0.873   1.079  11.484 -0.0503 -2.6759 -0.4580
13585TIP3   OH262245   3.051   2.185  10.599  0.1976  0.4769  0.2967
13585TIP3    H162246   3.087   2.117  10.656 -1.9642 -1.0688 -0.0878
13585TIP3    H262247   3.072   2.267  10.644  1.3868 -0.5146  1.6405
13586TIP3   OH262248   6.809   4.129   2.320  0.3617 -0.4043  0.0914
13586TIP3    H162249   6.897   4.104   2.290  0.5874 -1.9887  1.8606
13586TIP3    H262250   6.815   4.128   2.416 -1.4611 -0.0827  0.2473
13587TIP3   OH262251   2.729   4.285  15.469 -0.4437  0.3023 -0.4373
13587TIP3    H162252   2.735   4.261  15.376 -1.1120 -2.0294  0.0455
13587TIP3    H262253   2.635   4.298  15.484 -0.3804  0.2450  0.0060
13588TIP3   OH262254   0.414   3.547   2.376 -0.2858 -0.0667  0.3759
13588TIP3    H162255   0.392   3.477   2.437  0.6630 -0.2538  0.5232
13588TIP3    H262256   0.329   3.578   2.344 -0.8847  0.7789  2.5897
13589TIP3   OH262257   4.366   2.293   1.983  0.4007  0.1798  0.0305
13589TIP3    H162258   4.450   2.338   1.989  1.8163 -2.4375  1.6108
13589TIP3    H262259   4.384   2.214   1.933 -1.8291  0.8149 -2.0004
13590TIP3   OH262260   3.826   0.517  13.516 -0.1109 -0.3147 -0.0334
13590TIP3    H162261   3.794   0.512  13.606  0.3394 -4.2366  0.0826
13590TIP3    H262262   3.750   0.547  13.465 -0.4700  1.6331  1.5267
13591TIP3   OH262263   0.423   5.707   2.559 -0.0216 -0.3810  0.1466
13591TIP3    H162264   0.390   5.645   2.494 -0.6304  0.3587 -0.2629
13591TIP3    H262265   0.509   5.734   2.525  0.5889 -1.5238  0.6959
13592TIP3   OH262266   3.627   1.063  13.566 -0.0132  0.2404 -0.4090
13592TIP3    H162267   3.703   1.061  13.624  0.3265  1.6930 -0.7599
13592TIP3    H262268   3.663   1.043  13.479 -0.7604 -3.6102 -0.0009
13593TIP3   OH262269   3.641   3.618   3.690  0.0490 -0.2041 -0.2080
13593TIP3    H162270   3.709   3.596   3.754 -1.3079 -0.5407  1.1666
13593TIP3    H262271   3.652   3.553   3.621  2.9574  1.4769 -1.5204
13594TIP3   OH262272   1.718   2.452  14.732 -0.9826  0.0718 -0.2095
13594TIP3    H162273   1.803   2.476  14.770 -1.4409  0.2545  0.7512
13594TIP3    H262274   1.658   2.518  14.768 -2.0544 -1.7267  1.4771
13595TIP3   OH262275   3.662   3.447   1.325 -0.4272 -0.7375  0.2285
13595TIP3    H162276   3.740   3.438   1.380  0.4037  1.0898 -0.5871
13595TIP3    H262277   3.695   3.443   1.235 -1.3511 -0.4841 -0.1268
13596TIP3   OH262278   3.541   0.709  15.651 -0.8165 -0.0301 -0.2169
13596TIP3    H162279   3.465   0.745  15.698  0.4326  0.6337  1.3796
13596TIP3    H262280   3.614   0.722  15.711  0.8909  0.8782 -2.3959
13597TIP3   OH262281   2.337   0.122   5.462 -0.2406  0.1564  0.0465
13597TIP3    H162282   2.395   0.197   5.449 -1.3920  1.0552 -0.0105
13597TIP3    H262283   2.271   0.130   5.392 -0.9993 -0.2932  0.6931
13598TIP3   OH262284   5.599   2.699   4.024 -0.0679 -0.0642  0.3201
13598TIP3    H162285   5.657   2.704   3.948  1.1965  1.5802  1.3567
13598TIP3    H262286   5.589   2.605   4.040 -0.4878 -0.4692 -1.9250
13599TIP3   OH262287   4.597   0.828  14.512  0.3899  0.0143  0.2040
13599TIP3    H162288   4.634   0.837  14.424 -1.2587  1.4320 -0.4008
13599TIP3    H262289   4.502   0.833  14.499  0.0901 -0.0978  2.0303
13600TIP3   OH262290   0.616   3.904  14.000 -0.2774  0.0177 -0.6681
13600TIP3    H162291   0.601   3.998  14.014  1.6844  0.2187  0.3840
13600TIP3    H262292   0.570   3.862  14.073 -2.4962 -0.0244 -1.9902
13601TIP3   OH262293   4.773   0.455  12.152  0.6078  0.6802  0.3398
13601TIP3    H162294   4.715   0.405  12.094  1.3864  0.0665  0.0637
13601TIP3    H262295   4.746   0.546  12.140 -0.0333  0.4438 -0.0800
13602TIP3   OH262296   5.046   4.130  17.171  0.8099 -0.2922  0.8365
13602TIP3    H162297   5.064   4.182  17.092  1.9439 -0.9872  0.6052
13602TIP3    H262298   4.965   4.166  17.205  2.2327  2.6343  1.5040
13603TIP3   OH262299   4.289   6.600  11.363 -0.0574  0.4478  0.0138
13603TIP3    H162300   4.350   6.588  11.290 -0.7581  1.2802 -0.7356
13603TIP3    H262301   4.216   6.541  11.343  0.4577 -0.5042  0.8784
13604TIP3   OH262302   1.127   3.302  15.656  0.1474 -0.0733 -0.5904
13604TIP3    H162303   1.148   3.334  15.569 -1.5602  0.0880 -0.9927
13604TIP3    H262304   1.051   3.354  15.683 -0.1366 -0.9794  0.4523
13605TIP3   OH262305   3.088   4.152  13.923 -0.0498 -0.3093  0.3977
13605TIP3    H162306   3.039   4.095  13.863  0.4943 -1.1952  0.7749
13605TIP3    H262307   3.179   4.122  13.914  0.0849 -0.2220  1.4027
13606TIP3   OH262308   2.024   2.475   6.237  0.0172  0.5203 -0.5782
13606TIP3    H162309   2.032   2.453   6.144 -1.0698  1.6416 -0.9622
13606TIP3    H262310   2.000   2.392   6.279 -2.3813  0.5298 -1.7482
13607TIP3   OH262311   0.161   5.016   3.054  0.3657 -0.0080 -0.3747
13607TIP3    H162312   0.165   4.951   2.983 -0.9071 -1.1639  0.5613
13607TIP3    H262313   0.250   5.018   3.089  0.2201 -2.0661  0.2381
13608TIP3   OH262314   1.161   4.959   2.539  0.6691  0.0305  0.0231
13608TIP3    H162315   1.250   4.976   2.572  1.6487 -2.1833 -1.1978
13608TIP3    H262316   1.168   4.974   2.445 -0.3350  0.0511 -0.0517
13609TIP3   OH262317   1.167   4.062   2.615  0.0299  0.2445  0.3804
13609TIP3    H162318   1.210   4.059   2.530 -1.0913 -0.8694 -0.1960
13609TIP3    H262319   1.238   4.064   2.679  1.0720 -3.0314 -0.4650
13610TIP3   OH262320   4.071   1.233  15.950 -0.0593 -0.0772 -1.0031
13610TIP3    H162321   4.064   1.261  15.859  2.9820  0.3936 -1.1719
13610TIP3    H262322   4.136   1.163  15.949  1.8041  1.4941  1.0589
13611TIP3   OH262323   0.253   0.327  10.944 -0.1052 -0.0885  0.0822
13611TIP3    H162324   0.269   0.262  10.876 -1.3432 -0.9721  0.5903
13611TIP3    H262325   0.268   0.280  11.026  0.3017  0.6543  0.4437
13612TIP3   OH262326   6.290   5.595   3.332  0.0857 -0.2054 -0.4121
13612TIP3    H162327   6.384   5.593   3.347  0.0260 -1.2820 -0.0741
13612TIP3    H262328   6.269   5.511   3.293 -0.7336  0.0349 -0.5291
13613TIP3   OH262329   6.225   0.583  13.503 -0.0792  0.2966  0.2044
13613TIP3    H162330   6.244   0.532  13.582 -0.2890 -2.0153 -1.1505
13613TIP3    H262331   6.191   0.519  13.441  0.2058  2.0191 -1.8339
13614TIP3   OH262332   5.569   5.316  15.011 -0.0922  0.3818  0.3162
13614TIP3    H162333   5.596   5.321  15.103  0.9622 -1.5349  0.1569
13614TIP3    H262334   5.494   5.376  15.005 -0.5442  0.1425  2.5532
13615TIP3   OH262335   4.901   6.633   0.678 -0.1554 -0.2466  0.7480
13615TIP3    H162336   4.925   6.715   0.720  3.2726 -0.0131 -1.2730
13615TIP3    H262337   4.867   6.658   0.593 -1.1325 -0.9107  0.9224
13616TIP3   OH262338   4.906   4.316  13.613 -0.3497 -0.0055 -0.3872
13616TIP3    H162339   4.964   4.392  13.602  0.0108  0.3432  2.8991
13616TIP3    H262340   4.823   4.354  13.643 -0.3986 -0.8369  0.5766
13617TIP3   OH262341   6.412   3.433  10.853  0.3116  0.1870 -0.0631
13617TIP3    H162342   6.387   3.342  10.838 -0.9583  0.7878 -1.9714
13617TIP3    H262343   6.507   3.434  10.840  0.2031 -0.7029 -1.1415
13618TIP3   OH262344   4.714   1.100   5.014  0.5887 -0.0198  0.2048
13618TIP3    H162345   4.724   1.005   5.011 -0.5290 -0.1289 -0.9111
13618TIP3    H262346   4.677   1.118   5.101 -0.1105 -0.7081  0.0549
13619TIP3   OH262347   1.027   0.293   1.032  0.1308  0.7469 -0.6564
13619TIP3    H162348   1.094   0.276   1.098  0.1805  0.3372 -0.8122
13619TIP3    H262349   1.037   0.386   1.012 -1.1806  1.3862  1.3545
13620TIP3   OH262350   6.414   2.922   3.908  0.2133  0.5872  0.6611
13620TIP3    H162351   6.361   2.845   3.887  0.5442 -0.0490  2.0465
13620TIP3    H262352   6.364   2.967   3.975  1.3662  0.0036  1.9624
13621TIP3   OH262353   5.005   4.070   1.477 -0.2278 -0.2823  0.4124
13621TIP3    H162354   5.026   3.986   1.517 -0.7366  0.6417  2.7763
13621TIP3    H262355   4.947   4.048   1.404 -1.2065 -1.9321  1.6201
13622TIP3   OH262356   6.546   4.879   5.588  0.3663  0.0364 -0.4976
13622TIP3    H162357   6.505   4.878   5.502  0.9292  0.2315 -0.7661
13622TIP3    H262358   6.562   4.972   5.606 -2.2779  0.3213  1.0244
13623TIP3   OH262359   0.498   3.892   2.724  0.2198  0.1803  0.2408
13623TIP3    H162360   0.465   3.804   2.704  0.2915  0.3883 -0.8427
13623TIP3    H262361   0.571   3.905   2.664  1.1685  0.4254  1.3996
13624TIP3   OH262362   5.925   6.610   6.087 -0.4969 -0.4845 -0.0584
13624TIP3    H162363   5.968   6.695   6.091  0.7415 -1.1064  0.3631
13624TIP3    H262364   5.835   6.627   6.117 -0.2058  0.6222  0.2395
13625TIP3   OH262365   5.388   6.010   1.520 -0.4902  0.2179  0.1666
13625TIP3    H162366   5.331   6.025   1.596 -0.7987  1.1824 -0.2302
13625TIP3    H262367   5.338   5.951   1.464 -0.5692  0.0715  0.3913
13626TIP3   OH262368   4.568   3.691   5.901 -0.1508 -0.0670 -0.2617
13626TIP3    H162369   4.587   3.700   5.995 -0.0262 -1.2697 -0.1561
13626TIP3    H262370   4.654   3.689   5.859 -0.2041  0.3427 -0.3951
13627TIP3   OH262371   6.259   5.525  12.883  0.0930 -0.6561  0.2600
13627TIP3    H162372   6.342   5.497  12.921 -0.8917 -1.3719  2.0020
13627TIP3    H262373   6.273   5.616  12.859  1.3948 -0.7858  0.4509
13628TIP3   OH262374   2.070   5.579   0.109 -0.5955  0.5029  0.0091
13628TIP3    H162375   2.076   5.495   0.154 -1.9575  1.1855  1.5457
13628TIP3    H262376   2.159   5.616   0.116  0.0342 -0.8054 -0.7557
13629TIP3   OH262377   2.668   0.720   3.259  0.4874  0.4460  0.6201
13629TIP3    H162378   2.580   0.744   3.285  0.6549 -0.0748  1.6925
13629TIP3    H262379   2.714   0.701   3.341  1.7428  1.1809  0.1324
13630TIP3   OH262380   2.972   4.737   2.641  0.1327 -0.1806  0.3040
13630TIP3    H162381   2.913   4.796   2.688  0.6561  0.4219  0.2151
13630TIP3    H262382   2.959   4.652   2.683 -1.8111 -0.3926 -0.6066
13631TIP3   OH262383   6.711   2.424   4.211 -0.2373 -0.5111 -0.1927
13631TIP3    H162384   6.795   2.427   4.256 -0.6629 -1.1738  0.6845
13631TIP3    H262385   6.657   2.489   4.255 -0.1141  0.1252 -0.9478
13632TIP3   OH262386   3.957   0.621   2.675  0.0189 -0.3954 -0.2533
13632TIP3    H162387   3.983   0.529   2.677  2.1106  0.0755 -1.7041
13632TIP3    H262388   3.862   0.620   2.662  0.0734 -2.3431 -0.7338
13633TIP3   OH262389   6.086   6.080   3.322 -0.6147  0.3201  0.2468
13633TIP3    H162390   6.114   6.171   3.315 -0.3139  0.1468 -1.0735
13633TIP3    H262391   5.992   6.085   3.343 -0.9392  0.9598 -1.2402
13634TIP3   OH262392   1.132   6.606  13.704 -0.3954  0.2359  0.1527
13634TIP3    H162393   1.188   6.567  13.771  1.0266  2.2458  0.2327
13634TIP3    H262394   1.069   6.538  13.683  0.4814 -1.2246  1.9433
13635TIP3   OH262395   5.165   5.930   0.973 -0.7486 -0.4021  0.0509
13635TIP3    H162396   5.110   6.007   0.989  0.7761  0.9554 -0.8587
13635TIP3    H262397   5.107   5.868   0.930 -1.3779  1.3606 -1.8249
13636TIP3   OH262398   1.914   2.724  17.055 -0.2645  0.1008  0.1866
13636TIP3    H162399   1.865   2.695  16.978 -0.1860  0.7526 -0.1131
13636TIP3    H262400   1.910   2.650  17.115 -0.5915 -0.2972 -0.3202
13637TIP3   OH262401   6.524   2.648   3.899 -0.5589 -0.0859 -0.4154
13637TIP3    H162402   6.477   2.668   3.980  2.1125  1.0743  0.9777
13637TIP3    H262403   6.522   2.730   3.850 -1.2357 -0.4780 -1.0715
13638TIP3   OH262404   1.321   1.724  11.642 -0.1378 -0.4775 -0.8220
13638TIP3    H162405   1.260   1.663  11.683 -0.2203 -1.2048 -1.9900
13638TIP3    H262406   1.401   1.673  11.630  0.4852  0.2608  0.0455
13639TIP3   OH262407   0.642   4.458   2.487  0.3096  0.4044  0.4350
13639TIP3    H162408   0.723   4.447   2.437 -1.3032  0.9972 -2.5215
13639TIP3    H262409   0.652   4.543   2.530  2.0063 -0.4001  1.7484
13640TIP3   OH262410   5.703   0.628   4.885 -0.0812 -0.3330 -0.3395
13640TIP3    H162411   5.670   0.704   4.932 -1.0487 -0.1293 -1.3150
13640TIP3    H262412   5.713   0.560   4.952  0.6832  0.5922  0.5219
13641TIP3   OH262413   2.027   3.495   2.575  0.1433 -0.4653 -0.4975
13641TIP3    H162414   2.034   3.527   2.485  1.0313 -1.2445 -0.7206
13641TIP3    H262415   1.936   3.514   2.600 -0.2544 -0.6603 -1.7135
13642TIP3   OH262416   5.329   1.755  16.548  0.0954  0.4932  0.2569
13642TIP3    H162417   5.284   1.730  16.467 -1.2786 -2.3938  1.7509
13642TIP3    H262418   5.374   1.675  16.576  0.4528  1.3790  2.3724
13643TIP3   OH262419   3.330   1.200   0.061 -0.3612 -0.3965 -0.7621
13643TIP3    H162420   3.368   1.269   0.115 -2.4196  0.2542 -0.0483
13643TIP3    H262421   3.402   1.139   0.046  0.1438 -1.2376  3.6583
13644TIP3   OH262422   1.230   5.064  12.649  0.1314 -0.4781 -0.5212
13644TIP3    H162423   1.275   5.111  12.579 -0.4412  2.4865  0.9541
13644TIP3    H262424   1.161   5.015  12.604  1.3062 -0.6437 -2.2358
13645TIP3   OH262425   6.721   1.418   5.614 -0.3718 -0.7163  0.0646
13645TIP3    H162426   6.795   1.414   5.553 -0.8483  0.5485 -0.6213
13645TIP3    H262427   6.757   1.383   5.696  1.4005  1.0391  0.1224
13646TIP3   OH262428   2.081   3.487  16.596  0.1272  0.2443  0.2246
13646TIP3    H162429   2.072   3.474  16.691 -0.6711 -1.7529 -0.0684
13646TIP3    H262430   2.000   3.454  16.559  0.2597  1.3733 -1.1599
13647TIP3   OH262431   2.822   2.565  14.839 -0.4591  0.0614 -0.4857
13647TIP3    H162432   2.882   2.490  14.831  1.5725  1.2409  2.1346
13647TIP3    H262433   2.776   2.551  14.921 -1.0780  1.0199 -0.6534
13648TIP3   OH262434   2.279   6.562  17.192 -0.2520 -0.1053 -0.6687
13648TIP3    H162435   2.238   6.576  17.277 -1.1697  0.6402 -1.2210
13648TIP3    H262436   2.314   6.473  17.197 -0.0021  0.0351  0.5962
13649TIP3   OH262437   6.053   6.658   2.800 -0.0113  0.2229  0.1412
13649TIP3    H162438   6.023   6.606   2.725 -0.3795 -1.0430  1.1042
13649TIP3    H262439   6.000   6.737   2.797 -1.0498 -0.4581 -0.1391
13650TIP3   OH262440   1.988   1.032   4.935  0.0477  0.1530 -0.0693
13650TIP3    H162441   1.955   0.983   4.860  1.2873  0.5751 -0.9126
13650TIP3    H262442   2.021   1.114   4.898  0.9452  0.2406  0.8817
13651TIP3   OH262443   3.884   1.207   2.568 -0.1556  0.0485  0.3626
13651TIP3    H162444   3.855   1.228   2.657  0.3491 -0.6713  0.7148
13651TIP3    H262445   3.862   1.114   2.558 -0.5040  0.2108 -0.3863
13652TIP3   OH262446   1.231   4.147   1.041 -0.4502  0.1578 -0.1725
13652TIP3    H162447   1.158   4.206   1.021  0.7798  1.5081 -0.9367
13652TIP3    H262448   1.206   4.064   1.002 -2.0690  0.2674  0.5733
13653TIP3   OH262449   0.840   3.702  11.864  0.4375 -0.1890 -0.2591
13653TIP3    H162450   0.779   3.715  11.791 -0.6944 -2.0758  0.2692
13653TIP3    H262451   0.801   3.751  11.936  0.9689  0.7637 -0.6039
13654TIP3   OH262452   3.997   1.816   1.165 -0.1239 -0.2913 -0.1022
13654TIP3    H162453   3.940   1.739   1.167 -0.3659 -0.1689 -1.4966
13654TIP3    H262454   3.953   1.881   1.220 -0.1039 -0.9978  0.7786
13655TIP3   OH262455   3.745   6.520   0.389 -0.7500 -0.7543  0.0694
13655TIP3    H162456   3.695   6.494   0.312 -0.6320  0.3680 -0.4022
13655TIP3    H262457   3.763   6.438   0.435  0.1276 -1.5873 -1.6774
13656TIP3   OH262458   5.521   4.060   3.880  0.3955  0.3732  0.1305
13656TIP3    H162459   5.472   4.086   3.802  0.5063 -0.3739 -0.2019
13656TIP3    H262460   5.477   4.105   3.952  0.0724  0.7926 -0.3232
13657TIP3   OH262461   3.273   6.171  14.668 -0.1129 -0.4851  0.4286
13657TIP3    H162462   3.234   6.201  14.586  0.2534 -0.9327  0.0796
13657TIP3    H262463   3.263   6.075  14.665 -1.6552 -0.4193  1.7089
13658TIP3   OH262464   3.596   4.246   3.753 -0.0396 -0.1786  0.4142
13658TIP3    H162465   3.537   4.287   3.816 -0.4151  1.2242 -0.7923
13658TIP3    H262466   3.683   4.262   3.789 -0.2387  0.7528  0.5284
13659TIP3   OH262467   0.887   1.628  15.786  0.5502 -0.0103  0.1374
13659TIP3    H162468   0.931   1.571  15.723  0.6266 -0.7918  0.8761
13659TIP3    H262469   0.915   1.717  15.763  2.7431 -0.4872  0.7396
13660TIP3   OH262470   6.709   3.539  16.055  0.2747 -0.3192 -0.3612
13660TIP3    H162471   6.719   3.473  16.124  0.4708 -0.4555 -0.5163
13660TIP3    H262472   6.693   3.488  15.975 -0.5608 -0.1424 -0.3136
13661TIP3   OH262473   5.430   1.993   4.023 -0.4760 -0.5100 -0.0424
13661TIP3    H162474   5.393   2.024   3.941 -1.4903 -0.6102  0.3629
13661TIP3    H262475   5.363   2.012   4.089  0.4464 -0.1511  0.8202
13662TIP3   OH262476   2.512   3.008   5.995  0.6504  0.2265 -0.1535
13662TIP3    H162477   2.561   2.996   5.914 -2.1157 -1.1503 -1.7817
13662TIP3    H262478   2.490   2.919   6.024  0.5438  0.7310  1.4495
13663TIP3   OH262479   3.173   1.586  15.177 -0.4459 -0.2697  0.1219
13663TIP3    H162480   3.259   1.552  15.149 -0.7476  0.5506 -1.9570
13663TIP3    H262481   3.111   1.518  15.150 -0.6581  0.1717 -0.5437
13664TIP3   OH262482   6.436   6.509   5.044 -1.0194 -0.0744  0.2559
13664TIP3    H162483   6.485   6.584   5.079 -1.8091 -0.3771  2.1046
13664TIP3    H262484   6.391   6.544   4.967  0.4579  0.7205 -0.2947
13665TIP3   OH262485   6.284   3.292   3.526 -0.1916  0.2592 -0.2305
13665TIP3    H162486   6.357   3.294   3.463 -0.5814 -0.4897 -0.7216
13665TIP3    H262487   6.250   3.203   3.519 -0.9974  0.5318  0.1847
13666TIP3   OH262488   6.343   3.910  12.570  0.3034  0.5796  0.6024
13666TIP3    H162489   6.396   3.907  12.650  0.2337  1.7437  0.7072
13666TIP3    H262490   6.293   3.829  12.572 -0.0363  0.7910  1.9858
13667TIP3   OH262491   6.269   2.899  14.943 -0.1574 -0.7537 -0.3341
13667TIP3    H162492   6.257   2.902  14.848  0.3358 -0.5946 -0.3954
13667TIP3    H262493   6.199   2.842  14.975 -0.3105 -0.8240 -0.7956
13668TIP3   OH262494   2.064   0.076   4.162 -0.2167  0.0531 -0.0655
13668TIP3    H162495   2.111   0.131   4.224 -1.2301  0.5967  0.2385
13668TIP3    H262496   2.034   0.001   4.214  1.4383 -1.0083 -0.5444
13669TIP3   OH262497   6.286   1.258   0.386  0.0376 -0.1205 -0.5716
13669TIP3    H162498   6.205   1.245   0.335 -0.5535  0.0195  0.3086
13669TIP3    H262499   6.283   1.350   0.412  1.2448  0.2891 -1.7878
13670TIP3   OH262500   3.629   6.365  15.959  0.4542  0.6609 -0.4225
13670TIP3    H162501   3.539   6.338  15.942  0.3381  1.1663 -0.6276
13670TIP3    H262502   3.633   6.455  15.929  1.8619 -0.2539 -3.2810
13671TIP3   OH262503   3.447   4.761   1.030 -0.4506  0.4927  0.0393
13671TIP3    H162504   3.488   4.835   0.987  0.2710  0.4406  0.6130
13671TIP3    H262505   3.493   4.753   1.114 -0.4062 -0.6825 -0.0686
13672TIP3   OH262506   1.382   1.505  13.501 -0.1462 -0.5178 -0.3649
13672TIP3    H162507   1.414   1.442  13.565 -1.1620 -1.4320 -0.7212
13672TIP3    H262508   1.429   1.483  13.421 -0.7055 -1.0186 -0.5610
13673TIP3   OH262509   5.812   3.948   3.734  0.4035  0.2733  0.1679
13673TIP3    H162510   5.786   4.011   3.801 -1.7312 -1.3262  0.9685
13673TIP3    H262511   5.816   3.864   3.781 -2.5466 -1.1560 -1.8463
13674TIP3   OH262512   0.904   6.449   1.677  0.5774  0.0390  0.1177
13674TIP3    H162513   0.871   6.487   1.596  3.1062  1.8734 -0.1796
13674TIP3    H262514   0.877   6.511   1.745  0.6400 -0.1298  0.2958
13675TIP3   OH262515   3.416   5.577  11.674  0.1280  0.2501 -0.5731
13675TIP3    H162516   3.451   5.525  11.601  0.7997  1.2051 -0.9476
13675TIP3    H262517   3.361   5.515  11.722  1.0752 -0.8853 -0.8748
13676TIP3   OH262518   2.624   5.090   1.103 -0.0650  0.6739 -0.7749
13676TIP3    H162519   2.649   5.181   1.116 -0.9710  1.3419 -3.0819
13676TIP3    H262520   2.700   5.050   1.062  0.5474  0.1937  0.7649
13677TIP3   OH262521   6.178   3.636  12.484  0.2600  0.2641 -0.3210
13677TIP3    H162522   6.141   3.690  12.554  0.1264  1.0815 -1.0047
13677TIP3    H262523   6.166   3.546  12.514  1.3439  0.6174  1.2823
13678TIP3   OH262524   1.691   4.918   4.359 -0.5959  0.2279 -0.3368
13678TIP3    H162525   1.750   4.979   4.314 -0.2546 -0.0552 -0.2822
13678TIP3    H262526   1.737   4.834   4.354 -1.8539 -0.4313 -2.0058
13679TIP3   OH262527   3.212   4.892   1.741 -0.2417 -0.1289  0.2421
13679TIP3    H162528   3.122   4.916   1.762 -0.2860 -0.1371  0.0655
13679TIP3    H262529   3.204   4.824   1.673 -0.1031 -0.0955  0.1915
13680TIP3   OH262530   4.360   4.323  16.553 -0.1371  0.1309 -0.4859
13680TIP3    H162531   4.312   4.284  16.481 -0.3302 -1.6897  0.5720
13680TIP3    H262532   4.447   4.284  16.549 -0.6451 -1.3031  1.2099
13681TIP3   OH262533   4.462   1.303  14.384 -0.4619 -0.1070 -0.0342
13681TIP3    H162534   4.512   1.233  14.344 -1.5376 -1.0409  0.2058
13681TIP3    H262535   4.506   1.319  14.468  0.2491  0.0730 -0.4298
13682TIP3   OH262536   5.862   6.825   1.335 -0.8030  0.6946 -0.1244
13682TIP3    H162537   5.793   6.801   1.272 -1.0350 -0.4196  0.5116
13682TIP3    H262538   5.924   6.752   1.329 -0.0695  1.3162 -0.1240
13683TIP3   OH262539   3.835   6.605   3.996 -0.2525 -0.2851  0.6715
13683TIP3    H162540   3.874   6.641   3.916 -0.5988  1.0411  1.0641
13683TIP3    H262541   3.780   6.676   4.029 -1.9571 -1.6182  0.8530
13684TIP3   OH262542   2.754   1.955  14.604 -0.0404  0.4699  1.0172
13684TIP3    H162543   2.671   1.975  14.560 -0.4492 -0.2521  1.4552
13684TIP3    H262544   2.816   2.019  14.567 -0.2754 -0.3475 -0.8883
13685TIP3   OH262545   0.485   5.150   1.274  0.6370 -0.2153 -0.1729
13685TIP3    H162546   0.545   5.174   1.344 -0.1431 -1.6021  1.0244
13685TIP3    H262547   0.527   5.076   1.230 -1.0028 -2.6877  2.0571
13686TIP3   OH262548   1.518   1.300  13.232  0.2192 -0.0256  0.1220
13686TIP3    H162549   1.598   1.255  13.259  1.2619  1.5594 -0.2176
13686TIP3    H262550   1.467   1.233  13.187  1.1539 -1.1683  0.7184
13687TIP3   OH262551   3.452   1.467  13.297  0.1436  0.0592 -0.3638
13687TIP3    H162552   3.415   1.382  13.318  2.3763 -1.0203 -0.4943
13687TIP3    H262553   3.501   1.452  13.216  0.8892  1.3532 -0.1824
13688TIP3   OH262554   6.637   0.045  14.375 -0.6429 -0.0690 -0.0389
13688TIP3    H162555   6.630  -0.047  14.403 -0.7553 -0.2185 -0.5527
13688TIP3    H262556   6.731   0.058  14.361 -0.6489 -0.1633 -0.1661
13689TIP3   OH262557   3.057   0.442  11.032 -0.1387 -0.3927  0.1333
13689TIP3    H162558   3.082   0.350  11.017  0.5024 -0.7105  2.6432
13689TIP3    H262559   2.990   0.460  10.967  1.0190 -2.0587 -1.6327
13690TIP3   OH262560   0.604   6.801   0.847 -0.1706 -0.1766 -0.4334
13690TIP3    H162561   0.541   6.861   0.888  1.5555  0.9458  0.7187
13690TIP3    H262562   0.688   6.828   0.883  1.1529 -0.8094 -2.8750
13691TIP3   OH262563   6.615   4.943   6.640 -0.4512 -0.3352  1.2864
13691TIP3    H162564   6.693   4.987   6.674  0.0901 -1.2124  1.1919
13691TIP3    H262565   6.634   4.930   6.547  0.1143 -2.2504  1.6367
13692TIP3   OH262566   5.617   3.382  15.126 -0.3973 -0.2759  0.0979
13692TIP3    H162567   5.587   3.305  15.077  0.4842 -0.4746 -0.1386
13692TIP3    H262568   5.696   3.352  15.171 -0.8325  0.0909  1.1414
13693TIP3   OH262569   1.098   3.061  15.784  0.1249  0.1873  0.3334
13693TIP3    H162570   1.109   3.142  15.736 -0.5409  0.6416  0.9217
13693TIP3    H262571   1.180   3.050  15.833  0.5989 -0.0158 -0.4893
13694TIP3   OH262572   4.933   3.069   1.665  0.3667 -0.2402  0.4048
13694TIP3    H162573   4.897   3.113   1.589  1.0632 -0.1122  0.1352
13694TIP3    H262574   4.979   3.138   1.714 -0.9780 -0.1034  1.5221
13695TIP3   OH262575   0.859   4.295  11.924 -0.1463 -0.0423 -0.3044
13695TIP3    H162576   0.890   4.370  11.873  0.4054 -0.4428 -0.5617
13695TIP3    H262577   0.889   4.219  11.876  0.7249 -0.4300  0.8175
13696TIP3   OH262578   0.363   0.544   0.280  0.4637 -0.1847 -0.5246
13696TIP3    H162579   0.339   0.596   0.204  0.4808  0.9690  0.2242
13696TIP3    H262580   0.426   0.480   0.247  0.3921  0.2256 -1.4925
13697TIP3   OH262581   4.437   5.225   5.000 -0.6754 -0.6503 -0.0631
13697TIP3    H162582   4.395   5.155   5.050  1.1879 -1.2223  0.7936
13697TIP3    H262583   4.379   5.238   4.924 -1.4044 -2.6805  0.0688
13698TIP3   OH262584   0.570   3.737   4.577 -0.3770 -0.3730 -0.0689
13698TIP3    H162585   0.566   3.655   4.528 -0.7535 -1.4954  1.7483
13698TIP3    H262586   0.663   3.755   4.587 -0.2022 -2.1944  2.0296
13699TIP3   OH262587   5.323   5.242   3.487  0.1845  0.4674 -0.1187
13699TIP3    H162588   5.368   5.229   3.571 -0.7465  2.1764  0.7084
13699TIP3    H262589   5.366   5.319   3.449 -0.5338  0.7327 -0.4044
13700TIP3   OH262590   0.864   5.955   0.922  0.1225 -0.0695 -0.2991
13700TIP3    H162591   0.825   5.970   1.008 -1.1750 -0.9666 -0.6874
13700TIP3    H262592   0.922   6.030   0.908 -0.7291  0.8226  0.7531
13701TIP3   OH262593   5.361   3.560   4.049  0.1359 -0.5359 -0.1068
13701TIP3    H162594   5.422   3.492   4.076  1.2377 -0.0249 -1.2001
13701TIP3    H262595   5.345   3.542   3.956 -0.6740 -0.1312 -0.0533
13702TIP3   OH262596   2.449   3.399   2.276  0.4409  0.3421  0.1317
13702TIP3    H162597   2.483   3.395   2.187 -2.1770  0.9593 -1.0009
13702TIP3    H262598   2.386   3.326   2.281 -0.2475  0.9768  1.0866
13703TIP3   OH262599   4.758   5.723  13.635  0.4285  0.1811 -0.0263
13703TIP3    H162600   4.730   5.747  13.547 -1.0589 -0.8277  0.1399
13703TIP3    H262601   4.744   5.629  13.641  1.4930  0.0503  0.9637
13704TIP3   OH262602   1.328   1.825  10.494  0.0727  0.1638  0.2827
13704TIP3    H162603   1.311   1.858  10.406  1.5550  0.5066  0.1008
13704TIP3    H262604   1.406   1.770  10.485 -0.4917 -0.8264  1.1651
13705TIP3   OH262605   3.558   4.766   1.376  0.2134  0.6353 -0.0267
13705TIP3    H162606   3.576   4.675   1.356  1.1309  0.5296  1.1782
13705TIP3    H262607   3.468   4.767   1.410  0.2759  0.1606  0.1440
13706TIP3   OH262608   0.335   1.771  16.698  0.1296 -0.0061 -0.2205
13706TIP3    H162609   0.399   1.842  16.691  0.0720 -0.0714 -1.6702
13706TIP3    H262610   0.252   1.811  16.672  0.0975 -0.5908 -1.0466
13707TIP3   OH262611   1.635   5.225  13.199 -0.5686 -0.2664  0.8773
13707TIP3    H162612   1.717   5.178  13.189  0.1812  1.2656 -0.4070
13707TIP3    H262613   1.570   5.170  13.155  0.4218  0.2105 -1.2537
13708TIP3   OH262614   3.041   0.503  17.034  0.0030  0.0627 -0.4483
13708TIP3    H162615   3.110   0.472  17.093  1.5743  0.0489 -2.2041
13708TIP3    H262616   3.060   0.459  16.951 -0.2961  2.3673 -1.8178
13709TIP3   OH262617   5.703   2.078   5.179  0.0071  0.7568  0.1355
13709TIP3    H162618   5.766   2.012   5.150  0.3964  0.6672  1.1482
13709TIP3    H262619   5.700   2.068   5.274 -0.3587  1.8328  0.2485
13710TIP3   OH262620   6.021   0.267   5.243 -0.1431 -0.3088 -0.4536
13710TIP3    H162621   6.055   0.282   5.155 -0.1919  2.3913 -0.1005
13710TIP3    H262622   6.096   0.281   5.301 -0.1493 -1.8919 -0.0095
13711TIP3   OH262623   1.051   2.304  13.304  0.8770 -0.3052  0.3431
13711TIP3    H162624   1.091   2.334  13.221 -0.7528  0.3314 -0.2411
13711TIP3    H262625   1.089   2.217  13.318 -0.0026 -1.1255 -1.9430
13712TIP3   OH262626   3.851   4.546  15.253  0.5106  0.1800  0.4018
13712TIP3    H162627   3.851   4.489  15.177 -0.3137  0.5985  0.0720
13712TIP3    H262628   3.770   4.525  15.299  1.3049 -0.5283  1.5290
13713TIP3   OH262629   3.263   6.444   5.463 -0.0469 -0.7254  0.0221
13713TIP3    H162630   3.237   6.474   5.376  1.1947  2.2172  0.5724
13713TIP3    H262631   3.339   6.388   5.448  0.0937 -0.3215 -0.8059
13714TIP3   OH262632   3.141   3.672   2.322 -0.3050  0.4746 -0.0489
13714TIP3    H162633   3.134   3.595   2.266 -0.8915  0.9856 -0.7050
13714TIP3    H262634   3.205   3.728   2.278  1.1689 -0.1949  1.1331
13715TIP3   OH262635   5.491   4.601   1.215 -0.5117 -0.2370  0.5714
13715TIP3    H162636   5.487   4.584   1.309  0.8507 -0.6829  0.5682
13715TIP3    H262637   5.502   4.696   1.208 -1.7995 -0.0507  0.8008
13716TIP3   OH262638   1.839   6.182  12.796  0.5016  0.2047 -0.3517
13716TIP3    H162639   1.923   6.168  12.753  1.3796  1.3687  0.8861
13716TIP3    H262640   1.844   6.272  12.830 -1.5085  0.5379 -0.8083
13717TIP3   OH262641   6.666   6.637   3.874 -0.2270 -0.4055  0.1295
13717TIP3    H162642   6.692   6.729   3.874  0.2256 -0.5173  1.0763
13717TIP3    H262643   6.579   6.636   3.915 -0.3158 -0.3782 -0.0582
13718TIP3   OH262644   5.254   1.483   5.986 -0.2955 -0.0736  0.1850
13718TIP3    H162645   5.342   1.473   6.022 -0.8051 -0.1667  1.4287
13718TIP3    H262646   5.221   1.565   6.024 -0.6996  0.0459 -0.3986
13719TIP3   OH262647   0.403   3.247  13.743  0.6230 -0.2625  0.1702
13719TIP3    H162648   0.400   3.255  13.647 -0.3355  0.1036  0.2164
13719TIP3    H262649   0.396   3.153  13.759  3.0366 -0.5601 -0.1515
13720TIP3   OH262650   1.296   6.358  15.952  0.3511  0.1225  0.5300
13720TIP3    H162651   1.373   6.301  15.943 -0.4555 -1.1269  1.1481
13720TIP3    H262652   1.260   6.335  16.038 -0.5894  0.8352  0.3426
13721TIP3   OH262653   3.831   0.918  11.046 -0.0361  0.2014 -0.1601
13721TIP3    H162654   3.854   0.943  10.957  0.9731 -1.2677 -0.3325
13721TIP3    H262655   3.806   0.826  11.041 -1.2907  0.4418  0.8693
13722TIP3   OH262656   0.161   5.249   4.233  0.0697  0.3966 -0.0437
13722TIP3    H162657   0.158   5.258   4.138  0.0717  2.4268  0.1195
13722TIP3    H262658   0.071   5.229   4.258  0.3079 -1.5233 -0.5455
13723TIP3   OH262659   5.356   5.484  12.747  0.5883  0.4551  0.2041
13723TIP3    H162660   5.429   5.458  12.690  0.8270 -0.8258  1.0461
13723TIP3    H262661   5.318   5.401  12.776 -1.9008  1.0614 -1.0308
13724TIP3   OH262662   2.217   6.070  14.445  0.0018  0.0236  0.4833
13724TIP3    H162663   2.259   6.040  14.365 -0.6337  0.0740  0.1234
13724TIP3    H262664   2.288   6.107  14.497  0.1851  1.5616 -0.7714
13725TIP3   OH262665   4.183   2.274  12.680  0.5385  0.3505  0.0346
13725TIP3    H162666   4.166   2.208  12.747  1.1664  0.5840  0.4343
13725TIP3    H262667   4.174   2.358  12.726 -0.3444  0.5541 -0.4902
13726TIP3   OH262668   6.048   2.309   4.039  0.1382  0.0645 -0.2049
13726TIP3    H162669   6.118   2.358   4.081  0.6583 -0.5167 -0.3795
13726TIP3    H262670   6.046   2.342   3.949  0.2781 -0.0119 -0.2363
13727TIP3   OH262671   5.503   1.776   3.706 -0.2922  0.0229  0.0744
13727TIP3    H162672   5.475   1.853   3.656 -0.2350  1.1566  1.6979
13727TIP3    H262673   5.555   1.813   3.778 -0.2012 -1.5434  0.8420
13728TIP3   OH262674   2.921   5.210   4.327  0.0310 -0.0920  0.6814
13728TIP3    H162675   2.968   5.173   4.402 -0.2990 -1.3378  0.2932
13728TIP3    H262676   2.831   5.221   4.359  0.3305  1.3929  1.1183
13729TIP3   OH262677   0.455   2.976   1.648  0.7624  0.0295  0.6593
13729TIP3    H162678   0.522   3.042   1.665  1.1327 -0.5227  1.4274
13729TIP3    H262679   0.397   2.980   1.724 -0.0388  0.4376  0.0442
13730TIP3   OH262680   3.971   5.306   2.259  0.1864  0.1382  0.4355
13730TIP3    H162681   4.022   5.290   2.180  0.8150  0.9669  0.6620
13730TIP3    H262682   3.896   5.358   2.229  0.0968 -0.0771  0.2878
13731TIP3   OH262683   2.077   2.199   5.034  0.0891 -0.2651 -0.6405
13731TIP3    H162684   2.123   2.230   5.112  0.2637 -2.9889  0.4482
13731TIP3    H262685   2.079   2.274   4.974 -0.9214  2.2972  2.2626
13732TIP3   OH262686   5.283   5.100  14.356 -0.5439  0.0502  0.1341
13732TIP3    H162687   5.210   5.056  14.399 -0.3651  0.2945  0.7079
13732TIP3    H262688   5.263   5.193  14.366 -0.4737  0.1096 -0.2736
13733TIP3   OH262689   4.927   5.991   2.971  0.4117  0.5106  0.5889
13733TIP3    H162690   4.866   6.059   2.945  1.0442  0.7352 -0.3547
13733TIP3    H262691   5.006   6.008   2.920  1.3452  0.3448  1.9132
13734TIP3   OH262692   5.559   6.517  13.210 -0.5691 -0.4665  0.4157
13734TIP3    H162693   5.538   6.591  13.153 -0.3651 -0.6560  0.0913
13734TIP3    H262694   5.494   6.450  13.186 -2.0787  0.2927  2.1145
13735TIP3   OH262695   1.815   4.697   2.363  0.4071  0.5095  0.4222
13735TIP3    H162696   1.813   4.616   2.414  1.3421  1.2053  1.6435
13735TIP3    H262697   1.850   4.671   2.278  0.0192 -0.4856  0.5566
13736TIP3   OH262698   6.529   1.767  15.232  0.3705  0.0637 -0.2540
13736TIP3    H162699   6.531   1.673  15.251 -2.0514 -0.2066 -1.0272
13736TIP3    H262700   6.485   1.774  15.148  0.1320  1.9256 -0.0215
13737TIP3   OH262701   5.151   5.630  14.530 -0.9666  0.1655  0.1958
13737TIP3    H162702   5.101   5.658  14.453 -3.1222  3.2235  2.4135
13737TIP3    H262703   5.089   5.577  14.580 -0.3953  0.1193  0.8621
13738TIP3   OH262704   2.924   1.812  14.006  0.0736  0.3585  0.3034
13738TIP3    H162705   2.982   1.755  13.955 -0.6044 -0.5133  0.4939
13738TIP3    H262706   2.890   1.756  14.076  0.5837  1.3980  1.4361
13739TIP3   OH262707   5.965   6.417   1.555 -0.3661  0.0212  0.2408
13739TIP3    H162708   5.977   6.329   1.590 -0.8989 -0.2764 -0.3102
13739TIP3    H262709   5.870   6.429   1.551 -0.3247  0.0502 -1.0648
13740TIP3   OH262710   4.675   4.689  14.261 -0.5918  0.2575 -0.5551
13740TIP3    H162711   4.711   4.754  14.321  1.2528 -0.0339 -1.2786
13740TIP3    H262712   4.646   4.618  14.319 -1.5921  1.2289  0.1633
13741TIP3   OH262713   5.249   2.699   2.811 -0.1509 -0.9000 -0.0691
13741TIP3    H162714   5.196   2.622   2.830 -1.8866  0.1246 -0.5810
13741TIP3    H262715   5.244   2.752   2.890 -1.5933  0.1166 -0.7958
13742TIP3   OH262716   1.269   5.858   1.071  0.7058  0.1907 -0.4973
13742TIP3    H162717   1.223   5.838   0.990 -0.3545  0.1658  0.0987
13742TIP3    H262718   1.270   5.775   1.119 -2.2689  1.0228  1.2692
13743TIP3   OH262719   0.371   2.345   3.649  0.2390 -0.2357 -0.1998
13743TIP3    H162720   0.406   2.260   3.623 -2.1759 -1.5809  0.6770
13743TIP3    H262721   0.301   2.325   3.711 -0.6538  2.3789 -0.2282
13744TIP3   OH262722   0.209   0.312  16.922  0.2337 -0.1834 -0.0326
13744TIP3    H162723   0.270   0.343  16.988  2.0190 -2.2724 -0.5574
13744TIP3    H262724   0.127   0.298  16.969  0.9130  0.1718  1.3006
13745TIP3   OH262725   5.638   3.431   3.896  0.3310  0.0210  0.5026
13745TIP3    H162726   5.635   3.464   3.986 -1.3652  0.5013  0.2993
13745TIP3    H262727   5.601   3.343   3.902 -0.8146  0.4679  0.1183
13746TIP3   OH262728   2.363   4.452  14.728  0.1477  0.3263  0.0062
13746TIP3    H162729   2.390   4.380  14.670  1.2856  1.6479 -1.1727
13746TIP3    H262730   2.277   4.425  14.761  0.9347 -1.9886  0.3451
13747TIP3   OH262731   5.931   2.605  12.823 -0.2857  0.2376 -0.2878
13747TIP3    H162732   5.995   2.674  12.834 -2.0064  1.6391  1.7211
13747TIP3    H262733   5.882   2.630  12.745 -1.5437  1.9527  0.9675
13748TIP3   OH262734   5.576   0.002   1.946  0.4132  0.0048 -0.3573
13748TIP3    H162735   5.589  -0.060   2.017  2.2865 -0.4904 -1.0727
13748TIP3    H262736   5.506   0.060   1.976 -1.4472 -2.4485  0.3176
13749TIP3   OH262737   5.496   2.831   6.467 -0.0823  0.2682  0.2335
13749TIP3    H162738   5.561   2.850   6.534  0.0978 -1.9369  0.7381
13749TIP3    H262739   5.437   2.906   6.469  1.0118  1.1345  1.4993
13750TIP3   OH262740   6.219   3.345  13.641  0.4084  0.3187  0.2638
13750TIP3    H162741   6.243   3.270  13.696  1.7889  1.6767  1.6062
13750TIP3    H262742   6.294   3.356  13.582 -0.7016 -0.6045 -1.4015
13751TIP3   OH262743   2.403   2.764  16.317  0.7940  0.0475  0.1079
13751TIP3    H162744   2.400   2.774  16.222 -0.9579 -0.0681  0.1167
13751TIP3    H262745   2.425   2.852  16.349  0.9326  0.1992 -0.3893
13752TIP3   OH262746   1.719   6.345  11.384  0.2768  0.1824  0.2183
13752TIP3    H162747   1.719   6.330  11.289  1.6872 -0.7064  0.3314
13752TIP3    H262748   1.795   6.402  11.398 -0.6622  1.3668  0.6915
13753TIP3   OH262749   0.087   6.341  16.683 -0.1060 -0.0879  0.7099
13753TIP3    H162750   0.086   6.246  16.669  0.9849 -0.0843  0.5434
13753TIP3    H262751   0.111   6.351  16.775  1.6683  0.0372  0.2695
13754TIP3   OH262752   1.940   2.356  10.625  0.2142 -0.3116  0.0379
13754TIP3    H162753   2.028   2.333  10.655  0.6083  0.8249 -0.2019
13754TIP3    H262754   1.905   2.413  10.693 -1.0428 -2.1017  0.9917
13755TIP3   OH262755   6.779   3.914   5.827 -0.2967 -0.4648  0.1386
13755TIP3    H162756   6.740   3.982   5.772  0.0698 -0.5399 -0.2197
13755TIP3    H262757   6.822   3.855   5.766  1.1935  0.1305  0.5614
13756TIP3   OH262758   1.104   0.144  12.643 -0.2570 -0.2483 -0.1963
13756TIP3    H162759   1.099   0.063  12.693 -0.0898 -1.2502 -1.7745
13756TIP3    H262760   1.091   0.213  12.709 -2.3139 -1.5806  0.8905
13757TIP3   OH262761   4.477   6.822   2.691  0.4598  0.0876 -0.2485
13757TIP3    H162762   4.393   6.775   2.691 -0.6865  2.0446 -0.6570
13757TIP3    H262763   4.488   6.852   2.601  0.4702  1.7138  0.2562
13758TIP3   OH262764   6.337   1.429  13.021 -0.7424  0.1641 -0.1444
13758TIP3    H162765   6.374   1.470  13.099 -0.5887  0.4015 -0.3387
13758TIP3    H262766   6.319   1.339  13.047 -0.8138  0.2782  0.2028
13759TIP3   OH262767   3.896   3.811   0.064  0.6690 -0.1828 -0.1028
13759TIP3    H162768   3.937   3.730   0.035  0.8777 -0.3973  0.7718
13759TIP3    H262769   3.966   3.876   0.060  0.8100 -0.3060  0.3198
13760TIP3   OH262770   3.403   4.902   6.524 -0.1581  0.3962  0.6986
13760TIP3    H162771   3.436   4.981   6.481 -1.4288  0.6637  0.1586
13760TIP3    H262772   3.466   4.834   6.503 -1.9277 -0.1536 -3.9090
13761TIP3   OH262773   0.631   4.586  14.790  0.0803  0.3193  0.3724
13761TIP3    H162774   0.631   4.491  14.804  1.6098 -0.0280 -1.5108
13761TIP3    H262775   0.704   4.618  14.843 -0.9316  0.6015  1.6433
13762TIP3   OH262776   0.106   4.289   3.070 -0.1223  0.6034 -0.2480
13762TIP3    H162777   0.187   4.274   3.117  0.1125  2.7638  0.1549
13762TIP3    H262778   0.061   4.358   3.119 -2.4368 -0.8020 -0.2093
13763TIP3   OH262779   1.182   2.573   5.274  0.2055  0.1786 -0.4884
13763TIP3    H162780   1.187   2.559   5.369 -2.7234  1.6720  0.0159
13763TIP3    H262781   1.160   2.487   5.239 -0.7149 -0.0151  0.4825
13764TIP3   OH262782   1.532   2.921  11.881 -0.4156 -0.3869  0.6807
13764TIP3    H162783   1.480   2.997  11.907  1.8063  1.7159 -0.6464
13764TIP3    H262784   1.493   2.893  11.797 -0.1682  0.4324  0.2819
13765TIP3   OH262785   5.378   6.001   6.483 -0.1770  0.1785 -0.2783
13765TIP3    H162786   5.307   5.938   6.469  0.8027 -1.2824  1.0518
13765TIP3    H262787   5.454   5.947   6.506  0.9596  1.7948 -0.0877
13766TIP3   OH262788   5.817   4.418  14.795 -0.4538 -0.8508 -0.3775
13766TIP3    H162789   5.899   4.383  14.828 -0.6766 -1.7396 -0.7599
13766TIP3    H262790   5.843   4.483  14.729 -0.0576 -0.6385 -0.0183
13767TIP3   OH262791   2.673   2.927  12.260 -0.2497 -0.0695 -0.3064
13767TIP3    H162792   2.700   2.966  12.177 -0.0217  0.7636  0.1506
13767TIP3    H262793   2.590   2.970  12.281 -1.4333 -1.8203 -1.1569
13768TIP3   OH262794   0.542   6.736   2.241  0.5600 -0.1909  0.6400
13768TIP3    H162795   0.596   6.702   2.169 -0.4318 -0.5968  0.0685
13768TIP3    H262796   0.605   6.775   2.301  1.2591  2.6547 -1.7208
13769TIP3   OH262797   5.907   4.135  15.225 -0.1740  0.5341 -0.1421
13769TIP3    H162798   5.819   4.170  15.235 -1.2303 -1.6764 -1.0097
13769TIP3    H262799   5.900   4.044  15.253  1.4314 -0.1623 -1.7913
13770TIP3   OH262800   6.790   1.302   1.665 -0.1968 -0.4902  0.5968
13770TIP3    H162801   6.872   1.270   1.628  0.4824  0.7039  1.0056
13770TIP3    H262802   6.724   1.280   1.599  0.8342  0.6965 -0.9215
13771TIP3   OH262803   2.024   1.958   1.120  0.2132 -0.2173  0.2152
13771TIP3    H162804   2.068   1.891   1.068 -0.1533 -0.4600  0.2079
13771TIP3    H262805   1.984   1.910   1.192  0.6550  0.1106  0.6799
13772TIP3   OH262806   6.073   1.469   4.044 -0.1184 -0.1020 -0.3776
13772TIP3    H162807   6.118   1.526   4.107 -0.0036 -0.4269 -0.1665
13772TIP3    H262808   6.017   1.529   3.995  0.1851  0.2329 -0.3213
13773TIP3   OH262809   6.531   4.247   2.602 -0.4566 -0.1340  0.4263
13773TIP3    H162810   6.621   4.278   2.593 -0.6962  0.3852 -0.2655
13773TIP3    H262811   6.535   4.154   2.581 -0.3165  0.1905 -1.0755
13774TIP3   OH262812   0.906   5.955   4.789  0.5765  0.1378 -0.8831
13774TIP3    H162813   0.900   5.914   4.875  1.1401  1.4119 -0.2074
13774TIP3    H262814   0.815   5.977   4.767  0.5370  0.7649 -0.1181
13775TIP3   OH262815   6.046   3.270  13.923  0.1469  0.3408 -0.1055
13775TIP3    H162816   6.132   3.313  13.921 -1.3840  4.0546  2.4980
13775TIP3    H262817   5.991   3.327  13.869 -1.0120 -1.3059 -0.7193
13776TIP3   OH262818   6.018   4.594  11.204  0.4299  0.6663  0.2009
13776TIP3    H162819   5.946   4.648  11.236 -0.9590 -0.5000 -0.8378
13776TIP3    H262820   6.010   4.512  11.252  1.6390  0.8243  0.7161
13777TIP3   OH262821   5.200   2.287  15.270  0.1302 -0.7785 -0.1389
13777TIP3    H162822   5.190   2.372  15.227 -1.6902 -1.2762 -0.7891
13777TIP3    H262823   5.118   2.275  15.318  0.9048 -1.5918  1.0114
13778TIP3   OH262824   3.533   4.124  12.066 -0.2260 -0.3738  0.2147
13778TIP3    H162825   3.509   4.150  12.155  1.3345  0.2534  0.4930
13778TIP3    H262826   3.502   4.033  12.058 -1.2550 -0.1058  1.0344
13779TIP3   OH262827   2.679   6.508   5.359  0.2063  0.3229  0.8139
13779TIP3    H162828   2.664   6.561   5.280 -0.0092  0.3868  0.8974
13779TIP3    H262829   2.757   6.547   5.399 -0.1141  0.7493  1.0236
13780TIP3   OH262830   4.539   0.983  13.858 -0.2605 -0.0667  0.0098
13780TIP3    H162831   4.486   1.052  13.898 -3.8470 -3.4544  1.8196
13780TIP3    H262832   4.475   0.924  13.818  2.4984 -2.6034 -1.0318
13781TIP3   OH262833   2.212   6.570  11.598 -0.3163 -0.9177 -0.5253
13781TIP3    H162834   2.190   6.570  11.691 -0.3187 -0.6729 -0.5245
13781TIP3    H262835   2.300   6.533  11.594 -0.0579 -0.3295 -0.3606
13782TIP3   OH262836   1.245   4.510   5.421 -0.6258  0.1383  0.2343
13782TIP3    H162837   1.286   4.446   5.362 -0.6402 -0.3193  0.7091
13782TIP3    H262838   1.157   4.522   5.386 -1.1664 -1.3031  1.0212
13783TIP3   OH262839   3.591   4.510  16.255 -0.5756 -0.7970 -0.1309
13783TIP3    H162840   3.666   4.477  16.206 -0.1866  1.6482 -1.3366
13783TIP3    H262841   3.520   4.449  16.233  0.2928 -1.3679 -1.5109
13784TIP3   OH262842   2.783   5.679   0.222 -0.3073  0.3890 -0.1249
13784TIP3    H162843   2.815   5.620   0.290 -1.9050 -0.6193 -0.2128
13784TIP3    H262844   2.691   5.657   0.212 -0.3531  1.2223 -1.9165
13785TIP3   OH262845   6.430   6.239  14.647 -0.3272 -0.6291  0.0292
13785TIP3    H162846   6.512   6.235  14.695 -0.1777 -0.7374 -0.2333
13785TIP3    H262847   6.452   6.207  14.559 -0.5659 -0.2963 -0.1540
13786TIP3   OH262848   1.790   1.556   5.510 -0.0214 -0.1677  0.1951
13786TIP3    H162849   1.871   1.506   5.529 -0.0707  0.2638  1.7064
13786TIP3    H262850   1.721   1.505   5.553 -0.3237  0.2757  0.2359
13787TIP3   OH262851   2.791   4.164   1.860 -0.2466  0.0375  0.1342
13787TIP3    H162852   2.820   4.092   1.803 -0.2481  0.5127 -0.4702
13787TIP3    H262853   2.840   4.151   1.941  0.1830 -0.3108 -0.1772
13788TIP3   OH262854   6.463   1.108   5.861 -0.5996  0.0725  0.3880
13788TIP3    H162855   6.548   1.153   5.862 -0.6407  0.2749  3.1062
13788TIP3    H262856   6.405   1.167   5.814  0.9549 -0.6679 -2.7472
13789TIP3   OH262857   0.707   2.952   4.151 -0.0558 -0.2014  0.4452
13789TIP3    H162858   0.795   2.962   4.188  0.2533 -0.7931 -0.0928
13789TIP3    H262859   0.716   2.981   4.060 -0.3758 -0.4198  0.3416
13790TIP3   OH262860   6.268   5.207  13.275  0.5991  0.8741  0.1344
13790TIP3    H162861   6.263   5.112  13.264  1.7425  0.6460  1.3586
13790TIP3    H262862   6.270   5.220  13.370 -0.0427  2.1679 -0.0049
13791TIP3   OH262863   6.707   5.289   0.002 -0.5387  0.4095 -0.1442
13791TIP3    H162864   6.625   5.248  -0.025 -0.7009  0.9020 -0.4144
13791TIP3    H262865   6.686   5.382   0.008  0.2395  0.6575 -1.1039
13792TIP3   OH262866   1.035   0.549  10.232  0.3272  0.5803 -0.2040
13792TIP3    H162867   1.111   0.511  10.187  1.1608  2.5036 -0.5089
13792TIP3    H262868   0.960   0.505  10.192  1.2176 -1.1337 -0.1221
13793TIP3   OH262869   5.882   1.850  14.827  0.0526  0.1303 -0.0146
13793TIP3    H162870   5.849   1.762  14.847 -2.2798  1.4419  2.6459
13793TIP3    H262871   5.841   1.873  14.744 -1.6194 -0.3101  0.6406
13794TIP3   OH262872   1.106   6.713   1.770 -0.0476 -0.6708  0.3802
13794TIP3    H162873   1.162   6.699   1.847  0.0683 -0.1579  0.3891
13794TIP3    H262874   1.023   6.670   1.793  0.0676 -0.7302  0.6923
13795TIP3   OH262875   4.991   6.256  13.481  0.5303  0.1704 -0.5141
13795TIP3    H162876   5.073   6.215  13.507 -0.0045  0.1190  1.2411
13795TIP3    H262877   4.930   6.235  13.552 -0.2892  2.3804 -0.4808
13796TIP3   OH262878   4.242   1.955   2.816  0.2508  0.3791  0.0253
13796TIP3    H162879   4.204   1.890   2.874  0.4623  1.4045  1.3738
13796TIP3    H262880   4.174   2.022   2.806 -0.3313 -0.4396 -2.1137
13797TIP3   OH262881   3.577   1.338   2.020 -0.4664 -0.4371 -0.0674
13797TIP3    H162882   3.659   1.294   2.039 -0.5035 -0.3871  0.2060
13797TIP3    H262883   3.587   1.369   1.930  0.4823  1.0336  0.5052
13798TIP3   OH262884   4.935   4.805   2.848 -0.6719 -0.8545 -0.6011
13798TIP3    H162885   4.871   4.854   2.795 -2.1021 -1.0631  0.8605
13798TIP3    H262886   4.912   4.714   2.834 -0.9210 -0.9197  0.1697
13799TIP3   OH262887   5.808   5.083   5.910 -0.2062  0.0190  0.6197
13799TIP3    H162888   5.799   5.076   6.005 -0.9966 -1.5315  0.4597
13799TIP3    H262889   5.804   5.177   5.892 -0.7413  0.2895  2.0620
13800TIP3   OH262890   6.533   5.533  16.666  0.0174  0.1527  0.2804
13800TIP3    H162891   6.579   5.452  16.644 -2.7067 -0.9463 -2.0365
13800TIP3    H262892   6.445   5.505  16.690 -1.0271  2.4056 -0.6299
13801TIP3   OH262893   3.685   1.437  15.528  0.0638  0.0098  0.1269
13801TIP3    H162894   3.613   1.419  15.589 -0.2066  0.8768  0.0702
13801TIP3    H262895   3.670   1.526  15.499  1.1089  0.1605  0.0276
13802TIP3   OH262896   4.164   5.580   2.296  0.1710 -0.3514 -0.2629
13802TIP3    H162897   4.174   5.506   2.236  1.4229  0.3703 -0.9900
13802TIP3    H262898   4.253   5.607   2.316 -0.2302 -0.1944  1.4936
13803TIP3   OH262899   1.333   5.695   2.395  0.7016  0.5005  0.1809
13803TIP3    H162900   1.383   5.635   2.340  1.2050  0.8144  0.2922
13803TIP3    H262901   1.336   5.655   2.482 -0.6037 -0.3120 -0.1127
13804TIP3   OH262902   0.849   2.887  12.527 -0.0826 -0.0799  0.8623
13804TIP3    H162903   0.794   2.890  12.605  0.4692  1.5362  1.2116
13804TIP3    H262904   0.903   2.809  12.538  2.0092  1.6084  3.5091
13805TIP3   OH262905   1.350   1.081   1.012  0.7601 -0.5430  0.1734
13805TIP3    H162906   1.359   1.175   1.001  0.3324 -0.4362  0.7031
13805TIP3    H262907   1.432   1.053   1.053  1.6576 -0.6918 -1.5837
13806TIP3   OH262908   1.334   6.035  15.092 -0.1039 -0.6610  0.0161
13806TIP3    H162909   1.402   5.991  15.143 -0.0236  0.7072  1.1834
13806TIP3    H262910   1.274   5.966  15.066  0.9446 -1.6881  0.2462
13807TIP3   OH262911   0.513   5.970   4.083  0.5337 -0.2634  0.3389
13807TIP3    H162912   0.584   5.921   4.126  0.5507 -0.7846 -0.2618
13807TIP3    H262913   0.556   6.015   4.010  0.9594  2.5473  2.2063
13808TIP3   OH262914   0.850   1.354   5.435  1.0218 -0.2891  0.0859
13808TIP3    H162915   0.882   1.351   5.525  1.4037  1.9374  0.0700
13808TIP3    H262916   0.848   1.447   5.413 -2.0594 -0.5400 -1.1658
13809TIP3   OH262917   0.116   4.202  16.872 -0.7695  0.1439  0.0181
13809TIP3    H162918   0.168   4.205  16.792 -0.9137  3.1974 -0.0694
13809TIP3    H262919   0.139   4.118  16.912  1.4002 -0.2530 -1.8388
13810TIP3   OH262920   2.593   3.114   1.727  0.0466 -0.4741 -0.1061
13810TIP3    H162921   2.508   3.075   1.706  0.2100 -0.2881 -1.1787
13810TIP3    H262922   2.643   3.042   1.765 -0.2594 -0.8577 -0.4122
13811TIP3   OH262923   5.237   4.916   2.092  0.3255  0.0407 -0.7016
13811TIP3    H162924   5.145   4.926   2.117  0.4044 -0.6379 -0.1134
13811TIP3    H262925   5.286   4.957   2.163  0.4655  1.8163 -1.7560
13812TIP3   OH262926   1.101   0.798   1.540  0.4022 -0.1483  0.2931
13812TIP3    H162927   1.133   0.864   1.601  0.2419  1.9046 -1.7245
13812TIP3    H262928   1.127   0.830   1.453 -0.6276 -2.1926 -0.8531
13813TIP3   OH262929   3.505   6.511   2.401  0.0623  0.1600  0.1894
13813TIP3    H162930   3.433   6.574   2.394 -0.1463 -0.0020  0.7986
13813TIP3    H262931   3.509   6.491   2.495 -0.2957 -1.2310 -0.0815
13814TIP3   OH262932   6.519   6.717   0.767 -0.0951 -0.4542  0.0199
13814TIP3    H162933   6.585   6.782   0.747  0.2085 -0.4573  0.9437
13814TIP3    H262934   6.489   6.685   0.682 -1.0588  1.6879 -0.5039
13815TIP3   OH262935   5.036   1.406   2.568  0.1384 -0.0579  0.5685
13815TIP3    H162936   5.115   1.393   2.515 -0.4336 -1.2698 -0.0339
13815TIP3    H262937   5.067   1.451   2.647  1.0129  1.7567 -0.7357
13816TIP3   OH262938   2.694   5.268   2.579 -0.1318  0.2575  0.1182
13816TIP3    H162939   2.768   5.207   2.581 -0.8100 -0.6327 -0.8215
13816TIP3    H262940   2.650   5.255   2.663  0.2736  0.1384  0.3115
13817TIP3   OH262941   4.529   3.223  13.970 -0.3206  0.0400 -0.1631
13817TIP3    H162942   4.586   3.289  13.931 -0.2633  0.5407  0.7319
13817TIP3    H262943   4.523   3.154  13.904  1.7757 -0.3065 -0.0584
13818TIP3   OH262944   1.277   2.221   6.307 -0.5695 -0.0166  0.2362
13818TIP3    H162945   1.322   2.163   6.368  2.0568  1.1904 -0.3987
13818TIP3    H262946   1.278   2.173   6.224 -0.7929 -0.1197  0.2904
13819TIP3   OH262947   3.908   1.110  11.280  0.3919 -0.3385  0.0076
13819TIP3    H162948   3.848   1.097  11.207  1.8757  1.0415 -1.5605
13819TIP3    H262949   3.995   1.096  11.242  1.3700  2.6879  0.8606
13820TIP3   OH262950   1.821   0.013  16.548 -0.3478 -0.4442  0.4108
13820TIP3    H162951   1.901   0.008  16.600 -0.0425 -2.7272 -0.1608
13820TIP3    H262952   1.834   0.090  16.492  0.2032  0.8371  2.2263
13821TIP3   OH262953   1.735   6.732   2.243 -0.6155 -0.2594  0.1416
13821TIP3    H162954   1.768   6.728   2.333 -0.5157 -1.5886  0.0717
13821TIP3    H262955   1.786   6.666   2.196 -0.1981  0.8739 -1.0641
13822TIP3   OH262956   0.602   0.107  14.304  0.0242  0.9240 -0.3597
13822TIP3    H162957   0.551   0.072  14.377 -0.5201  3.2773  0.4979
13822TIP3    H262958   0.605   0.201  14.321  2.1612  1.2214 -1.9864
13823TIP3   OH262959   3.771   1.886   2.951 -0.4529  0.3639 -0.2946
13823TIP3    H162960   3.818   1.960   2.990 -1.3508  0.1569  1.2746
13823TIP3    H262961   3.728   1.922   2.874  0.5517  1.0488 -0.5435
13824TIP3   OH262962   4.621   5.863  11.698 -0.2119 -0.3084 -0.4536
13824TIP3    H162963   4.597   5.952  11.725 -1.0993 -0.3715 -1.0005
13824TIP3    H262964   4.662   5.874  11.612  2.6594 -0.1013  0.8124
13825TIP3   OH262965   5.234   0.720   2.474  0.1336  0.3538  0.3242
13825TIP3    H162966   5.282   0.796   2.442 -0.3469 -0.3023 -2.1150
13825TIP3    H262967   5.143   0.735   2.448 -0.5876  0.3618  2.5950
13826TIP3   OH262968   4.733   0.834   4.924  0.0338  0.3466  0.1559
13826TIP3    H162969   4.760   0.744   4.904  0.6917  0.6091 -0.1520
13826TIP3    H262970   4.720   0.875   4.838  0.9008  0.8880  0.2705
13827TIP3   OH262971   2.103   3.492   5.093  0.5321  0.8190 -0.0809
13827TIP3    H162972   2.079   3.419   5.151 -0.2306  0.7439 -0.4800
13827TIP3    H262973   2.194   3.474   5.069  0.5721  0.3742  0.3776
13828TIP3   OH262974   6.717   4.129   1.984  0.1708 -0.4133  0.1204
13828TIP3    H162975   6.641   4.108   2.037  0.5826  0.9159  1.3079
13828TIP3    H262976   6.789   4.080   2.024  0.6430  1.2004  1.3731
13829TIP3   OH262977   6.205   2.287   0.623  0.3208 -0.0895  0.5868
13829TIP3    H162978   6.286   2.240   0.645  1.5833  1.5781 -0.3425
13829TIP3    H262979   6.234   2.370   0.586 -1.7983 -0.1409 -1.4029
13830TIP3   OH262980   3.559   0.072  16.365  0.2804  0.0167 -0.2095
13830TIP3    H162981   3.651   0.055  16.384  0.3451 -1.0987 -1.3755
13830TIP3    H262982   3.555   0.077  16.269 -0.9911 -0.7981 -0.2219
13831TIP3   OH262983   3.701   4.697   5.461 -0.4780  0.5328  0.1745
13831TIP3    H162984   3.734   4.684   5.550 -3.7306  1.5653  1.6844
13831TIP3    H262985   3.685   4.608   5.429  0.1161  0.1617  0.8740
13832TIP3   OH262986   1.532   2.459  11.642 -0.2534  0.2266  0.2899
13832TIP3    H162987   1.487   2.392  11.693 -1.2280  0.3943 -0.3236
13832TIP3    H262988   1.565   2.412  11.565 -2.7687  0.7749 -1.2250
13833TIP3   OH262989   5.349   5.250  14.675  0.1686 -0.4893  0.4130
13833TIP3    H162990   5.439   5.229  14.700  0.7420  0.4938 -0.7069
13833TIP3    H262991   5.358   5.323  14.613 -1.2451 -1.7329 -1.3780
13834TIP3   OH262992   0.357   6.234   3.045 -0.6668 -0.7056  0.0880
13834TIP3    H162993   0.358   6.146   3.082 -0.0251 -0.3845  0.8792
13834TIP3    H262994   0.265   6.260   3.044 -0.6350 -0.3306  2.4749
13835TIP3   OH262995   5.099   5.034  13.036 -0.3705 -0.2189  0.3220
13835TIP3    H162996   5.063   4.953  13.074 -0.2520 -0.2773  0.3090
13835TIP3    H262997   5.057   5.104  13.086  1.5781 -0.2923  2.2395
13836TIP3   OH262998   0.154   6.053   2.556 -0.0530 -0.2164  0.1304
13836TIP3    H162999   0.106   6.122   2.511  1.8120  1.0089 -0.1111
13836TIP3    H263000   0.132   6.065   2.649  0.2583  0.7537  0.0921
13837TIP3   OH263001   2.847   3.358  12.131 -0.6809 -0.3478  0.1038
13837TIP3    H163002   2.940   3.342  12.147 -0.8030 -0.1612  1.0196
13837TIP3    H263003   2.811   3.383  12.216 -1.1389  1.7120 -0.6378
13838TIP3   OH263004   5.110   6.662   3.502 -0.4384 -0.2704  0.0299
13838TIP3    H163005   5.141   6.752   3.509 -3.8534  1.0359  0.5396
13838TIP3    H263006   5.118   6.640   3.409  0.4638  0.5413 -0.0959
13839TIP3   OH263007   5.054   3.896  14.858  0.1069  0.0767 -0.2939
13839TIP3    H163008   5.099   3.829  14.807  1.7718 -0.9858  2.3647
13839TIP3    H263009   4.968   3.858  14.877  0.8183 -1.1348  0.6817
13840TIP3   OH263010   3.835   0.139   3.610  0.0640  0.0093  0.1051
13840TIP3    H163011   3.760   0.163   3.665 -1.1115  1.2354 -1.9358
13840TIP3    H263012   3.800   0.078   3.546  0.9957 -0.0067 -0.4074
13841TIP3   OH263013   0.187   0.104   0.582 -0.3054 -0.1255  0.2857
13841TIP3    H163014   0.237   0.170   0.534  0.3418  0.8019  2.1276
13841TIP3    H263015   0.096   0.133   0.577 -0.4901 -0.8963 -1.6365
13842TIP3   OH263016   0.285   3.474   3.200  0.1129 -0.1307  0.1107
13842TIP3    H163017   0.322   3.508   3.282 -1.2840 -0.4582  0.9173
13842TIP3    H263018   0.201   3.520   3.192 -0.9792 -1.9894  0.2595
13843TIP3   OH263019   3.997   5.710   1.742  0.0218 -0.7151 -1.2068
13843TIP3    H163020   3.918   5.672   1.703 -0.6043 -1.2559  0.4732
13843TIP3    H263021   4.066   5.647   1.722 -0.9451 -2.7702  1.3119
13844TIP3   OH263022   6.247   0.611   5.219 -0.0234 -0.7882  0.5295
13844TIP3    H163023   6.155   0.610   5.194 -0.4488  0.2564  1.9285
13844TIP3    H263024   6.248   0.649   5.307  1.8734  0.5364 -0.0074
13845TIP3   OH263025   2.562   0.090   2.816  0.5772 -0.2056  0.5779
13845TIP3    H163026   2.499   0.049   2.756 -0.1278  1.8677 -0.1693
13845TIP3    H263027   2.643   0.095   2.765  0.4308  0.0659  0.3673
13846TIP3   OH263028   1.426   3.239  13.725  0.4969  0.4678  0.1018
13846TIP3    H163029   1.442   3.327  13.690  3.2001  0.2713  0.5740
13846TIP3    H263030   1.411   3.185  13.647 -0.3286  1.1799 -0.2481
13847TIP3   OH263031   2.599   1.175  15.122 -0.2292  0.7803  0.0905
13847TIP3    H163032   2.576   1.264  15.148  0.3377  0.9192  0.1350
13847TIP3    H263033   2.550   1.160  15.041 -0.9508  0.8321  0.5091
13848TIP3   OH263034   1.538   5.039  11.736  0.1175  0.4585  0.1879
13848TIP3    H163035   1.489   5.074  11.661  1.2047  3.5759  0.7664
13848TIP3    H263036   1.625   5.077  11.727  0.2257  1.1060  3.1095
13849TIP3   OH263037   4.952   2.254  15.408  0.3390  0.3873  0.3706
13849TIP3    H163038   4.992   2.221  15.488  2.0792  2.8145  0.6198
13849TIP3    H263039   4.915   2.339  15.433 -0.2896  0.5815 -1.1072
13850TIP3   OH263040   3.264   0.966   1.933 -0.5471 -0.0250 -0.0647
13850TIP3    H163041   3.271   0.874   1.958 -1.4282 -0.0603  0.0910
13850TIP3    H263042   3.254   0.964   1.837  0.9211  0.0049 -0.2404
13851TIP3   OH263043   3.928   1.720   4.048  0.3656 -0.2544  0.0900
13851TIP3    H163044   4.019   1.745   4.065  0.2843 -0.3795  0.7404
13851TIP3    H263045   3.890   1.711   4.135 -0.5172  0.7098 -0.1722
13852TIP3   OH263046   0.324   2.534   3.954  0.5259 -0.2754 -0.6374
13852TIP3    H163047   0.243   2.540   4.004  0.4558 -0.5333 -0.7180
13852TIP3    H263048   0.333   2.620   3.912 -0.2464 -0.5830 -1.4647
13853TIP3   OH263049   6.136   5.750  14.197  0.2759 -0.1594  0.5060
13853TIP3    H163050   6.072   5.785  14.136  1.5606  1.1076 -0.1781
13853TIP3    H263051   6.220   5.762  14.153  1.0231 -1.4206  1.5326
13854TIP3   OH263052   1.124   0.172   3.783 -0.6044  0.5223  0.6180
13854TIP3    H163053   1.048   0.123   3.815 -0.4063  0.0634  0.3906
13854TIP3    H263054   1.194   0.107   3.779 -0.2114  0.9325  0.7753
13855TIP3   OH263055   3.242   2.617   1.563  0.0035  0.0395 -0.5775
13855TIP3    H163056   3.273   2.612   1.472 -0.3417 -0.3793 -0.6753
13855TIP3    H263057   3.322   2.628   1.615  0.2120  0.1816 -0.9245
13856TIP3   OH263058   3.054   4.636   2.353 -0.1106 -0.1761 -0.4316
13856TIP3    H163059   3.031   4.637   2.446 -0.0693 -2.9638 -0.2912
13856TIP3    H263060   2.972   4.614   2.309  0.0696  0.2222 -0.9745
13857TIP3   OH263061   4.899   1.565  16.266 -0.4986  0.0283  0.1126
13857TIP3    H163062   4.854   1.560  16.182  1.1522  2.5599 -1.0408
13857TIP3    H263063   4.880   1.654  16.298 -2.0807 -1.2294  3.0901
13858TIP3   OH263064   0.656   3.419   1.210  0.5986 -0.3601 -0.5636
13858TIP3    H163065   0.669   3.491   1.271  0.0038 -0.1951 -0.6268
13858TIP3    H263066   0.730   3.426   1.149 -1.5485  2.8998 -3.2127
13859TIP3   OH263067   6.398   6.357  13.466  0.5104  0.5140  0.1651
13859TIP3    H163068   6.372   6.425  13.528  1.0556  1.4169 -0.5796
13859TIP3    H263069   6.325   6.295  13.467 -1.7289  2.8875 -1.7507
13860TIP3   OH263070   2.672   1.663   5.571 -0.0309  0.1604  0.6024
13860TIP3    H163071   2.740   1.683   5.507  0.0634  1.4685  1.1005
13860TIP3    H263072   2.620   1.743   5.577 -1.2571 -0.6100  0.6857
13861TIP3   OH263073   5.650   6.675   2.660  0.5926  0.0598 -0.5111
13861TIP3    H163074   5.600   6.595   2.677  1.5612 -0.2087  1.4634
13861TIP3    H263075   5.585   6.745   2.662  0.0205 -0.4716  0.0426
13862TIP3   OH263076   1.244   1.063  13.720  0.1372  0.6311 -0.1429
13862TIP3    H163077   1.338   1.052  13.711  0.3591  0.4674  1.8726
13862TIP3    H263078   1.206   0.990  13.671  1.1392 -0.3509  0.4976
13863TIP3   OH263079   0.904   5.252   3.454  0.1594 -0.5148  0.7256
13863TIP3    H163080   0.995   5.280   3.441 -0.0526  0.0315  0.4338
13863TIP3    H263081   0.908   5.156   3.445  0.2426 -0.3039 -2.1348
13864TIP3   OH263082   5.428   4.404   0.204 -0.2168 -0.5775  0.1082
13864TIP3    H163083   5.388   4.491   0.206 -1.2410 -0.9872 -1.4443
13864TIP3    H263084   5.374   4.351   0.262  0.9779  0.0068  1.8351
13865TIP3   OH263085   2.043   1.219  14.951 -0.6225 -0.2868 -0.5364
13865TIP3    H163086   2.076   1.226  14.861 -1.8337  0.0219 -0.9681
13865TIP3    H263087   1.960   1.266  14.950 -1.1019 -1.0783  0.5220
13866TIP3   OH263088   2.436   5.631   2.648  0.4548 -0.0135  0.1353
13866TIP3    H163089   2.420   5.598   2.560 -0.7407 -0.1304  0.3798
13866TIP3    H263090   2.516   5.586   2.676 -1.7067 -3.7694  0.9203
13867TIP3   OH263091   5.733   5.063  16.658  0.6842  0.5214  0.2603
13867TIP3    H163092   5.723   5.086  16.751  1.8528  0.4025  0.4318
13867TIP3    H263093   5.767   4.973  16.659 -0.2547  0.1413 -0.3213
13868TIP3   OH263094   0.856   1.248  12.738 -0.3789 -0.5557  0.1096
13868TIP3    H163095   0.789   1.305  12.775 -0.2193 -0.2119 -0.1239
13868TIP3    H263096   0.818   1.160  12.742 -0.2659 -0.5757  1.3264
13869TIP3   OH263097   6.369   6.144  16.792 -0.5403 -0.2814  0.1030
13869TIP3    H163098   6.338   6.114  16.706 -1.3844  0.9807 -0.0659
13869TIP3    H263099   6.290   6.175  16.836  0.1860  1.1341  0.4713
13870TIP3   OH263100   5.921   4.042  11.858 -0.0079  0.0931 -0.1145
13870TIP3    H163101   5.934   4.123  11.908  0.1339  0.1491 -0.2412
13870TIP3    H263102   6.007   4.001  11.856  0.2609  0.6781 -1.3204
13871TIP3   OH263103   3.177   3.536  13.422  0.5527  0.5094  0.1130
13871TIP3    H163104   3.184   3.450  13.379  2.0705  1.3302 -1.3806
13871TIP3    H263105   3.168   3.515  13.515 -0.0333 -1.2739 -0.2908
13872TIP3   OH263106   5.496   2.087  14.311  0.6324 -0.3661 -0.5140
13872TIP3    H163107   5.539   2.156  14.361  1.4160 -0.9328 -0.3932
13872TIP3    H263108   5.567   2.029  14.284  0.1905 -0.2706 -1.9850
13873TIP3   OH263109   4.465   1.445   3.044  0.2399  0.1654  0.2467
13873TIP3    H163110   4.492   1.376   3.105  2.3016  0.6732 -0.0075
13873TIP3    H263111   4.511   1.424   2.963 -0.6899  0.7547 -0.4506
13874TIP3   OH263112   3.278   5.660   0.563  0.3275 -0.3632  0.0171
13874TIP3    H163113   3.342   5.643   0.494  0.4987  0.9162 -0.1565
13874TIP3    H263114   3.299   5.748   0.594 -1.5234  0.2129 -0.2395
13875TIP3   OH263115   6.363   4.356   4.902 -0.0000 -0.2122 -0.6069
13875TIP3    H163116   6.454   4.330   4.916 -0.4960 -1.3047  0.8953
13875TIP3    H263117   6.361   4.392   4.814  1.8290 -0.4079 -0.7613
13876TIP3   OH263118   5.736   1.427  13.222  0.1067 -0.2931 -0.6945
13876TIP3    H163119   5.645   1.402  13.201 -0.3372  1.3801 -0.8628
13876TIP3    H263120   5.776   1.445  13.136  0.3498 -0.2186 -0.5659
13877TIP3   OH263121   3.882   0.083   6.733 -0.0053 -0.2111  0.1282
13877TIP3    H163122   3.967   0.062   6.695  0.4316  0.0957  0.9020
13877TIP3    H263123   3.835  -0.000   6.735  0.7249 -0.6183  0.7816
13878TIP3   OH263124   5.215   6.475  12.743 -0.3240 -0.1486 -0.4005
13878TIP3    H163125   5.147   6.502  12.805 -0.1468  0.8392 -0.6324
13878TIP3    H263126   5.169   6.464  12.660 -0.4588 -0.9442 -0.2375
13879TIP3   OH263127   6.123   1.042  15.726 -0.3324 -0.0975  0.0534
13879TIP3    H163128   6.072   0.963  15.742 -0.9294  0.5046  1.3257
13879TIP3    H263129   6.080   1.084  15.652  0.4819 -1.3413 -1.1696
13880TIP3   OH263130   3.666   2.656   0.127 -0.8727  0.5696 -0.3589
13880TIP3    H163131   3.592   2.603   0.098  0.5070 -1.9321  0.3935
13880TIP3    H263132   3.646   2.680   0.217 -0.5639 -0.5386  0.0118
13881TIP3   OH263133   1.228   2.912  11.381 -0.2444  0.2163  0.3646
13881TIP3    H163134   1.160   2.856  11.343 -0.4776 -0.1676  1.3359
13881TIP3    H263135   1.310   2.868  11.358 -0.3833  0.0032  0.2733
13882TIP3   OH263136   0.623   4.589   1.383 -0.2049 -0.4547 -0.0403
13882TIP3    H163137   0.593   4.678   1.364  0.4905  0.1264  1.4265
13882TIP3    H263138   0.705   4.581   1.334 -1.0826 -0.9205 -1.5095
13883TIP3   OH263139   5.302   4.507   6.042 -0.1766 -0.3272 -0.4428
13883TIP3    H163140   5.341   4.591   6.066 -2.5740  1.1419 -1.4156
13883TIP3    H263141   5.376   4.446   6.039  1.8099  1.9792 -0.8556
13884TIP3   OH263142   1.384   4.604  16.891 -0.4086 -0.6073  0.0189
13884TIP3    H163143   1.333   4.551  16.829  1.4609 -1.8074 -0.5860
13884TIP3    H263144   1.467   4.557  16.899  0.3614  0.9173  1.4699
13885TIP3   OH263145   2.181   2.052  11.412 -0.1942 -0.4087 -0.2611
13885TIP3    H163146   2.158   2.136  11.374  1.0282 -0.4508 -1.1577
13885TIP3    H263147   2.102   1.999  11.403 -0.9438  0.5942  0.2254
13886TIP3   OH263148   6.250   4.414  15.261 -0.1092  0.1351  0.0015
13886TIP3    H163149   6.278   4.334  15.216  1.5728  1.3231 -1.1593
13886TIP3    H263150   6.156   4.421  15.241 -0.7337 -2.3983  1.5623
13887TIP3   OH263151   2.266   4.766  13.320 -0.1397 -0.3772  0.0299
13887TIP3    H163152   2.235   4.730  13.404  0.5712  0.4594  0.6690
13887TIP3    H263153   2.356   4.734  13.312  0.4031  0.9842  0.4676
13888TIP3   OH263154   5.684   6.353   3.109 -0.0266  0.7079  0.4912
13888TIP3    H163155   5.754   6.341   3.044 -0.2319  0.0296  0.3957
13888TIP3    H263156   5.604   6.327   3.063 -0.2331  0.6632  0.8767
13889TIP3   OH263157   0.890   4.625   1.312  0.0654  0.4725  0.2969
13889TIP3    H163158   0.952   4.597   1.379 -0.1919 -1.9623 -0.3779
13889TIP3    H263159   0.944   4.663   1.243  0.7973 -1.0150  0.0064
13890TIP3   OH263160   3.520   4.661   0.206  0.3090  0.2734  0.0656
13890TIP3    H163161   3.572   4.644   0.127  0.7239  0.7850  0.2185
13890TIP3    H263162   3.498   4.754   0.200  0.1146  0.2499  0.4158
13891TIP3   OH263163   6.427   1.298   5.399  0.8708 -0.6480 -0.2444
13891TIP3    H163164   6.401   1.284   5.489  2.7727 -1.1723  0.2761
13891TIP3    H263165   6.354   1.347   5.360  0.0182 -0.3999  1.5532
13892TIP3   OH263166   6.185   3.125  11.331 -0.7732  0.2435  0.1784
13892TIP3    H163167   6.123   3.189  11.295  0.6683  1.3505 -0.4836
13892TIP3    H263168   6.266   3.141  11.282  0.5133 -0.0309  2.1094
13893TIP3   OH263169   1.437   5.508   6.055 -0.0566  0.4087 -0.2169
13893TIP3    H163170   1.505   5.575   6.047 -1.0263  1.3415 -0.9102
13893TIP3    H263171   1.363   5.554   6.094 -0.3109 -0.5983  0.5472
13894TIP3   OH263172   5.996   4.983  14.036  0.1758 -0.8207  0.1523
13894TIP3    H163173   5.968   4.956  14.123  0.4391  0.4645  0.6558
13894TIP3    H263174   5.982   5.078  14.035  1.1575 -0.6713 -0.8407
13895TIP3   OH263175   2.430   5.868   1.743 -0.2973 -0.0531 -0.1183
13895TIP3    H163176   2.420   5.835   1.832  0.6403 -2.1730 -0.7122
13895TIP3    H263177   2.348   5.845   1.699  0.0986 -1.0721 -0.3550
13896TIP3   OH263178   1.520   2.972   1.364 -0.5585  0.0463 -0.1051
13896TIP3    H163179   1.541   2.947   1.274  1.7050  0.4189  0.2742
13896TIP3    H263180   1.459   3.045   1.355 -0.2700  0.1594 -1.3214
13897TIP3   OH263181   6.161   5.162  15.567  0.1187  1.2316  0.6461
13897TIP3    H163182   6.218   5.202  15.632  0.2539  1.5470  0.3344
13897TIP3    H263183   6.146   5.073  15.600  2.3039  0.4751 -0.1743
13898TIP3   OH263184   1.088   4.992  11.278  0.0419 -0.2827 -0.0160
13898TIP3    H163185   1.112   5.084  11.290 -0.0261 -0.5066  2.2190
13898TIP3    H263186   1.030   4.992  11.203 -0.7965  1.6641  0.5715
13899TIP3   OH263187   6.003   2.487   2.906  0.2216  0.1033  0.4675
13899TIP3    H163188   5.938   2.554   2.882  0.1453  0.6198  2.0038
13899TIP3    H263189   6.083   2.537   2.921  0.7380 -0.4242 -0.4559
13900TIP3   OH263190   6.676   6.090   2.335  0.4060 -0.1341 -0.3157
13900TIP3    H163191   6.586   6.120   2.339  0.2597 -0.6525  0.4378
13900TIP3    H263192   6.682   6.043   2.252  0.3241  0.9304 -0.9423
13901TIP3   OH263193   5.576   5.855   5.377  0.0645 -0.1634  0.0127
13901TIP3    H163194   5.630   5.787   5.339  0.1442 -0.4616  0.6404
13901TIP3    H263195   5.637   5.925   5.401  0.0122  0.0308 -0.4181
13902TIP3   OH263196   2.024   6.050  16.561 -0.4065  0.9138  0.3032
13902TIP3    H163197   2.103   6.011  16.523 -0.7287 -0.7086  1.1973
13902TIP3    H263198   2.056   6.127  16.608  0.6670  0.2528  0.6872
13903TIP3   OH263199   4.879   3.293  17.005 -0.6544 -0.0564  0.1924
13903TIP3    H163200   4.872   3.344  17.086  0.3163  1.4973 -0.6499
13903TIP3    H263201   4.819   3.335  16.944 -0.9424 -0.8572 -0.0969
13904TIP3   OH263202   6.588   0.302   4.910 -0.0682  0.3283 -0.3933
13904TIP3    H163203   6.555   0.322   4.997  1.6160  0.5688  0.2278
13904TIP3    H263204   6.580   0.384   4.862 -0.1319  0.4472 -0.1805
13905TIP3   OH263205   0.839   4.148   0.211 -0.5386  0.2067 -0.0584
13905TIP3    H163206   0.824   4.146   0.116 -0.3556 -1.7240 -0.0951
13905TIP3    H263207   0.928   4.180   0.221  0.8789 -3.0380 -0.8596
13906TIP3   OH263208   3.035   6.563  16.150 -0.4555  0.0153 -0.1053
13906TIP3    H163209   3.049   6.542  16.243 -0.7541 -1.4948 -0.3693
13906TIP3    H263210   3.068   6.486  16.103 -1.3280  0.2795 -1.1904
13907TIP3   OH263211   1.117   2.763  15.277 -0.0697 -0.3011  0.0241
13907TIP3    H163212   1.044   2.722  15.230  0.1606 -1.1674  0.4055
13907TIP3    H263213   1.118   2.853  15.245 -0.7517 -0.5166 -0.6426
13908TIP3   OH263214   3.816   6.455   5.210  0.3662  0.1229  0.5165
13908TIP3    H163215   3.879   6.523   5.236 -0.2092  1.0963 -0.5835
13908TIP3    H263216   3.870   6.386   5.172  0.8565  0.4731  0.5673
13909TIP3   OH263217   5.970   6.777  15.106  0.2036  0.7097  0.3196
13909TIP3    H163218   5.909   6.703  15.109  1.9936 -0.8029  0.7615
13909TIP3    H263219   5.930   6.838  15.044 -2.1606  0.1832  1.1966
13910TIP3   OH263220   5.584   0.561   5.399 -0.6808  0.2957 -0.2863
13910TIP3    H163221   5.665   0.533   5.357  0.5639  2.2699  0.5967
13910TIP3    H263222   5.586   0.657   5.392 -1.8899  0.5139  1.5869
13911TIP3   OH263223   4.683   0.634   0.710 -0.2865 -0.2546 -0.2969
13911TIP3    H163224   4.588   0.642   0.718 -0.1362  2.2112 -0.2464
13911TIP3    H263225   4.706   0.699   0.643  1.5741  0.9288  1.4090
13912TIP3   OH263226   1.576   6.676  15.867  0.8092  0.8033  0.7415
13912TIP3    H163227   1.590   6.765  15.836  0.6868  0.4632 -0.3133
13912TIP3    H263228   1.662   6.649  15.900  1.2025  0.8106 -0.2584
13913TIP3   OH263229   5.988   5.305  11.960 -0.1795 -0.0833  0.3468
13913TIP3    H163230   5.927   5.256  11.906 -1.7172  0.4116  1.5573
13913TIP3    H263231   6.073   5.297  11.915 -1.3141  0.1216 -1.9675
13914TIP3   OH263232   5.983   2.298   6.350 -0.0052  0.8856  0.7476
13914TIP3    H163233   5.975   2.326   6.442  1.8214  0.7566  0.9866
13914TIP3    H263234   6.027   2.214   6.355  0.8594  1.2620 -0.2729
13915TIP3   OH263235   2.784   3.588   4.700 -0.5567  0.4725  0.1102
13915TIP3    H163236   2.853   3.585   4.767 -1.2917 -0.7221  0.8335
13915TIP3    H263237   2.786   3.501   4.660 -0.8307  0.8363 -0.7034
13916TIP3   OH263238   0.655   4.931   5.759  0.0664  0.1751 -0.2410
13916TIP3    H163239   0.583   4.939   5.821  1.6979  1.3917  1.6055
13916TIP3    H263240   0.612   4.928   5.673 -2.1926  0.0012  0.8093
13917TIP3   OH263241   3.067   5.155  11.448  0.4465  0.4161  0.4818
13917TIP3    H163242   3.143   5.202  11.482 -0.0250  1.0704  0.6592
13917TIP3    H263243   3.076   5.161  11.353  0.4884  0.7069  0.5034
13918TIP3   OH263244   3.596   1.787   2.385 -0.3646 -0.4798 -0.7252
13918TIP3    H163245   3.541   1.711   2.368 -0.7467 -0.3281 -0.1869
13918TIP3    H263246   3.685   1.755   2.368 -0.4560 -1.2488  0.1016
13919TIP3   OH263247   3.099   5.205  12.521 -0.5174  0.2247  0.7944
13919TIP3    H163248   3.139   5.277  12.473  0.2072 -1.5024 -1.3608
13919TIP3    H263249   3.169   5.171  12.576 -0.3403  0.0980  0.4967
13920TIP3   OH263250   6.392   1.463  12.590  0.2258 -0.1715  0.3278
13920TIP3    H163251   6.420   1.551  12.614 -0.9088 -0.1745  1.7919
13920TIP3    H263252   6.427   1.407  12.659  0.9922 -0.9110 -0.6202
13921TIP3   OH263253   3.955   4.691  13.940  0.2242 -0.3218  0.7061
13921TIP3    H163254   4.024   4.739  13.987 -0.4411 -0.4564  1.8450
13921TIP3    H263255   3.883   4.753  13.932  0.0616 -0.5332  0.5035
13922TIP3   OH263256   0.503   1.826   5.620  0.1824  0.5048 -0.1206
13922TIP3    H163257   0.484   1.735   5.643  0.2948  0.7332  0.9174
13922TIP3    H263258   0.428   1.875   5.651 -0.0845  0.7240 -1.0837
13923TIP3   OH263259   5.746   5.960   3.072  0.0764  0.5650 -0.2906
13923TIP3    H163260   5.769   5.868   3.057 -2.2438 -0.1643  0.3063
13923TIP3    H263261   5.820   6.008   3.034  1.1196 -1.5022 -1.1033
13924TIP3   OH263262   0.021   4.275  15.202 -0.2680  0.1460  0.1098
13924TIP3    H163263   0.099   4.289  15.255  0.6552 -0.2716 -1.0877
13924TIP3    H263264  -0.007   4.186  15.224  1.1617 -0.7134 -1.3565
13925TIP3   OH263265   6.600   3.594  15.027 -0.3168 -0.5846 -0.0175
13925TIP3    H163266   6.601   3.528  15.097  0.6575 -0.1008  0.4409
13925TIP3    H263267   6.549   3.553  14.957 -0.1359 -1.6402  0.4391
13926TIP3   OH263268   6.537   2.785  13.799  0.2039 -0.5955  0.3679
13926TIP3    H163269   6.539   2.767  13.705  0.0301  1.0083  0.0402
13926TIP3    H263270   6.553   2.700  13.839 -0.1714 -1.3953 -1.0990
13927TIP3   OH263271   2.792   5.518   0.762  0.1399 -0.5569  0.4016
13927TIP3    H163272   2.839   5.450   0.810 -0.8001 -3.4732 -2.4569
13927TIP3    H263273   2.859   5.559   0.706  0.0650 -1.9670 -0.7700
13928TIP3   OH263274   3.616   2.102   4.416  0.4416  0.3653  0.1466
13928TIP3    H163275   3.688   2.054   4.375 -0.1830  0.2138 -0.8100
13928TIP3    H263276   3.659   2.161   4.478  1.3292 -0.3051  0.2020
13929TIP3   OH263277   1.034   0.553  17.180 -0.1308  0.8803 -0.2986
13929TIP3    H163278   1.074   0.594  17.103  1.2195 -1.2021 -0.7880
13929TIP3    H263279   1.107   0.536  17.239 -1.0052  1.4098  0.9828
13930TIP3   OH263280   2.137   1.722   1.013 -0.3202  0.9510  0.3106
13930TIP3    H163281   2.064   1.672   1.050 -0.7932  1.8037  0.5690
13930TIP3    H263282   2.211   1.662   1.015 -0.4401  0.8124  2.2534
13931TIP3   OH263283   4.683   6.705   3.449  0.1137 -0.0484 -0.8682
13931TIP3    H163284   4.750   6.647   3.412 -0.4938 -1.5713  0.3238
13931TIP3    H263285   4.711   6.793   3.424  1.5098 -0.7908 -2.0393
13932TIP3   OH263286   1.015   5.916   3.411  0.0844  0.3641 -0.5821
13932TIP3    H163287   1.001   5.846   3.474 -0.1701 -1.3129 -2.3969
13932TIP3    H263288   1.079   5.880   3.349 -1.8062  0.7573 -2.9187
13933TIP3   OH263289   2.833   0.053  14.571 -0.4306  0.1298 -0.4712
13933TIP3    H163290   2.794   0.100  14.644 -0.6802 -1.2485  0.3233
13933TIP3    H263291   2.906   0.005  14.611 -1.1943 -1.4407 -0.9094
13934TIP3   OH263292   0.895   0.543  12.325  0.3056  0.6019  0.3302
13934TIP3    H163293   0.803   0.537  12.301 -0.0963 -0.2003  1.9240
13934TIP3    H263294   0.920   0.454  12.349  1.1728  0.9927  0.9589
13935TIP3   OH263295   6.241   6.130   0.750 -0.1339 -0.2908  0.4457
13935TIP3    H163296   6.188   6.125   0.830  0.3291 -0.8202  0.7329
13935TIP3    H263297   6.283   6.216   0.755 -0.8391  0.0730  0.2876
13936TIP3   OH263298   2.041   3.317  11.715  0.1046  0.1639 -0.4631
13936TIP3    H163299   2.016   3.389  11.658 -1.7667 -0.8711 -1.0452
13936TIP3    H263300   2.022   3.349  11.803  1.6831  1.2586 -0.4847
13937TIP3   OH263301   5.780   3.902   4.291 -0.2798  0.2279 -0.5548
13937TIP3    H163302   5.724   3.882   4.366 -1.0403  1.0469 -0.8826
13937TIP3    H263303   5.748   3.987   4.259  1.4419  0.9449 -0.4905
13938TIP3   OH263304   5.020   3.861   5.070  0.6758  0.3639 -0.1015
13938TIP3    H163305   4.986   3.938   5.024  1.8865  0.3790 -1.0081
13938TIP3    H263306   5.040   3.893   5.158 -0.1148  0.7330 -0.0418
13939TIP3   OH263307   0.126   4.877  14.023  0.2803 -0.7884  0.0440
13939TIP3    H163308   0.070   4.825  14.081 -2.0778  2.7293  1.2141
13939TIP3    H263309   0.079   4.880  13.940 -0.1200  0.2024  0.2896
13940TIP3   OH263310   2.331   3.351  16.547  0.3671  0.0555  0.2867
13940TIP3    H163311   2.243   3.390  16.543  0.4438  0.1049 -1.4276
13940TIP3    H263312   2.317   3.264  16.585 -0.6407 -0.4782 -1.2333
13941TIP3   OH263313   0.728   3.620   1.389 -0.3274  0.5339  0.4712
13941TIP3    H163314   0.823   3.634   1.381  0.2253 -0.6151  3.4882
13941TIP3    H263315   0.689   3.705   1.371  0.9507  0.4582 -3.6052
13942TIP3   OH263316   5.267   1.908  10.812  0.6759 -0.5412  0.2192
13942TIP3    H163317   5.297   1.949  10.730  0.2541  0.1675  0.4148
13942TIP3    H263318   5.193   1.854  10.786 -0.4982  0.9401  0.3539
13943TIP3   OH263319   5.400   1.745   3.348 -0.5607 -0.1916  0.7888
13943TIP3    H163320   5.437   1.808   3.410  0.5163 -0.1178  0.1098
13943TIP3    H263321   5.424   1.659   3.383  0.0599 -0.1496  0.4876
13944TIP3   OH263322   3.513   4.892  12.115 -0.1172 -0.3772  0.0544
13944TIP3    H163323   3.441   4.875  12.175  0.3306 -0.1483  0.6779
13944TIP3    H263324   3.510   4.820  12.052 -1.2790 -0.0160 -0.3279
13945TIP3   OH263325   1.430   4.611  15.376 -0.3708 -0.1022 -0.1742
13945TIP3    H163326   1.460   4.698  15.349  0.4618  0.5130  2.4943
13945TIP3    H263327   1.509   4.556  15.370 -0.3506 -0.1260  0.2972
13946TIP3   OH263328   1.858   5.662  13.616  0.3947 -0.5086 -1.0708
13946TIP3    H163329   1.818   5.623  13.694 -0.1952 -0.3070 -1.2627
13946TIP3    H263330   1.861   5.590  13.553 -1.3813 -0.1022 -1.6791
13947TIP3   OH263331   4.224   3.066   1.868  0.2511  0.6384 -0.0319
13947TIP3    H163332   4.162   3.081   1.797  0.3496  0.1501 -0.2284
13947TIP3    H263333   4.309   3.090   1.831  0.0258  2.8707  0.7410
13948TIP3   OH263334   6.006   0.459   1.823 -0.4955 -0.0113 -0.3456
13948TIP3    H163335   6.082   0.422   1.867 -0.4281  2.6851  2.0775
13948TIP3    H263336   6.041   0.498   1.742  0.3535 -0.4085 -0.1746
13949TIP3   OH263337   0.961   1.987  15.246 -0.4568 -0.0368 -0.7863
13949TIP3    H163338   0.869   2.014  15.241 -0.3403  0.1486 -2.0605
13949TIP3    H263339   0.963   1.925  15.319 -1.0379  2.1086  1.1836
13950TIP3   OH263340   3.688   0.702  16.151  0.2745 -0.5252 -0.1018
13950TIP3    H163341   3.671   0.680  16.243  0.8472  0.7671  0.3431
13950TIP3    H263342   3.751   0.637  16.122  0.0777 -0.9574  0.4214
13951TIP3   OH263343   2.133   3.348   5.797 -0.3678  0.1386  0.7854
13951TIP3    H163344   2.183   3.293   5.858 -1.0338 -0.8278  0.4762
13951TIP3    H263345   2.172   3.330   5.711 -1.0984 -0.4751  0.5711
13952TIP3   OH263346   5.210   3.128   0.916  0.2521  0.2299 -0.1373
13952TIP3    H163347   5.247   3.117   1.004 -0.4926  0.5605  0.2329
13952TIP3    H263348   5.149   3.202   0.926 -0.8244 -0.5659 -0.6094
13953TIP3   OH263349   5.786   4.929  14.371 -0.5366 -0.7450 -0.4817
13953TIP3    H163350   5.720   4.959  14.433  1.9919 -1.0622  2.5981
13953TIP3    H263351   5.817   5.008  14.328  0.0217 -0.0003  1.2245
13954TIP3   OH263352   1.283   4.450   0.219  0.2173 -0.0922  0.0412
13954TIP3    H163353   1.303   4.478   0.130  1.4725  1.2505  0.7134
13954TIP3    H263354   1.196   4.410   0.212  0.0462  0.4905 -1.6776
13955TIP3   OH263355   1.475   5.901   5.307 -0.0922 -0.0976 -0.1390
13955TIP3    H163356   1.412   5.831   5.328 -1.6613  0.7492 -1.7846
13955TIP3    H263357   1.431   5.981   5.335  0.5507  0.4607 -0.7205
13956TIP3   OH263358   5.388   1.752   5.109  0.7894 -0.0078 -0.2454
13956TIP3    H163359   5.431   1.768   5.025 -2.3638 -1.5546 -2.3264
13956TIP3    H263360   5.305   1.799   5.104 -0.5208 -2.0097  0.9719
13957TIP3   OH263361   0.542   0.473   2.184 -0.1500 -0.0387  0.1672
13957TIP3    H163362   0.476   0.438   2.244 -0.5354 -0.2748 -0.3862
13957TIP3    H263363   0.528   0.567   2.184  0.1243  0.0080  0.7601
13958TIP3   OH263364   2.816   6.709   5.810 -0.7402  0.0525 -0.2819
13958TIP3    H163365   2.811   6.780   5.747 -0.6481 -0.1343 -0.5018
13958TIP3    H263366   2.821   6.752   5.895  0.1932  0.3294 -0.4622
13959TIP3   OH263367   0.871   5.347  10.954 -0.3202  0.1293  0.4147
13959TIP3    H163368   0.830   5.432  10.936  1.3521  1.4271  2.2751
13959TIP3    H263369   0.955   5.369  10.994 -0.0483 -2.4183  1.4311
13960TIP3   OH263370   3.645   1.974   1.344  0.0577  0.0983 -0.0743
13960TIP3    H163371   3.566   2.019   1.373  0.5196  1.1110 -0.3447
13960TIP3    H263372   3.639   1.887   1.384 -0.6653  0.5236  0.7902
13961TIP3   OH263373   2.108   1.566  14.883 -0.1293  0.0388  0.4496
13961TIP3    H163374   2.027   1.589  14.929 -0.4906 -0.5088  0.0957
13961TIP3    H263375   2.123   1.474  14.904 -1.0798 -0.6542 -1.6464
13962TIP3   OH263376   5.337   5.398  13.823 -0.1200 -0.1202  0.2904
13962TIP3    H163377   5.340   5.461  13.751 -0.3811  0.3453  0.6818
13962TIP3    H263378   5.283   5.326  13.789  0.5510 -0.3451 -0.3178
13963TIP3   OH263379   0.227   0.651  11.446  0.8327  0.4255  0.0528
13963TIP3    H163380   0.253   0.587  11.380 -0.6923 -0.9562  0.7286
13963TIP3    H263381   0.173   0.714  11.398 -1.4617 -1.3443  0.1335
13964TIP3   OH263382   0.340   5.611  13.222  0.0305  0.0851  0.4622
13964TIP3    H163383   0.350   5.516  13.229  1.5568  0.2956  1.8719
13964TIP3    H263384   0.412   5.639  13.166 -0.4261  0.4128  0.0328
13965TIP3   OH263385   1.443   1.391  11.952 -0.1958  0.2503  0.2947
13965TIP3    H163386   1.504   1.319  11.961 -0.7805 -0.1169  1.4623
13965TIP3    H263387   1.425   1.420  12.041 -0.3112  1.5624 -0.1218
13966TIP3   OH263388   0.856   3.177  14.381  0.3010  0.0748 -0.0318
13966TIP3    H163389   0.884   3.217  14.299  0.0436  0.3863  0.0327
13966TIP3    H263390   0.870   3.083  14.368  0.6772  0.1600 -0.2700
13967TIP3   OH263391   6.096   2.938  15.532 -0.2099 -0.9499 -0.0407
13967TIP3    H163392   6.127   2.849  15.517 -1.6320 -1.0810 -2.9498
13967TIP3    H263393   6.023   2.949  15.471 -1.3065  1.6132  1.5548
13968TIP3   OH263394   1.552   1.458   1.821  0.6729  0.2674 -0.1235
13968TIP3    H163395   1.627   1.476   1.765  1.7482  0.7339  1.4100
13968TIP3    H263396   1.478   1.500   1.777  1.8649  2.4869 -0.1461
13969TIP3   OH263397   1.392   4.361  13.238  0.4142 -0.2345  0.5459
13969TIP3    H163398   1.424   4.450  13.255  0.4884 -0.3383  0.9528
13969TIP3    H263399   1.297   4.370  13.237  0.4349 -0.0208 -0.1376
13970TIP3   OH263400   4.234   4.533   5.231 -0.3779  0.2385  0.2606
13970TIP3    H163401   4.186   4.601   5.184 -2.6239 -0.6284  1.1384
13970TIP3    H263402   4.234   4.561   5.322  2.4279  1.0622  0.1075
13971TIP3   OH263403   1.383   1.965  17.050 -0.6892 -0.3596  1.2135
13971TIP3    H163404   1.324   2.021  17.000  1.5834 -0.6598 -2.1371
13971TIP3    H263405   1.326   1.916  17.109 -3.3552  1.5924  0.4334
13972TIP3   OH263406   4.009   5.095  12.103  0.0973  0.2372  0.1555
13972TIP3    H163407   4.022   5.133  12.016 -1.2882  1.4479  0.4337
13972TIP3    H263408   3.915   5.080  12.108  0.4646 -2.3936  0.4440
13973TIP3   OH263409   2.341   2.847  13.574 -0.3050 -0.4081 -0.4705
13973TIP3    H163410   2.373   2.762  13.604  1.7564  1.6034  3.8012
13973TIP3    H263411   2.247   2.836  13.567 -0.1760 -2.8730  0.6569
13974TIP3   OH263412   0.805   3.011  17.125  0.1021  0.6949 -0.2164
13974TIP3    H163413   0.787   2.922  17.156 -0.2491  1.4478  1.8754
13974TIP3    H263414   0.899   3.022  17.139  0.0159  0.9049  0.1817
13975TIP3   OH263415   1.856   6.087   5.779  0.8641 -0.2166  0.2692
13975TIP3    H163416   1.857   6.085   5.683  1.4777 -0.0896  0.2654
13975TIP3    H263417   1.932   6.035   5.805 -1.1123 -3.0226  0.7868
13976TIP3   OH263418   3.704   5.345  15.204 -0.1376  0.1623 -0.4403
13976TIP3    H163419   3.720   5.263  15.251  0.7569 -0.8118 -2.3445
13976TIP3    H263420   3.610   5.345  15.186 -0.7437  1.1287  2.2464
13977TIP3   OH263421   2.399   2.934  12.777 -1.2815  0.0529  0.3009
13977TIP3    H163422   2.314   2.952  12.737  0.0423  0.7290 -2.4707
13977TIP3    H263423   2.459   2.996  12.735  0.8200 -1.2636  1.1862
13978TIP3   OH263424   2.001   3.621  14.052 -0.1507 -0.4866 -0.1146
13978TIP3    H163425   1.977   3.584  14.137 -0.0074  0.4832  0.3650
13978TIP3    H263426   2.056   3.555  14.011  1.7040 -0.0337  1.5249
13979TIP3   OH263427   2.237   0.434  16.133 -0.2105 -0.1859 -0.0222
13979TIP3    H163428   2.315   0.447  16.078  0.8574  1.7439  1.8142
13979TIP3    H263429   2.167   0.477  16.084  0.5032  0.6108 -0.3735
13980TIP3   OH263430   1.218   3.831   4.858  0.3203 -0.4470 -0.3075
13980TIP3    H163431   1.252   3.838   4.947 -2.4488  2.2118  0.7405
13980TIP3    H263432   1.291   3.857   4.802  1.6017 -0.3834  1.3129
13981TIP3   OH263433   5.499   0.436  14.672 -0.0280  0.2817 -0.0077
13981TIP3    H163434   5.582   0.426  14.626  0.0114  0.0201  0.1198
13981TIP3    H263435   5.514   0.507  14.734 -0.2319  0.9836 -0.7399
13982TIP3   OH263436   5.543   6.288  15.946  0.2469  0.5592  1.0200
13982TIP3    H163437   5.489   6.229  16.000  1.0312 -1.9035 -0.7051
13982TIP3    H263438   5.491   6.301  15.867  2.0761 -2.0349 -0.7716
13983TIP3   OH263439   6.501   4.064   0.680  0.2452  0.6904 -0.3400
13983TIP3    H163440   6.558   4.106   0.615  0.7952 -1.0360 -1.0187
13983TIP3    H263441   6.418   4.052   0.634  0.3681  0.2408 -0.4471
13984TIP3   OH263442   4.496   5.038   4.246  0.1727  0.0348 -0.3793
13984TIP3    H163443   4.452   4.963   4.288  0.1434 -1.3595 -2.7391
13984TIP3    H263444   4.454   5.115   4.285 -1.3661 -1.1895  0.5259
13985TIP3   OH263445   6.566   4.047   3.308  0.3323  0.0518 -0.4350
13985TIP3    H163446   6.555   4.081   3.219  0.2379 -2.2149 -1.3712
13985TIP3    H263447   6.653   4.007   3.308  0.3229  0.0140  0.4925
13986TIP3   OH263448   3.926   3.615  15.970 -0.1275  0.3852  0.2723
13986TIP3    H163449   3.925   3.568  16.053 -0.0130  0.4286  0.2985
13986TIP3    H263450   3.939   3.706  15.994  2.6778  0.1308  0.1148
13987TIP3   OH263451   2.401   5.837  12.679  0.9411  0.5502 -0.3686
13987TIP3    H163452   2.493   5.864  12.686  1.8089 -1.8679 -1.3739
13987TIP3    H263453   2.401   5.772  12.609 -1.3367 -0.4282  0.4654
13988TIP3   OH263454   0.372   1.518   6.246 -0.2658  0.0582  0.1841
13988TIP3    H163455   0.297   1.483   6.199 -0.1789  0.3180 -0.1547
13988TIP3    H263456   0.430   1.443   6.258 -0.9473 -0.3273  1.1899
13989TIP3   OH263457   4.283   6.248  13.649 -0.3262 -0.4658  0.3146
13989TIP3    H163458   4.297   6.160  13.612 -0.5449  0.0761 -1.0878
13989TIP3    H263459   4.199   6.276  13.613  0.1536  0.6732  0.0750
13990TIP3   OH263460   3.904   6.762  11.705  0.1628 -0.3416 -0.5091
13990TIP3    H163461   3.848   6.791  11.633  0.7407 -1.2075 -1.3315
13990TIP3    H263462   3.969   6.832  11.714  1.9373 -1.5419 -2.9080
13991TIP3   OH263463   0.495   0.939   2.891 -0.1891  0.6831  0.0037
13991TIP3    H163464   0.417   0.994   2.880  0.0494  1.2431  0.9917
13991TIP3    H263465   0.567   1.001   2.897  0.3092  0.1734 -0.6601
13992TIP3   OH263466   6.237   3.447   1.415  0.2525 -0.1989  0.0249
13992TIP3    H163467   6.142   3.456   1.423  0.1230 -0.2529 -1.2272
13992TIP3    H263468   6.267   3.426   1.504 -0.9607 -0.6967  0.3372
13993TIP3   OH263469   4.362   6.555  17.038 -0.0449  0.3303  0.0425
13993TIP3    H163470   4.447   6.540  16.997  1.0865 -2.1486  2.9399
13993TIP3    H263471   4.375   6.633  17.092  0.1485  0.3871 -0.0845
13994TIP3   OH263472   1.948   2.337   0.884  0.3703  0.3308 -0.0348
13994TIP3    H163473   1.990   2.413   0.843  1.5252 -1.6511 -2.8268
13994TIP3    H263474   1.868   2.323   0.833 -0.8713  0.7397  1.6965
13995TIP3   OH263475   1.649   4.260   1.360 -0.3641 -0.0434 -0.4893
13995TIP3    H163476   1.592   4.306   1.298  0.1407 -1.4042 -2.0165
13995TIP3    H263477   1.609   4.174   1.371 -1.1430  0.5558  2.1184
13996TIP3   OH263478   3.037   6.728   5.170 -0.3212 -0.1507 -0.0627
13996TIP3    H163479   3.072   6.788   5.236  2.4665 -1.2426 -0.4329
13996TIP3    H263480   2.991   6.785   5.108  0.7496  1.4127  0.5043
13997TIP3   OH263481   5.657   2.501   3.762  0.0505 -0.3990  0.1264
13997TIP3    H163482   5.745   2.530   3.782  0.1491 -0.0872 -0.6977
13997TIP3    H263483   5.649   2.415   3.805  0.5704 -0.2059  0.6205
13998TIP3   OH263484   4.255   2.896  15.160 -0.0156 -0.0659 -0.0883
13998TIP3    H163485   4.229   2.862  15.074 -0.9603  2.3660 -0.8462
13998TIP3    H263486   4.350   2.884  15.162  0.1504  0.6372 -1.8893
13999TIP3   OH263487   6.250   0.814  14.366 -0.0033  0.1629  0.1483
13999TIP3    H163488   6.304   0.745  14.327  0.3046  0.2140  0.4772
13999TIP3    H263489   6.162   0.796  14.335  0.4771  1.2580 -2.1037
14000TIP3   OH263490   2.930   2.429  14.038  0.2206 -0.1817  0.2666
14000TIP3    H163491   2.966   2.347  14.069 -0.3123  0.2807  2.2467
14000TIP3    H263492   2.850   2.405  13.992  1.4285 -0.9484 -1.5441
14001TIP3   OH263493   6.177   0.394  16.712 -0.0199 -0.1370 -0.3054
14001TIP3    H163494   6.138   0.411  16.798 -1.0077 -3.5389  0.0467
14001TIP3    H263495   6.107   0.412  16.650  0.3411  1.1903 -0.3703
14002TIP3   OH263496   6.387   1.096   2.166  0.3677  0.0786  0.4805
14002TIP3    H163497   6.397   1.038   2.241  0.0937  1.2296  1.4265
14002TIP3    H263498   6.465   1.151   2.168 -0.0915  0.7399  0.4871
14003TIP3   OH263499   1.817   1.412   3.241  0.0646  0.0994  0.3670
14003TIP3    H163500   1.724   1.433   3.236  0.1940  0.3524 -1.4530
14003TIP3    H263501   1.862   1.493   3.216  0.6665 -0.8921 -1.9715
14004TIP3   OH263502   3.928   3.774   2.926 -0.4937  0.1868  0.1916
14004TIP3    H163503   3.919   3.791   3.020 -0.5904  1.2536  0.0114
14004TIP3    H263504   3.995   3.706   2.920 -1.8267 -1.2815  1.1223
14005TIP3   OH263505   4.624   4.783  15.006  0.1296 -0.3502 -0.1079
14005TIP3    H163506   4.717   4.789  14.984  0.2061 -0.7894  0.0787
14005TIP3    H263507   4.599   4.695  14.977 -0.1906 -0.2850 -0.0251
14006TIP3   OH263508   2.516   4.378  11.768 -0.2406 -0.1762  0.7438
14006TIP3    H163509   2.596   4.329  11.753 -0.5987 -0.1899 -1.3689
14006TIP3    H263510   2.469   4.328  11.835  0.7407 -1.0705  0.7861
14007TIP3   OH263511   1.603   1.885  16.127  0.0547  0.2261 -0.5554
14007TIP3    H163512   1.665   1.816  16.149 -1.3076 -0.9697 -0.3153
14007TIP3    H263513   1.531   1.874  16.189 -1.4793  0.0371 -2.2542
14008TIP3   OH263514   4.914   6.619  17.116  0.2310  0.7190  0.1662
14008TIP3    H163515   4.972   6.610  17.040 -0.5709  1.1163 -0.5160
14008TIP3    H263516   4.954   6.565  17.184  0.8832  0.2296 -0.5871
14009TIP3   OH263517   4.551   3.622  13.341 -0.0509  0.0685 -0.0421
14009TIP3    H163518   4.626   3.672  13.371  0.8487 -0.7631 -0.8065
14009TIP3    H263519   4.574   3.531  13.359 -0.7206 -0.2260 -0.6031
14010TIP3   OH263520   2.928   0.246   0.195  0.0641 -0.1293 -0.1496
14010TIP3    H163521   2.852   0.246   0.136  0.5427 -2.3100 -0.8694
14010TIP3    H263522   3.003   0.233   0.137  0.8265  0.2037  0.7293
14011TIP3   OH263523   2.848   3.556  14.805  0.5369 -0.0708  0.1721
14011TIP3    H163524   2.932   3.521  14.833  0.4697 -0.2965  0.0936
14011TIP3    H263525   2.828   3.509  14.724  0.9205  0.8566 -0.4871
14012TIP3   OH263526   5.835   4.066  16.228 -0.1552  0.1967  0.6042
14012TIP3    H163527   5.915   4.025  16.194  0.6326  0.5389  1.9691
14012TIP3    H263528   5.863   4.110  16.308 -1.4799  1.3601  0.4625
14013TIP3   OH263529   3.288   3.009   4.216  0.7937 -0.2034  0.0716
14013TIP3    H163530   3.342   3.088   4.217  0.0380  0.3245 -0.3823
14013TIP3    H263531   3.248   3.006   4.302  0.1779  0.3683 -0.1871
14014TIP3   OH263532   4.498   3.029  14.559 -0.4392  0.0172  0.3032
14014TIP3    H163533   4.574   3.059  14.511 -0.5315 -1.6008 -0.9474
14014TIP3    H263534   4.430   3.094  14.542 -0.1967 -0.0614 -1.0594
14015TIP3   OH263535   4.021   4.387  16.463 -0.0721 -0.1555 -0.1145
14015TIP3    H163536   3.934   4.365  16.430  0.0711  0.3059 -0.8198
14015TIP3    H263537   4.074   4.399  16.384  0.3553  0.6822  0.2924
14016TIP3   OH263538   1.153   1.294  15.111  0.2608 -0.1023 -0.3473
14016TIP3    H163539   1.105   1.345  15.176 -0.4544  0.5923 -1.3977
14016TIP3    H263540   1.240   1.283  15.149  0.3126  1.5483  0.0935
14017TIP3   OH263541   3.064   5.263   5.244 -0.2171  0.1950 -0.1898
14017TIP3    H163542   3.108   5.316   5.177 -0.6758  1.7468  0.6815
14017TIP3    H263543   3.109   5.179   5.241  0.6791  0.6870 -1.5063
14018TIP3   OH263544   6.535   2.048   5.266 -0.1578 -0.3702  0.0834
14018TIP3    H163545   6.581   1.965   5.283  0.5461 -0.4298 -1.8016
14018TIP3    H263546   6.469   2.025   5.200  0.3846  0.6323 -0.8480
14019TIP3   OH263547   1.409   4.884   0.788  0.3340 -0.1647 -0.1067
14019TIP3    H163548   1.462   4.805   0.788  0.3535 -0.1532  0.2962
14019TIP3    H263549   1.472   4.955   0.795  0.3445 -0.0892 -0.8592
14020TIP3   OH263550   1.863   0.788   2.594  0.1497 -0.1840  0.1490
14020TIP3    H163551   1.851   0.721   2.662  0.0457 -0.2951  0.0208
14020TIP3    H263552   1.785   0.781   2.540 -0.3115  0.6913  0.6920
14021TIP3   OH263553   5.391   3.825  14.317 -0.3376 -0.6657  0.4646
14021TIP3    H163554   5.326   3.812  14.386 -0.4247  0.9883  0.7467
14021TIP3    H263555   5.475   3.814  14.361 -0.3134  2.4965  1.4540
14022TIP3   OH263556   5.523   2.805   2.240 -0.0255  0.3428  0.0832
14022TIP3    H163557   5.438   2.772   2.211 -0.4098  0.5708  0.9322
14022TIP3    H263558   5.521   2.798   2.335  1.4587 -0.9940  0.0693
14023TIP3   OH263559   1.506   1.086   0.450 -0.2989 -0.4525  0.4748
14023TIP3    H163560   1.501   1.159   0.388 -1.6084  0.0585  1.1490
14023TIP3    H263561   1.416   1.053   0.455 -0.3148 -0.2257  2.3898
14024TIP3   OH263562   0.670   3.569  12.128 -0.4522 -0.3490 -0.0598
14024TIP3    H163563   0.635   3.617  12.053 -1.8049 -0.2525  0.6060
14024TIP3    H263564   0.610   3.495  12.139  0.4546 -1.0740  0.1717
14025TIP3   OH263565   3.189   0.039  12.413 -0.2153  0.2067  0.0068
14025TIP3    H163566   3.160   0.042  12.504  0.1847 -0.9280  0.1815
14025TIP3    H263567   3.108   0.035  12.362 -0.4325  0.5206  0.3204
14026TIP3   OH263568   2.525   5.653  16.173 -0.4460 -0.3859 -0.0535
14026TIP3    H163569   2.595   5.592  16.148  0.5421  0.5159  0.4184
14026TIP3    H263570   2.539   5.668  16.266  0.0147  1.3821 -0.3792
14027TIP3   OH263571   5.352   5.812  12.063  0.3851 -0.2800 -0.2203
14027TIP3    H163572   5.296   5.773  11.996  0.2722  0.7267 -0.7352
14027TIP3    H263573   5.291   5.859  12.120  0.7226  1.5715 -1.2917
14028TIP3   OH263574   6.404   2.185  13.890  0.3283 -0.3888  0.2214
14028TIP3    H163575   6.477   2.227  13.845 -0.2033 -0.8083 -1.0848
14028TIP3    H263576   6.329   2.243  13.874  0.2701 -0.1894  1.1695
14029TIP3   OH263577   0.386   2.312   0.993 -0.1618 -0.0379  0.8544
14029TIP3    H163578   0.347   2.310   0.906  0.5763 -0.8439  0.5345
14029TIP3    H263579   0.357   2.232   1.035 -0.5468  0.3668  1.3718
14030TIP3   OH263580   4.513   6.109  15.802 -0.0402  0.0019 -0.5342
14030TIP3    H163581   4.537   6.067  15.719 -1.2013  0.2505 -1.0184
14030TIP3    H263582   4.418   6.114  15.800 -0.0929 -0.0753  0.8790
14031TIP3   OH263583   1.019   4.368   3.293  0.2260  0.3992 -0.3030
14031TIP3    H163584   0.997   4.296   3.234 -0.0273 -2.2459  2.6774
14031TIP3    H263585   1.111   4.352   3.316 -0.3751 -0.2588  1.8835
14032TIP3   OH263586   5.909   1.040   1.951  0.5633  0.2070  0.2314
14032TIP3    H163587   5.851   0.964   1.942 -0.1092  0.7748 -0.3683
14032TIP3    H263588   5.991   1.003   1.984  0.2560 -0.7809 -0.0552
14033TIP3   OH263589   2.315   4.272  11.567  0.0666 -0.0998 -0.6282
14033TIP3    H163590   2.354   4.300  11.650 -0.9963  2.8938 -0.9810
14033TIP3    H263591   2.373   4.308  11.500 -1.0505  0.9071 -1.1205
14034TIP3   OH263592   6.186   1.279  15.055  0.1035 -0.2905  0.5688
14034TIP3    H163593   6.237   1.294  14.975 -0.0809  1.1495  0.6990
14034TIP3    H263594   6.217   1.346  15.115 -0.0184 -1.1381  1.6086
14035TIP3   OH263595   2.027   4.786  15.540 -0.3850  0.8324  0.0345
14035TIP3    H163596   2.060   4.719  15.600 -0.5974  0.9890  0.3250
14035TIP3    H263597   2.021   4.741  15.456 -0.7172  0.4313  0.2691
14036TIP3   OH263598   6.145   3.118   4.328  0.1236  0.0585  0.2181
14036TIP3    H163599   6.155   3.208   4.359  2.2013  0.9721 -2.5867
14036TIP3    H263600   6.155   3.064   4.406 -0.1177  2.1946  1.8317
14037TIP3   OH263601   1.574   5.471  14.370  0.6188  0.0784 -0.4336
14037TIP3    H163602   1.645   5.477  14.434  0.1057  0.6316  0.0896
14037TIP3    H263603   1.561   5.377  14.357  1.5694 -0.0327 -0.6827
14038TIP3   OH263604   6.454   3.379  11.225  0.1996  0.3442  0.0445
14038TIP3    H163605   6.430   3.304  11.170  3.3194 -0.7696 -0.0249
14038TIP3    H263606   6.430   3.456  11.173 -1.4573 -0.5939 -0.6580
14039TIP3   OH263607   5.194   3.897  10.871  0.2127 -0.0935 -0.0463
14039TIP3    H163608   5.255   3.961  10.908 -0.5264  1.2112 -1.0187
14039TIP3    H263609   5.108   3.939  10.876 -0.2413 -0.8697 -0.9962
14040TIP3   OH263610   5.311   4.560  14.730  0.2727 -0.2249 -0.0217
14040TIP3    H163611   5.394   4.604  14.748 -1.3163  2.9950  0.2910
14040TIP3    H263612   5.301   4.566  14.635  0.2986 -0.3689 -0.0330
14041TIP3   OH263613   2.649   2.893   0.841 -0.0111  0.3090  0.3767
14041TIP3    H163614   2.643   2.845   0.924 -1.9297 -0.2643 -0.0415
14041TIP3    H263615   2.739   2.881   0.812  0.0453 -1.5467  1.1783
14042TIP3   OH263616   6.241   2.333   1.351  0.2960 -0.0634 -0.2091
14042TIP3    H163617   6.330   2.309   1.323 -0.6415 -2.2774 -1.5752
14042TIP3    H263618   6.251   2.362   1.442  2.6382  1.5080 -0.8915
14043TIP3   OH263619   2.045   4.466  13.668  0.1067  0.0474 -0.2534
14043TIP3    H163620   2.057   4.374  13.642  0.2384 -0.7702  2.3998
14043TIP3    H263621   1.967   4.494  13.619  0.1420 -1.4093 -1.2371
14044TIP3   OH263622   0.405   0.027   2.809 -0.0280 -0.4507  0.1519
14044TIP3    H163623   0.439   0.110   2.774 -2.4869  1.3572  1.7367
14044TIP3    H263624   0.356  -0.011   2.736 -0.0330  0.2000 -0.1940
14045TIP3   OH263625   6.301   3.973  16.667 -0.2849 -0.3594  0.1758
14045TIP3    H163626   6.253   3.891  16.654 -0.4500 -0.1926 -0.2981
14045TIP3    H263627   6.236   4.034  16.702 -0.1617 -0.4268  0.5313
14046TIP3   OH263628   5.861   2.669  10.839 -0.4037  0.4259  0.0673
14046TIP3    H163629   5.890   2.586  10.801  0.7231  0.9331 -0.2173
14046TIP3    H263630   5.789   2.644  10.898 -0.4437 -0.6769 -0.4160
14047TIP3   OH263631   5.035   2.847  14.197  0.5973 -0.8593  0.2068
14047TIP3    H163632   5.036   2.783  14.267 -1.0310 -0.7216  0.3908
14047TIP3    H263633   5.031   2.796  14.116  1.9278 -1.0049  0.2081
14048TIP3   OH263634   5.457   3.835  12.695 -0.0621 -0.8401  0.2547
14048TIP3    H163635   5.463   3.850  12.789 -0.3311 -2.0365  0.4717
14048TIP3    H263636   5.420   3.916  12.660  1.4486  0.2108  0.9770
14049TIP3   OH263637   6.160   3.985  14.431  1.2677  0.0407 -0.6478
14049TIP3    H163638   6.131   3.917  14.493  3.4155  0.4037  0.8632
14049TIP3    H263639   6.152   4.066  14.481 -1.0803  0.9931 -2.3708
14050TIP3   OH263640   4.051   4.995   3.132 -0.0170 -0.6509  0.5113
14050TIP3    H163641   4.084   5.084   3.119 -1.8022 -0.0138  0.0831
14050TIP3    H263642   3.972   4.990   3.078 -0.3200 -2.2745  1.0456
14051TIP3   OH263643   0.089   3.500   3.492 -0.6184 -0.4711  0.0935
14051TIP3    H163644   0.135   3.521   3.573 -1.8558 -1.0143  0.9736
14051TIP3    H263645   0.062   3.584   3.456 -0.2107 -0.2350  0.3412
14052TIP3   OH263646   3.064   3.703  13.897  1.1223 -0.0914  0.2522
14052TIP3    H163647   3.119   3.625  13.883  0.0169 -0.4986 -2.5279
14052TIP3    H263648   2.975   3.669  13.901  0.5841  0.9956 -1.4017
14053TIP3   OH263649   1.840   4.377   4.201  0.1299 -0.6302 -0.1071
14053TIP3    H163650   1.880   4.453   4.244  2.9735 -2.3082  0.4875
14053TIP3    H263651   1.826   4.314   4.273 -2.1118 -0.7420 -0.5890
14054TIP3   OH263652   0.950   3.293   3.635 -0.1372  0.1820 -0.0113
14054TIP3    H163653   0.876   3.245   3.600  0.0332 -0.6191  0.6977
14054TIP3    H263654   0.915   3.341   3.711 -0.2931  1.1588 -0.6754
14055TIP3   OH263655   0.108   5.663  15.903  0.5032 -0.0755  0.2830
14055TIP3    H163656   0.170   5.616  15.958 -0.6457 -0.9671  0.8463
14055TIP3    H263657   0.104   5.751  15.940 -0.0824 -0.5997  1.5065
14056TIP3   OH263658   1.147   0.701   5.764 -0.5184 -0.7667 -0.2494
14056TIP3    H163659   1.112   0.766   5.824 -0.6404 -1.0305 -0.0348
14056TIP3    H263660   1.242   0.717   5.764 -0.6169 -0.1425 -0.7300
14057TIP3   OH263661   2.827   5.295  11.013 -0.2623  0.0651  0.2265
14057TIP3    H163662   2.856   5.384  10.992  1.1092 -1.1419 -4.2830
14057TIP3    H263663   2.742   5.288  10.970 -0.1437 -0.8996  0.1394
14058TIP3   OH263664   0.763   4.641   5.829 -0.3662  0.8602 -0.0596
14058TIP3    H163665   0.747   4.717   5.884 -3.8814  0.0505  0.2977
14058TIP3    H263666   0.721   4.662   5.746  0.7693  0.2241 -0.8256
14059TIP3   OH263667   5.106   0.174  15.631  0.4316 -0.2975 -0.1835
14059TIP3    H163668   5.164   0.166  15.555 -0.0445 -1.1644 -0.4659
14059TIP3    H263669   5.032   0.117  15.610 -0.5087  0.7642  0.1906
14060TIP3   OH263670   1.919   6.832  16.215 -0.1791  0.2530  0.0362
14060TIP3    H163671   1.909   6.770  16.287 -1.3923  0.5660  0.1495
14060TIP3    H263672   1.831   6.864  16.197 -0.0576 -0.5138 -2.2190
14061TIP3   OH263673   4.084   0.112  11.629  0.0388 -0.3574  0.0453
14061TIP3    H163674   4.071   0.074  11.542 -0.0687 -1.0020  0.3407
14061TIP3    H263675   4.179   0.113  11.642 -0.0042 -1.7531  0.5708
14062TIP3   OH263676   0.037   0.674   4.701  0.2265 -0.1825  0.4936
14062TIP3    H163677   0.128   0.648   4.715  0.1306 -0.2593  0.9912
14062TIP3    H263678  -0.001   0.676   4.789 -0.0958  0.4244  0.3471
14063TIP3   OH263679   6.192   2.762   3.764  0.0663  0.1243 -0.0040
14063TIP3    H163680   6.143   2.776   3.683  0.0136  0.0795  0.0203
14063TIP3    H263681   6.235   2.677   3.751 -0.9875 -0.5106  0.5415
14064TIP3   OH263682   1.732   5.968   5.420 -0.3022  1.0588  0.6914
14064TIP3    H163683   1.781   5.925   5.491  0.9341  0.3653 -0.5287
14064TIP3    H263684   1.657   5.911   5.404  0.6340 -0.0089 -0.0476
14065TIP3   OH263685   0.854   6.680   0.001 -0.3690 -0.0323  0.7115
14065TIP3    H163686   0.766   6.661   0.035 -0.9430 -1.7882 -1.5750
14065TIP3    H263687   0.843   6.761  -0.049 -0.9520 -0.7586 -0.3715
14066TIP3   OH263688   6.835   0.988  16.366 -0.7428  0.3724  0.1239
14066TIP3    H163689   6.807   0.928  16.298  1.1908 -2.1475  1.3708
14066TIP3    H263690   6.906   1.039  16.326  1.5515 -2.2592  0.5592
14067TIP3   OH263691   4.512   3.448   5.999  0.1830  0.5291 -0.1336
14067TIP3    H163692   4.546   3.368   5.959 -0.6318 -1.4732  2.8720
14067TIP3    H263693   4.532   3.517   5.935  1.9458 -1.8468 -2.3555
14068TIP3   OH263694   1.466   0.859   3.532 -0.0306 -0.4982  0.2050
14068TIP3    H163695   1.477   0.765   3.516  2.2730 -0.3371  0.5635
14068TIP3    H263696   1.477   0.869   3.626 -0.6032  0.1193  0.2181
14069TIP3   OH263697   6.177   0.637   3.710 -1.1440  0.1775  0.2096
14069TIP3    H163698   6.113   0.619   3.641 -2.1312  0.1382  1.1027
14069TIP3    H263699   6.221   0.554   3.725 -1.6393 -0.0669  0.3201
14070TIP3   OH263700   1.289   4.167  15.959 -0.0244 -0.4702 -0.4800
14070TIP3    H163701   1.373   4.188  16.002  0.3761 -1.2426 -0.8711
14070TIP3    H263702   1.236   4.246  15.970  0.7823  0.0519 -0.2857
14071TIP3   OH263703   5.806   2.577  16.469 -0.2696 -0.2165 -0.0905
14071TIP3    H163704   5.831   2.663  16.503 -2.0741  0.3936 -0.1935
14071TIP3    H263705   5.870   2.517  16.508 -0.5770  0.8045  2.1779
14072TIP3   OH263706   3.532   1.515   3.274  0.2714  0.1524 -0.3647
14072TIP3    H163707   3.478   1.455   3.222 -0.7007 -0.5446  1.3593
14072TIP3    H263708   3.528   1.598   3.226  0.0545 -0.6491 -1.7886
14073TIP3   OH263709   4.173   1.359  17.060 -0.2182  0.5846 -0.3201
14073TIP3    H163710   4.141   1.401  17.140 -0.6394  0.5449 -0.4645
14073TIP3    H263711   4.240   1.298  17.089 -0.4250  0.5156  0.0091
14074TIP3   OH263712   3.084   0.949  14.753 -0.5242  0.7741 -0.0071
14074TIP3    H163713   3.013   0.900  14.794 -0.7573  0.9001 -0.2621
14074TIP3    H263714   3.044   0.993  14.678  0.2219 -0.8123 -1.4137
14075TIP3   OH263715   1.505   0.511   2.594 -0.1321  0.6495  0.4250
14075TIP3    H163716   1.412   0.498   2.577 -0.4036  0.3040  2.0515
14075TIP3    H263717   1.511   0.599   2.632  0.4362  1.3421 -1.1760
14076TIP3   OH263718   3.766   1.205  14.763 -0.1300 -0.0562 -0.1769
14076TIP3    H163719   3.687   1.258  14.756  0.2442  0.9951  2.5950
14076TIP3    H263720   3.734   1.115  14.772 -0.9247  0.1533 -0.7850
14077TIP3   OH263721   4.761   4.777  15.542  0.2900 -0.7774 -0.1036
14077TIP3    H163722   4.814   4.814  15.612  1.2667 -1.7526 -0.3005
14077TIP3    H263723   4.818   4.780  15.464 -0.9550  0.7835 -1.0207
14078TIP3   OH263724   0.229   5.341  12.557  0.0505 -0.0353 -0.5077
14078TIP3    H163725   0.253   5.331  12.649  0.7311  1.4265 -0.4947
14078TIP3    H263726   0.263   5.262  12.515 -0.5456 -0.8822  0.5207
14079TIP3   OH263727   6.238   2.939   1.379  0.6483  0.3963  0.6491
14079TIP3    H163728   6.295   2.964   1.306 -1.7997  0.8870 -1.1946
14079TIP3    H263729   6.219   3.022   1.424 -0.2907  0.5677 -0.0412
14080TIP3   OH263730   5.767   4.877   6.701 -0.1121 -0.0731 -0.2415
14080TIP3    H163731   5.775   4.957   6.650 -1.1401  0.6556  0.6781
14080TIP3    H263732   5.683   4.839   6.675  0.1854 -0.6471 -0.3882
14081TIP3   OH263733   2.811   0.572  10.605  0.2875  0.2177 -0.1892
14081TIP3    H163734   2.767   0.655  10.591  1.3810  0.5604 -1.9960
14081TIP3    H263735   2.760   0.509  10.554 -1.1240 -0.5083  1.9565
14082TIP3   OH263736   3.429   1.660  12.648  0.4044 -0.1231  0.2519
14082TIP3    H163737   3.485   1.613  12.709 -1.2001 -1.3686  0.8316
14082TIP3    H263738   3.402   1.739  12.695 -2.3438 -1.9594  2.0412
14083TIP3   OH263739   1.668   0.821  11.577  0.3606  0.1295 -0.2070
14083TIP3    H163740   1.632   0.870  11.651  0.8060 -1.0350  0.7925
14083TIP3    H263741   1.609   0.747  11.566  1.1754 -0.5577 -0.0111
14084TIP3   OH263742   4.538   4.040  15.060  0.3677  0.1094  0.2321
14084TIP3    H163743   4.500   3.953  15.048  0.2942  0.3816 -1.8553
14084TIP3    H263744   4.463   4.099  15.064  0.4399  0.1596  0.9645
14085TIP3   OH263745   6.278   2.296  11.224  0.7022  0.1781  0.4986
14085TIP3    H163746   6.234   2.304  11.140 -0.6850 -0.1585  1.1568
14085TIP3    H263747   6.226   2.352  11.283  0.6363 -0.8940  1.4927
14086TIP3   OH263748   1.816   2.187  11.665  0.3887 -0.2124  0.1350
14086TIP3    H163749   1.849   2.098  11.649  0.8871 -0.1493  0.7905
14086TIP3    H263750   1.784   2.216  11.579  1.3379 -0.5686 -0.3485
14087TIP3   OH263751   6.811   5.153  12.096 -0.4682 -0.0969  0.5845
14087TIP3    H163752   6.866   5.119  12.166 -0.8242 -0.0407  0.8877
14087TIP3    H263753   6.811   5.248  12.108 -0.2636 -0.0582  0.3101
14088TIP3   OH263754   3.585   2.730   0.415 -0.5827  0.0162 -0.0032
14088TIP3    H163755   3.639   2.657   0.445 -0.4413 -0.1992 -0.7578
14088TIP3    H263756   3.621   2.806   0.459 -0.5118 -0.3148  0.5269
14089TIP3   OH263757   6.279   5.982   5.879 -0.4081  0.2996 -0.0738
14089TIP3    H163758   6.272   6.007   5.971  0.9225 -0.3253  0.2159
14089TIP3    H263759   6.226   5.903   5.872 -1.8978  1.2787 -0.2476
14090TIP3   OH263760   3.444   5.638   0.042 -0.3026 -0.1564  0.3572
14090TIP3    H163761   3.366   5.655   0.095 -0.0976 -0.1636  0.6677
14090TIP3    H263762   3.512   5.621   0.106  0.1995  0.8621  0.1161
14091TIP3   OH263763   2.568   3.746  13.109 -0.3062  0.0099 -0.6154
14091TIP3    H163764   2.564   3.718  13.018 -0.5611 -0.1189 -0.5653
14091TIP3    H263765   2.614   3.675  13.154 -0.3505 -0.0148 -0.6094
14092TIP3   OH263766   5.212   0.091  13.458 -0.8311  0.3264 -0.2906
14092TIP3    H163767   5.294   0.138  13.442 -0.1855 -0.5323  0.3945
14092TIP3    H263768   5.216   0.066  13.550 -1.6449 -0.1492 -0.3700
14093TIP3   OH263769   0.323   1.441   2.587  0.0587  0.4939 -0.3099
14093TIP3    H163770   0.288   1.519   2.630 -0.3906 -0.2559  0.7307
14093TIP3    H263771   0.275   1.435   2.505 -1.4093  0.1754  0.5397
14094TIP3   OH263772   4.743   2.073  16.909 -0.1839 -0.5899  0.3195
14094TIP3    H163773   4.795   2.055  16.831 -1.6321 -1.7060 -0.4395
14094TIP3    H263774   4.734   1.988  16.952 -1.6412 -0.5160  0.2313
14095TIP3   OH263775   1.628   6.434   6.207 -0.1794 -0.0055 -0.1194
14095TIP3    H163776   1.558   6.482   6.251  0.0808  0.2578  0.0043
14095TIP3    H263777   1.677   6.392   6.277 -0.3117 -0.3317 -0.2174
14096TIP3   OH263778   0.152   2.269  15.686 -0.3108  0.0122  0.0009
14096TIP3    H163779   0.155   2.262  15.591  0.9407 -0.5121  0.0533
14096TIP3    H263780   0.113   2.186  15.715  1.1422 -0.7068  0.0026
14097TIP3   OH263781   3.335   6.646  12.562  0.5986 -0.1116 -0.2134
14097TIP3    H163782   3.401   6.662  12.494  0.5127 -1.8856 -0.7575
14097TIP3    H263783   3.261   6.607  12.515  0.5578 -1.4156  0.8872
14098TIP3   OH263784   4.569   0.599  11.792  0.2919  0.2036  0.0465
14098TIP3    H163785   4.634   0.652  11.838 -0.1717  0.5264  0.3339
14098TIP3    H263786   4.486   0.642  11.810  0.0578  0.1065 -0.7732
14099TIP3   OH263787   2.869   5.967  11.481 -0.2405  0.4373 -0.2413
14099TIP3    H163788   2.821   5.895  11.440 -1.4354  1.1122 -0.0716
14099TIP3    H263789   2.955   5.965  11.439  0.6571 -2.5433  1.3629
14100TIP3   OH263790   1.242   4.492   3.848  0.6197  0.0874 -0.2698
14100TIP3    H163791   1.335   4.485   3.870  0.6981  1.1263 -0.2113
14100TIP3    H263792   1.197   4.448   3.920  1.0294  0.3296  0.1415
14101TIP3   OH263793   5.540   3.438   6.102 -0.4080 -0.7011  0.0587
14101TIP3    H163794   5.461   3.484   6.074  0.4676  1.0436  0.3025
14101TIP3    H263795   5.566   3.482   6.183  0.4932 -1.6204  0.2952
14102TIP3   OH263796   0.473   0.088   5.460 -0.3795 -0.2295  0.3436
14102TIP3    H163797   0.562   0.072   5.491 -0.0757 -0.3329 -0.5541
14102TIP3    H263798   0.422   0.101   5.539  0.8243  1.9162  0.8414
14103TIP3   OH263799   6.833   6.419  15.845  0.2536  0.5200 -0.5977
14103TIP3    H163800   6.813   6.328  15.870  0.4304  0.7494  0.3962
14103TIP3    H263801   6.800   6.426  15.755  0.2514 -0.5326 -0.6948
14104TIP3   OH263802   1.779   4.690   3.632  0.0625  0.0396  0.4543
14104TIP3    H163803   1.747   4.775   3.602 -1.8298 -0.5613  0.6945
14104TIP3    H263804   1.739   4.627   3.573  1.7233 -0.7054  0.0555
14105TIP3   OH263805   4.847   3.451  13.647  0.4724  0.0658  0.3251
14105TIP3    H163806   4.893   3.521  13.601  1.2748 -0.5767  0.1307
14105TIP3    H263807   4.900   3.373  13.632 -0.8720 -0.7804 -0.2053
14106TIP3   OH263808   1.187   5.807   1.499 -0.1354 -0.3134 -0.1728
14106TIP3    H163809   1.276   5.780   1.522 -0.5391 -2.8291 -1.1824
14106TIP3    H263810   1.156   5.738   1.441 -2.5108  0.8741 -0.4287
14107TIP3   OH263811   2.587   5.820   4.610 -0.1324 -0.5412 -0.4437
14107TIP3    H163812   2.541   5.890   4.656  1.3190 -0.0207  0.2782
14107TIP3    H263813   2.569   5.836   4.517 -1.0330 -0.1111 -0.2063
14108TIP3   OH263814   6.398   4.836   0.875 -0.2461  0.3047  0.1761
14108TIP3    H163815   6.480   4.793   0.899  0.6334  2.5772  1.5477
14108TIP3    H263816   6.420   4.929   0.873 -1.6018  0.7828 -4.2927
14109TIP3   OH263817   4.784   3.013  15.712  0.5110  0.2068  0.4888
14109TIP3    H163818   4.693   3.003  15.683  0.5343  0.4336  0.3364
14109TIP3    H263819   4.834   2.962  15.649  0.2903 -1.8453  1.8970
14110TIP3   OH263820   0.520   0.328  12.928 -0.4165 -0.3411 -0.1710
14110TIP3    H163821   0.436   0.293  12.899 -0.4281 -1.4510  1.0819
14110TIP3    H263822   0.497   0.409  12.974 -0.5772  0.4192 -1.5649
14111TIP3   OH263823   1.171   0.196  11.074 -0.2084  0.0905 -0.1161
14111TIP3    H163824   1.263   0.203  11.098  0.9978 -2.9049 -3.1901
14111TIP3    H263825   1.151   0.279  11.031  1.5322  0.1856 -0.7925
14112TIP3   OH263826   4.560   6.182   1.565  0.4444  0.2551 -0.1568
14112TIP3    H163827   4.570   6.131   1.485  1.9854 -0.3001  0.3603
14112TIP3    H263828   4.638   6.162   1.617 -1.2767 -0.7673  2.2673
14113TIP3   OH263829   5.890   5.002   0.745  0.3328 -0.3228 -0.0143
14113TIP3    H163830   5.883   4.965   0.657 -1.4250 -0.4955  0.1650
14113TIP3    H263831   5.867   4.930   0.803  1.6904 -0.2683  0.6250
14114TIP3   OH263832   0.069   5.526  15.603  0.1479  0.0413 -0.3646
14114TIP3    H163833   0.134   5.471  15.647 -1.2128 -1.0799  0.3251
14114TIP3    H263834  -0.011   5.517  15.655 -1.1496 -0.2429 -2.2722
14115TIP3   OH263835   1.039   0.480  14.808 -0.5979 -0.2496 -0.0348
14115TIP3    H163836   1.036   0.385  14.807 -1.4757 -0.2728  1.7304
14115TIP3    H263837   0.975   0.507  14.742 -0.3685 -0.8662 -0.5159
14116TIP3   OH263838   0.485   5.028   3.868 -0.1326  0.8333 -0.0552
14116TIP3    H163839   0.394   5.031   3.837  0.2967  1.4771 -1.3602
14116TIP3    H263840   0.524   4.955   3.820 -0.0072  0.4318  0.6530
14117TIP3   OH263841   2.454   4.442   0.548  0.4239  0.3698  0.3615
14117TIP3    H163842   2.486   4.368   0.600  1.8933  0.2675 -0.6161
14117TIP3    H263843   2.502   4.435   0.466  0.5681  2.3819  0.2293
14118TIP3   OH263844   3.370   1.834   1.296 -0.3501 -0.3891  0.7175
14118TIP3    H163845   3.293   1.865   1.343  0.5489  1.1076  1.2754
14118TIP3    H263846   3.395   1.908   1.240  2.1447  0.1475  2.4176
14119TIP3   OH263847   4.000   2.706  13.774 -0.2722  0.2794 -0.3518
14119TIP3    H163848   3.973   2.758  13.699 -0.3236  0.4831 -0.1933
14119TIP3    H263849   3.939   2.730  13.844 -0.8786 -0.6717 -0.5367
14120TIP3   OH263850   1.700   3.759   1.329 -0.5116  0.4065 -0.1408
14120TIP3    H163851   1.738   3.708   1.401  1.7191  0.4162 -1.2182
14120TIP3    H263852   1.703   3.699   1.254  1.2544  1.7050 -1.1985
14121TIP3   OH263853   4.094   4.802  11.328 -0.1121 -0.4376 -0.0095
14121TIP3    H163854   4.044   4.724  11.352 -2.9528  1.3834  0.4983
14121TIP3    H263855   4.122   4.840  11.411  0.7216 -0.5322 -0.2308
14122TIP3   OH263856   6.579   1.073  14.632 -0.3933  0.6994  0.1256
14122TIP3    H163857   6.645   1.015  14.594 -0.2063  0.1106  1.3039
14122TIP3    H263858   6.496   1.027  14.618 -0.6118  1.5300 -1.5294
14123TIP3   OH263859   1.303   0.416  11.829  0.0365 -0.3788  0.8484
14123TIP3    H163860   1.224   0.464  11.804 -0.1535 -0.9369  0.3587
14123TIP3    H263861   1.300   0.335  11.778  1.1394 -0.2270  0.5045
14124TIP3   OH263862   5.415   1.013  13.850 -0.3129  0.1827  0.0161
14124TIP3    H163863   5.365   1.074  13.796  0.2339  0.0965 -0.6129
14124TIP3    H263864   5.414   0.931  13.799  2.6476  0.8583 -1.3752
14125TIP3   OH263865   0.904   5.614   5.940 -0.3906  0.2594 -0.1290
14125TIP3    H163866   0.872   5.538   5.892 -0.3587  0.4266 -0.4158
14125TIP3    H263867   0.826   5.649   5.983 -0.1705 -0.7814  1.2058
14126TIP3   OH263868   4.273   5.271   0.846 -0.5915 -0.0669 -0.2025
14126TIP3    H163869   4.208   5.336   0.821  0.8538  2.2434  1.5725
14126TIP3    H263870   4.264   5.263   0.941  1.9088  0.6549  0.1695
14127TIP3   OH263871   6.574   1.405  12.814  0.1081  0.0232 -0.4161
14127TIP3    H163872   6.534   1.335  12.865  0.5609 -0.6588 -0.9882
14127TIP3    H263873   6.548   1.485  12.860 -0.5222 -0.5022  0.1656
14128TIP3   OH263874   2.989   2.277  11.387 -0.4242  0.3994  0.2393
14128TIP3    H163875   3.019   2.367  11.398  0.8327  0.0105  0.1128
14128TIP3    H263876   3.016   2.253  11.298 -2.5102  0.5239 -0.4860
14129TIP3   OH263877   5.393   3.372  12.563  0.0782  0.3206  0.1310
14129TIP3    H163878   5.366   3.458  12.596  0.2599 -0.1574  1.6167
14129TIP3    H263879   5.312   3.325  12.546 -0.0217  0.8301 -0.8178
14130TIP3   OH263880   1.242   1.554  15.766 -0.1269  0.0886 -0.0502
14130TIP3    H163881   1.218   1.621  15.702  2.2557  0.3063 -0.7867
14130TIP3    H263882   1.225   1.595  15.851 -1.1046  0.6536 -0.4948
14131TIP3   OH263883   1.176   3.022   1.534  0.7299  0.4290  0.2585
14131TIP3    H163884   1.187   3.012   1.628 -1.4544  0.0109  0.5259
14131TIP3    H263885   1.203   2.938   1.498 -2.1816 -0.9232  0.9615
14132TIP3   OH263886   3.225   5.467  12.555 -0.4697 -0.0820 -0.0844
14132TIP3    H163887   3.297   5.524  12.582  0.0642 -0.6426 -0.2979
14132TIP3    H263888   3.163   5.526  12.510 -0.5568  0.5500  0.8307
14133TIP3   OH263889   0.181   5.929  14.569 -0.3556 -0.6224 -0.0009
14133TIP3    H163890   0.257   5.971  14.528 -0.8226  2.3482  1.8972
14133TIP3    H263891   0.110   5.943  14.506 -0.1614  0.0895 -0.0671
14134TIP3   OH263892   4.536   3.008   1.210  0.1494  0.0766 -0.1931
14134TIP3    H163893   4.524   2.913   1.219  0.7433  0.1719  2.6962
14134TIP3    H263894   4.630   3.018   1.193  0.1042  0.1592 -0.3978
14135TIP3   OH263895   6.118   4.170  11.532 -0.4126 -0.4685 -0.3510
14135TIP3    H163896   6.160   4.213  11.607 -0.1858 -1.7337  0.2832
14135TIP3    H263897   6.185   4.110  11.499 -0.8575 -0.6441 -0.9480
14136TIP3   OH263898   5.844   2.083   3.367  0.1194  0.7572 -0.3488
14136TIP3    H163899   5.915   2.028   3.402 -0.8337  0.2592  0.8599
14136TIP3    H263900   5.883   2.170   3.362  1.0392  0.3623 -0.3787
14137TIP3   OH263901   0.017   5.962  15.898  0.1095  0.0651 -0.4630
14137TIP3    H163902  -0.021   6.050  15.900  0.7628  0.3659 -0.9664
14137TIP3    H263903   0.020   5.940  15.805  0.1989 -0.3792 -0.3563
14138TIP3   OH263904   0.533   3.329   0.520 -0.5572 -0.1842 -0.0631
14138TIP3    H163905   0.544   3.286   0.605 -0.4630 -0.7439 -0.3545
14138TIP3    H263906   0.531   3.422   0.541  2.8382 -0.0618  0.2244
14139TIP3   OH263907   0.044   4.137   0.792  0.4249  0.2240 -1.0033
14139TIP3    H163908   0.015   4.047   0.812  2.0924 -0.5727 -1.9411
14139TIP3    H263909   0.015   4.151   0.702  0.3926  0.5271 -0.9443
14140TIP3   OH263910   2.741   2.096   6.053  0.0959 -0.0428 -0.1868
14140TIP3    H163911   2.665   2.059   6.098 -0.0445  1.1962  0.6571
14140TIP3    H263912   2.744   2.187   6.083  1.3562  0.1850 -0.9465
14141TIP3   OH263913   1.180   0.897  13.004 -0.6696 -0.4475 -0.0715
14141TIP3    H163914   1.202   0.989  12.993  1.6936 -0.8015  1.0685
14141TIP3    H263915   1.215   0.855  12.925  1.1092 -0.7357  0.8204
14142TIP3   OH263916   6.369   6.697   0.181  0.1268 -0.3192  0.1241
14142TIP3    H163917   6.458   6.668   0.202  0.1498 -0.6366 -0.4148
14142TIP3    H263918   6.360   6.684   0.087 -0.0809  0.8384 -0.0324
14143TIP3   OH263919   1.015   1.892  12.546 -0.1834 -0.0391  0.3391
14143TIP3    H163920   0.928   1.854  12.539 -0.5137 -0.1131  3.4464
14143TIP3    H263921   1.002   1.986  12.534 -1.4213  0.4271  4.0230
14144TIP3   OH263922   4.066   5.506  15.832  0.0454  0.0709  0.1052
14144TIP3    H163923   4.059   5.585  15.779 -0.7071 -0.6724 -0.9377
14144TIP3    H263924   3.987   5.456  15.811  0.9803 -1.4037  0.0021
14145TIP3   OH263925   5.926   2.366  13.870  0.6239 -0.2455  0.9491
14145TIP3    H163926   5.927   2.452  13.827 -0.3813 -0.3342  0.7233
14145TIP3    H263927   5.841   2.329  13.847  1.0309 -1.2953  1.0778
14146TIP3   OH263928   0.108   3.933   0.403  0.5862  0.1117 -1.0900
14146TIP3    H163929   0.159   3.857   0.375  1.7056  0.6835 -0.6930
14146TIP3    H263930   0.174   3.994   0.438 -0.3875  0.8446 -0.4784
14147TIP3   OH263931   6.271   4.233  15.493 -0.4806  0.2505 -0.2922
14147TIP3    H163932   6.276   4.277  15.408  1.0111 -0.6721 -0.7353
14147TIP3    H263933   6.329   4.284  15.550  0.7566 -0.6975 -0.6382
14148TIP3   OH263934   1.424   5.542   3.070 -0.4243 -0.0227  0.4229
14148TIP3    H163935   1.357   5.587   3.018  0.0457  2.0579  1.4974
14148TIP3    H263936   1.457   5.610   3.129  1.7404 -1.3301  0.7995
14149TIP3   OH263937   5.082   2.591   2.087 -0.0176 -0.4774  0.1957
14149TIP3    H163938   5.155   2.593   2.026  0.5567  0.7256  0.8974
14149TIP3    H263939   5.008   2.559   2.035  0.1385  1.7166 -1.5187
14150TIP3   OH263940   3.386   0.177   3.747  0.7595  0.5211  0.6652
14150TIP3    H163941   3.383   0.255   3.692 -0.0140 -0.8150 -1.3196
14150TIP3    H263942   3.478   0.153   3.750  0.7112 -0.0421 -1.1225
14151TIP3   OH263943   1.434   3.981   2.292  0.1406 -0.3850 -0.7511
14151TIP3    H163944   1.351   4.025   2.270 -0.6219 -1.0999  0.5670
14151TIP3    H263945   1.407   3.893   2.321  1.2862 -0.3572  0.4575
14152TIP3   OH263946   2.078   2.325   1.437  0.2599 -0.0667 -0.3745
14152TIP3    H163947   2.017   2.307   1.508 -3.1896  1.1091 -2.7625
14152TIP3    H263948   2.077   2.246   1.383  0.4708  0.1256 -0.6687
14153TIP3   OH263949   4.604   0.028  12.458  1.0609 -0.1466 -0.2097
14153TIP3    H163950   4.562  -0.027  12.392  1.0508  0.6219 -0.8616
14153TIP3    H263951   4.621  -0.031  12.531 -1.8223 -0.3457  0.4021
14154TIP3   OH263952   3.347   5.071  12.648 -0.6524  0.5070 -0.2575
14154TIP3    H163953   3.373   5.028  12.567 -2.0545  0.0060 -0.4722
14154TIP3    H263954   3.322   4.999  12.707 -0.6468  0.9136  0.2494
14155TIP3   OH263955   0.466   2.644   1.987 -0.4154  0.7718 -0.0099
14155TIP3    H163956   0.506   2.697   1.918 -3.4370  3.0223 -0.2602
14155TIP3    H263957   0.429   2.569   1.940  0.3163  0.5871 -0.3045
14156TIP3   OH263958   1.514   1.321  13.671  0.1530  0.4875  0.0227
14156TIP3    H163959   1.529   1.305  13.764  2.7509 -0.5697 -0.5096
14156TIP3    H263960   1.597   1.299  13.628 -1.1224  0.4087 -2.6272
14157TIP3   OH263961   5.542   2.586   6.738  0.2362 -0.6597  0.0272
14157TIP3    H163962   5.631   2.621   6.737  0.1453 -0.4117 -1.2891
14157TIP3    H263963   5.549   2.505   6.787  1.0018 -0.1956  0.7237
14158TIP3   OH263964   2.408   4.780   5.074  0.3269  0.0651 -0.2573
14158TIP3    H163965   2.397   4.871   5.047 -1.1248  0.6878  2.0877
14158TIP3    H263966   2.451   4.737   5.000 -0.2971  2.3136 -2.0260
14159TIP3   OH263967   4.852   0.836   2.846 -0.1500  0.0300 -0.0671
14159TIP3    H163968   4.833   0.774   2.776  0.3098 -0.1435 -0.0371
14159TIP3    H263969   4.920   0.892   2.810 -0.1886  0.1849  0.1024
14160TIP3   OH263970   4.009   0.879  12.431 -0.0024 -0.0149 -0.0950
14160TIP3    H163971   4.073   0.855  12.498  0.1165 -0.4562 -0.3601
14160TIP3    H263972   3.925   0.875  12.475 -0.1212 -2.0784 -0.3855
14161TIP3   OH263973   5.892   5.307  17.088  0.9270  0.5545 -0.0006
14161TIP3    H163974   5.867   5.349  17.171  1.8215  2.1361 -0.4855
14161TIP3    H263975   5.921   5.220  17.114  0.5289  0.7678  1.2718
14162TIP3   OH263976   6.222   3.037   0.184  0.4732  0.2090 -0.0879
14162TIP3    H163977   6.281   3.069   0.116 -0.3813 -0.0678 -0.9840
14162TIP3    H263978   6.226   3.103   0.252  1.6957  0.2702 -0.1962
14163TIP3   OH263979   0.647   6.072  12.145  0.1752  0.3398 -0.1336
14163TIP3    H163980   0.710   6.000  12.150  2.3831  2.0283 -1.4880
14163TIP3    H263981   0.562   6.030  12.152  1.3971 -2.1429  1.2372
14164TIP3   OH263982   1.673   5.788  17.006 -0.0523 -0.5756  0.6648
14164TIP3    H163983   1.768   5.792  17.012  0.0149 -2.3009  1.3233
14164TIP3    H263984   1.654   5.799  16.913  0.8809 -1.3207  0.3619
14165TIP3   OH263985   4.799   3.487   6.153 -0.0132 -0.4804  0.1946
14165TIP3    H163986   4.814   3.422   6.221 -1.0038 -0.4544  0.4582
14165TIP3    H263987   4.711   3.520   6.171 -0.3374 -0.5534 -1.1586
14166TIP3   OH263988   4.172   4.879   1.796 -0.3176 -0.2054  0.1292
14166TIP3    H163989   4.126   4.796   1.805 -0.4241 -0.3392 -1.3387
14166TIP3    H263990   4.204   4.879   1.705  0.0079  1.1796  0.2142
14167TIP3   OH263991   2.545   4.670  16.048  0.3718 -0.2089  0.2088
14167TIP3    H163992   2.555   4.649  16.141  2.5419 -1.8614 -0.2986
14167TIP3    H263993   2.618   4.729  16.030 -0.5010  0.7368 -0.3127
14168TIP3   OH263994   1.767   0.050   0.271  0.2166 -0.2362  0.3129
14168TIP3    H163995   1.827   0.113   0.312 -1.6051  1.0300  1.1829
14168TIP3    H263996   1.811   0.023   0.191  1.6931  1.0697  0.6375
14169TIP3   OH263997   0.989   4.367  12.301 -0.3188  0.5029 -0.2556
14169TIP3    H163998   1.075   4.332  12.281 -0.5727  0.6383 -1.7068
14169TIP3    H263999   1.006   4.451  12.344  0.2752 -0.7899  2.2086
14170TIP3   OH264000   5.199   6.486   5.530  0.0507 -0.3488 -0.0555
14170TIP3    H164001   5.184   6.451   5.442 -0.2113 -1.1751  0.3071
14170TIP3    H264002   5.168   6.417   5.589  0.3030  0.1593  0.6888
14171TIP3   OH264003   0.723   6.166   0.233 -0.0396 -0.3260 -0.0656
14171TIP3    H164004   0.794   6.215   0.273  0.8698 -0.1171 -1.8459
14171TIP3    H264005   0.647   6.224   0.241  0.3269  0.0841  0.5326
14172TIP3   OH264006   4.574   0.581   0.151  0.0982  0.0654 -0.0066
14172TIP3    H164007   4.589   0.512   0.215 -0.2711  0.7593  0.8479
14172TIP3    H264008   4.595   0.540   0.066 -2.0441 -1.7525  0.2234
14173TIP3   OH264009   3.504   5.035   4.989 -0.5639  0.5154  1.0911
14173TIP3    H164010   3.493   5.004   4.899 -0.9879 -1.9309  1.8983
14173TIP3    H264011   3.417   5.065   5.016 -0.9336 -0.6634  1.2878
14174TIP3   OH264012   2.435   0.747   3.661  0.0964  0.2928  0.7936
14174TIP3    H164013   2.409   0.660   3.691  0.7353 -0.1105  0.2192
14174TIP3    H264014   2.525   0.757   3.693  0.6208  0.0454 -0.5319
14175TIP3   OH264015   5.006   1.471  13.211  0.7417  0.5598  0.6707
14175TIP3    H164016   4.971   1.438  13.293  1.2231  2.5692  1.7391
14175TIP3    H264017   4.942   1.443  13.145 -2.3504  2.9849  2.3724
14176TIP3   OH264018   6.329   0.598   3.311  0.3635 -0.1934 -0.1954
14176TIP3    H164019   6.277   0.673   3.282 -0.6942 -0.5013  0.8203
14176TIP3    H264020   6.267   0.525   3.310  0.6904 -0.5189  1.2875
14177TIP3   OH264021   4.934   1.960  14.436 -0.4686 -0.6125 -0.3505
14177TIP3    H164022   4.994   1.906  14.488  1.1959  0.0032 -1.5215
14177TIP3    H264023   4.878   2.002  14.501 -0.0550 -1.6927  0.7577
14178TIP3   OH264024   5.893   4.406   5.825  0.1002  0.2222  0.0566
14178TIP3    H164025   5.974   4.457   5.816  1.3990 -1.9442 -1.5126
14178TIP3    H264026   5.827   4.458   5.779  1.4612  0.3867 -1.8286
14179TIP3   OH264027   2.202   3.922   4.430 -0.4932  0.6818  0.5209
14179TIP3    H164028   2.245   3.853   4.379 -1.8712 -0.3079  0.6149
14179TIP3    H264029   2.158   3.976   4.364  0.1466  1.1580  0.4817
14180TIP3   OH264030   4.926   2.147  12.923 -0.0077 -0.4262 -0.5768
14180TIP3    H164031   4.916   2.167  13.016 -0.5279 -0.2502 -0.6689
14180TIP3    H264032   5.020   2.156  12.906 -0.0876  0.9854 -0.4006
14181TIP3   OH264033   1.025   2.030   5.261 -0.2586  0.0380 -0.2495
14181TIP3    H164034   1.089   2.066   5.198  0.5428 -1.0930 -0.1175
14181TIP3    H264035   0.960   2.099   5.271  1.4769  1.6644  0.3754
14182TIP3   OH264036   1.925   5.301   4.214 -0.0497 -0.8261 -0.7018
14182TIP3    H164037   1.860   5.270   4.152 -1.6072 -0.6506  0.7576
14182TIP3    H264038   1.924   5.237   4.285 -1.4824  1.0719  1.1500
14183TIP3   OH264039   4.165   4.252   5.118 -0.0484  0.4727 -0.3508
14183TIP3    H164040   4.228   4.313   5.158 -0.5499 -0.2413  1.6787
14183TIP3    H264041   4.080   4.295   5.131 -0.1260  0.8618 -1.9658
14184TIP3   OH264042   6.395   4.470  11.375 -0.2935 -0.4724 -0.0628
14184TIP3    H164043   6.464   4.414  11.411  0.6183 -0.6785 -1.9679
14184TIP3    H264044   6.419   4.480  11.283 -1.3612  1.7129 -0.1540
14185TIP3   OH264045   2.613   6.631   0.041  0.2220 -0.8486 -0.1917
14185TIP3    H164046   2.555   6.695  -0.001 -0.5337 -1.6662 -0.4130
14185TIP3    H264047   2.701   6.668   0.029 -0.2229  0.3296  0.0101
14186TIP3   OH264048   3.592   4.304  15.103 -0.6894  0.9541  0.3348
14186TIP3    H164049   3.578   4.211  15.086  1.9025  0.6848 -0.9118
14186TIP3    H264050   3.524   4.348  15.053 -1.0343 -0.2408 -0.2860
14187TIP3   OH264051   5.886   6.675   0.462 -0.2868 -0.8263 -0.0567
14187TIP3    H164052   5.970   6.674   0.508 -0.2324  0.3223 -0.1056
14187TIP3    H264053   5.826   6.717   0.524 -0.6781 -1.0654 -0.2712
14188TIP3   OH264054   6.808   0.352  11.123  0.8417 -0.2264 -0.3982
14188TIP3    H164055   6.894   0.316  11.142  0.5265 -0.9766 -0.3449
14188TIP3    H264056   6.765   0.285  11.070 -0.8689 -1.3602  2.1805
14189TIP3   OH264057   1.592   5.759  15.213 -0.0853 -0.7505 -0.2673
14189TIP3    H164058   1.601   5.688  15.276  0.0669 -1.2347 -0.8185
14189TIP3    H264059   1.681   5.771  15.178 -0.2384 -0.7692 -0.6764
14190TIP3   OH264060   2.866   0.578   2.379 -0.9211 -0.8155  0.0073
14190TIP3    H164061   2.876   0.633   2.457 -2.1198  0.3541 -0.6284
14190TIP3    H264062   2.854   0.489   2.413  0.9545 -0.7172  1.0576
14191TIP3   OH264063   4.204   4.436  11.323  0.4143 -0.0829 -0.6217
14191TIP3    H164064   4.278   4.429  11.384 -1.4362 -0.0939  1.7598
14191TIP3    H264065   4.162   4.350  11.327 -1.0413  0.6210 -0.1067
14192TIP3   OH264066   6.222   1.379   3.416 -0.1476 -0.2203  0.3832
14192TIP3    H164067   6.226   1.475   3.424  0.6973 -0.0904 -1.2519
14192TIP3    H264068   6.128   1.359   3.415 -0.3952  0.8350 -1.4961
14193TIP3   OH264069   4.563   1.516  16.825  0.3706  0.1890  0.1147
14193TIP3    H164070   4.545   1.602  16.862 -0.5816 -0.0768  0.2857
14193TIP3    H264071   4.512   1.513  16.744  0.9595  0.0462 -0.2621
14194TIP3   OH264072   0.886   0.910  13.773  0.1741 -0.4967 -0.1893
14194TIP3    H164073   0.974   0.901  13.736 -0.2324 -1.7974 -0.9102
14194TIP3    H264074   0.896   0.975  13.842  1.8432 -1.0425  0.1442
14195TIP3   OH264075   3.475   3.657   5.141 -0.3699  0.0004 -0.1285
14195TIP3    H164076   3.416   3.732   5.151  1.1121  1.0647  1.2184
14195TIP3    H264077   3.416   3.582   5.130 -1.9100  1.2886 -1.1640
14196TIP3   OH264078   3.289   0.629  11.869 -0.2166 -0.9501 -0.0603
14196TIP3    H164079   3.328   0.566  11.931  0.5912  2.4419  3.2359
14196TIP3    H264080   3.364   0.678  11.836 -0.9951 -0.2635 -0.8335
14197TIP3   OH264081   2.715   0.756  15.558  0.4874 -0.3788 -0.2077
14197TIP3    H164082   2.684   0.705  15.483 -0.4365 -0.5806  0.2868
14197TIP3    H264083   2.767   0.826  15.520  0.8377 -1.0408 -0.9718
14198TIP3   OH264084   4.192   4.681  11.586  0.2703  0.4091  0.1733
14198TIP3    H164085   4.221   4.715  11.671 -0.3371  0.2915  0.4368
14198TIP3    H264086   4.272   4.654  11.542  0.4950 -0.9433  1.3193
14199TIP3   OH264087   0.542   6.461   1.028 -0.0610 -0.8169 -0.4374
14199TIP3    H164088   0.584   6.474   0.943  1.2466 -0.5314  0.2214
14199TIP3    H264089   0.589   6.388   1.067  0.6306  0.2421  0.8007
14200TIP3   OH264090   6.227   6.808  16.129  0.1050 -0.6969 -0.4520
14200TIP3    H164091   6.310   6.856  16.128  1.9511 -3.6035  0.2840
14200TIP3    H264092   6.226   6.758  16.048 -0.6457 -1.1286 -0.1939
14201TIP3   OH264093   0.635   3.104  14.088 -0.0070 -0.4457 -0.2354
14201TIP3    H164094   0.578   3.167  14.044 -0.0294 -0.8267 -0.7651
14201TIP3    H264095   0.715   3.153  14.106 -0.7968  0.3419  1.3057
14202TIP3   OH264096   5.203   0.524   3.351 -0.2708 -0.5482  0.3245
14202TIP3    H164097   5.221   0.476   3.270 -2.2482 -0.9326  0.0554
14202TIP3    H264098   5.136   0.588   3.327  1.5374  1.6977  0.9343
14203TIP3   OH264099   6.067   4.421  16.071 -0.2125 -0.6104 -0.3909
14203TIP3    H164100   6.000   4.357  16.048 -1.2370  0.4559 -0.4858
14203TIP3    H264101   6.091   4.399  16.161 -0.3171 -1.3161 -0.5300
14204TIP3   OH264102   1.136   1.915   1.596 -0.7973  1.0909 -0.4695
14204TIP3    H164103   1.157   1.877   1.511 -1.9690 -1.3090  0.2501
14204TIP3    H264104   1.047   1.949   1.587 -1.4854 -0.4720  0.1689
14205TIP3   OH264105   0.748   5.734   0.697  0.0797  0.5665 -0.7014
14205TIP3    H164106   0.809   5.733   0.770 -1.1445 -1.8090  0.4258
14205TIP3    H264107   0.760   5.649   0.654 -1.8381  0.3427 -0.9043
14206TIP3   OH264108   3.117   4.067  11.177 -0.2012 -0.4222  0.0003
14206TIP3    H164109   3.093   3.977  11.156 -0.4281 -0.4254  0.2772
14206TIP3    H264110   3.034   4.112  11.192 -0.1314 -0.0073 -0.7601
14207TIP3   OH264111   5.123   5.099   4.233 -0.4844  0.0797  0.0251
14207TIP3    H164112   5.163   5.182   4.260 -0.1686 -0.2246  0.5152
14207TIP3    H264113   5.044   5.091   4.286 -0.4015 -0.0386  0.1295
14208TIP3   OH264114   2.895   2.245   1.974 -0.4977 -0.7727  0.3412
14208TIP3    H164115   2.926   2.326   2.014 -1.8704  0.6919 -1.4054
14208TIP3    H264116   2.810   2.229   2.015 -0.4570 -1.0592  0.3130
14209TIP3   OH264117   4.375   4.342   6.163  0.0057  0.0571  0.4506
14209TIP3    H164118   4.421   4.259   6.174  0.5279  0.2421 -0.3054
14209TIP3    H264119   4.292   4.329   6.211  1.0082 -0.1148  2.2316
14210TIP3   OH264120   2.426   0.662  14.126  0.3604  0.2278  0.0358
14210TIP3    H164121   2.358   0.610  14.168  0.6015  1.0666  1.5524
14210TIP3    H264122   2.489   0.598  14.092 -0.5567 -0.5152 -0.2879
14211TIP3   OH264123   6.809   6.763  16.802  0.5495  0.2651  0.2110
14211TIP3    H164124   6.897   6.761  16.763  0.4941  0.0886  0.0933
14211TIP3    H264125   6.783   6.671  16.807 -0.0409  0.3706 -0.7076
14212TIP3   OH264126   4.196   4.864   1.228 -0.4919  0.0829  0.7116
14212TIP3    H164127   4.139   4.787   1.236 -0.8114  0.0133 -1.5718
14212TIP3    H264128   4.135   4.937   1.221 -0.3554  0.0564 -1.2809
14213TIP3   OH264129   5.238   1.041  13.329  0.0292  0.9362 -0.4170
14213TIP3    H164130   5.217   1.111  13.267 -0.3747 -1.0451 -2.6565
14213TIP3    H264131   5.154   1.020  13.370 -0.3124  0.2603 -1.4289
14214TIP3   OH264132   3.354   3.600   3.857  0.3021 -0.2520  0.5528
14214TIP3    H164133   3.408   3.643   3.923 -0.2664 -0.6905  1.3184
14214TIP3    H264134   3.381   3.639   3.774  1.3408 -0.0189  0.9949
14215TIP3   OH264135   5.938   5.049  13.428  0.2630  0.1927  0.0199
14215TIP3    H164136   5.878   4.996  13.480 -1.6137  2.5370  0.4116
14215TIP3    H264137   5.888   5.074  13.350  0.9534  1.5544 -0.0306
14216TIP3   OH264138   2.333   2.105   3.311 -0.5246 -0.0923  0.1816
14216TIP3    H164139   2.322   2.181   3.369  1.3677 -0.4232  1.0629
14216TIP3    H264140   2.413   2.123   3.263 -1.0369 -0.7264 -0.9497
14217TIP3   OH264141   6.606   1.243   2.194  0.4176 -0.3597  0.0526
14217TIP3    H164142   6.567   1.296   2.263 -2.1300 -1.9709 -0.0010
14217TIP3    H264143   6.686   1.207   2.232 -1.6274 -2.3868  2.8490
14218TIP3   OH264144   4.565   3.442  13.791  0.0991 -0.8783 -0.0975
14218TIP3    H164145   4.651   3.472  13.821  0.0681  0.2266 -1.0301
14218TIP3    H264146   4.503   3.507  13.824 -0.0712 -0.3046 -1.4455
14219TIP3   OH264147   6.395   1.826  14.492  0.0560 -0.1515  0.2133
14219TIP3    H164148   6.407   1.872  14.575 -0.7024 -0.5293  0.5390
14219TIP3    H264149   6.436   1.883  14.427  0.1813  0.4075  0.7730
14220TIP3   OH264150   5.603   1.283  13.000 -0.3168 -0.0579 -0.0594
14220TIP3    H164151   5.686   1.248  12.966  1.4581  1.1463  2.6379
14220TIP3    H264152   5.579   1.222  13.070 -1.1494  0.1712 -0.1377
14221TIP3   OH264153   2.237   5.265   5.047  0.3841  0.5455  0.3294
14221TIP3    H164154   2.202   5.308   5.125  0.0578 -1.7164  1.5099
14221TIP3    H264155   2.171   5.280   4.980  0.1047  1.5354  0.8046
14222TIP3   OH264156   0.432   4.279   4.941 -0.3880  0.4209 -0.1510
14222TIP3    H164157   0.491   4.289   5.016  1.3944 -1.9661 -1.0957
14222TIP3    H264158   0.375   4.206   4.966 -1.9124  1.6483  0.0813
14223TIP3   OH264159   3.962   6.473   4.619  0.3678 -0.5192 -0.3227
14223TIP3    H164160   4.028   6.536   4.589  0.3985  0.4492  1.6610
14223TIP3    H264161   4.010   6.390   4.626  0.2238 -0.9871 -3.4061
14224TIP3   OH264162   3.620   2.427   2.299  0.4446  0.1989  0.2884
14224TIP3    H164163   3.674   2.470   2.233  0.0041  0.0284 -0.1943
14224TIP3    H264164   3.590   2.347   2.257  0.3225 -0.0115  0.7700
14225TIP3   OH264165   4.669   0.378  11.624 -0.3213 -0.2107 -0.0588
14225TIP3    H164166   4.713   0.367  11.539 -0.3400 -1.7443  0.0947
14225TIP3    H264167   4.741   0.384  11.687 -0.3122  0.0373 -0.0932
14226TIP3   OH264168   2.287   3.704  15.010 -0.1142  0.2468 -0.4341
14226TIP3    H164169   2.287   3.726  14.917 -0.2052  0.8331 -0.3038
14226TIP3    H264170   2.378   3.684  15.030  0.1268  1.2806 -0.4008
14227TIP3   OH264171   0.186   3.471  15.296 -0.0773  0.0079  0.6975
14227TIP3    H164172   0.259   3.483  15.235  0.3028 -0.6208  1.0258
14227TIP3    H264173   0.132   3.403  15.256  0.1650 -0.3949  1.0614
14228TIP3   OH264174   1.755   4.046   2.946  0.0648  0.3660 -0.0417
14228TIP3    H164175   1.758   3.950   2.953 -0.6904  0.3847  0.7112
14228TIP3    H264176   1.709   4.062   2.863  1.9163  0.1035 -1.1740
14229TIP3   OH264177   6.251   2.612  15.035 -0.0424  0.1954  0.4603
14229TIP3    H164178   6.313   2.664  14.983 -0.1706  1.0463  1.1447
14229TIP3    H264179   6.307   2.568  15.100  0.0700 -0.5683 -0.1357
14230TIP3   OH264180   3.970   4.411   2.150 -0.2663  0.6003 -0.0155
14230TIP3    H164181   3.897   4.398   2.210 -0.1909  0.6039  0.0771
14230TIP3    H264182   4.042   4.360   2.187 -0.1401  0.8161  0.0423
14231TIP3   OH264183   0.990   3.558  16.778 -0.6565 -0.3854  0.0105
14231TIP3    H164184   0.996   3.508  16.696 -0.4314  2.0006 -1.5341
14231TIP3    H264185   0.928   3.628  16.759  0.1472  0.8083  1.5420
14232TIP3   OH264186   5.753   5.375   3.286 -0.2956 -0.1828  0.6829
14232TIP3    H164187   5.802   5.295   3.269 -1.0059 -0.8550  1.7344
14232TIP3    H264188   5.819   5.437   3.318  0.5399  0.1899 -1.5337
14233TIP3   OH264189   4.117   1.635  13.868 -0.2703 -0.4985 -0.1486
14233TIP3    H164190   4.107   1.690  13.790 -0.2885 -0.5896 -0.2096
14233TIP3    H264191   4.067   1.682  13.936  1.6030  0.7932  0.4172
14234TIP3   OH264192   0.636   1.888   5.338  0.2238 -0.2110 -0.0048
14234TIP3    H164193   0.655   1.973   5.299  1.6240  0.9713  2.9706
14234TIP3    H264194   0.610   1.907   5.428  0.8011 -2.9266  0.8482
14235TIP3   OH264195   3.356   2.441  14.393  0.4114  0.4837  0.2457
14235TIP3    H164196   3.342   2.376  14.461 -0.5412 -0.4580 -0.8138
14235TIP3    H264197   3.412   2.398  14.329 -0.6410  0.5036 -0.7146
14236TIP3   OH264198   3.422   0.559  12.649 -0.3161  0.0449  0.4510
14236TIP3    H164199   3.440   0.535  12.559 -1.7886  1.3110 -0.2379
14236TIP3    H264200   3.468   0.494  12.702  1.7150  0.0761 -1.1626
14237TIP3   OH264201   0.254   1.563   5.490 -0.0245  0.3566  0.1216
14237TIP3    H164202   0.194   1.490   5.475  0.8484 -0.0895 -1.4713
14237TIP3    H264203   0.335   1.522   5.519 -0.0834  0.8579  1.0325
14238TIP3   OH264204   6.835   2.317   1.224 -0.3179 -0.9738 -0.6087
14238TIP3    H164205   6.792   2.392   1.267  1.8275 -0.5848  1.0104
14238TIP3    H264206   6.794   2.313   1.137 -1.0096  1.6221 -0.4832
14239TIP3   OH264207   5.299   1.053  14.110  0.7017 -0.0219 -0.1107
14239TIP3    H164208   5.343   1.023  14.190  2.0825 -0.0257 -0.8398
14239TIP3    H264209   5.362   1.033  14.040  1.2079  3.4489 -0.7946
14240TIP3   OH264210   3.671   6.531  16.393  0.2273 -0.3701  0.3619
14240TIP3    H164211   3.712   6.485  16.467  0.6032 -1.7419 -0.6441
14240TIP3    H264212   3.745   6.568  16.344  0.0347 -0.1338  0.2502
14241TIP3   OH264213   0.644   6.043  15.845 -0.0260 -0.1502  0.0022
14241TIP3    H164214   0.606   5.957  15.861 -0.6959 -0.0891 -1.1161
14241TIP3    H264215   0.569   6.102  15.844  0.5012  0.5856  1.5083
14242TIP3   OH264216   1.032   5.589   0.704  0.1082  0.7549  0.0932
14242TIP3    H164217   0.945   5.570   0.670 -0.0820  1.3333  0.2438
14242TIP3    H264218   1.069   5.503   0.726 -0.1386  0.4583 -0.6497
14243TIP3   OH264219   1.706   5.301  11.087  0.0639  0.2863  0.3635
14243TIP3    H164220   1.725   5.340  11.002  0.0150 -0.9677 -0.2500
14243TIP3    H264221   1.730   5.209  11.078  0.2782  0.1670  1.7870
14244TIP3   OH264222   3.915   1.055  11.759  0.1352  0.0597  0.1119
14244TIP3    H164223   3.864   0.997  11.816 -1.8169  3.1021  1.7671
14244TIP3    H264224   3.965   1.110  11.819  1.2374  0.7089 -1.3274
14245TIP3   OH264225   4.195   5.626  16.952  0.2527 -0.0181 -0.3691
14245TIP3    H164226   4.247   5.629  16.872  0.0270  3.4453 -0.5749
14245TIP3    H264227   4.222   5.546  16.997  0.5734 -1.9397 -3.7193
14246TIP3   OH264228   2.989   4.198   4.867 -0.1491  0.6282 -0.0259
14246TIP3    H164229   2.912   4.254   4.874 -0.4687  0.0459  1.5253
14246TIP3    H264230   3.051   4.235   4.929 -0.5212 -0.9218  1.3437
14247TIP3   OH264231   0.167   2.324   5.154  0.5082 -0.7620 -0.2832
14247TIP3    H164232   0.096   2.263   5.175  0.3537 -0.2917  0.6182
14247TIP3    H264233   0.246   2.277   5.180  0.5626 -1.3731 -1.4899
14248TIP3   OH264234   4.190   1.761   3.007  0.1263 -0.2652 -0.0477
14248TIP3    H164235   4.113   1.713   3.038 -0.0204  0.9402  1.5423
14248TIP3    H264236   4.262   1.726   3.059  0.1315  0.7207  0.6268
14249TIP3   OH264237   0.584   6.168  15.197 -0.1498 -0.2391 -0.1771
14249TIP3    H164238   0.535   6.146  15.118 -1.4837  0.6897  0.3554
14249TIP3    H264239   0.521   6.159  15.269  0.6408  0.2950  0.6118
14250TIP3   OH264240   3.939   1.215   2.264  0.2753 -0.0919 -0.4256
14250TIP3    H164241   4.010   1.254   2.315 -0.8280  0.1200  0.9997
14250TIP3    H264242   3.877   1.183   2.329 -0.5900 -0.9760 -1.6284
14251TIP3   OH264243   4.553   5.983  11.172 -0.7844  0.0976  0.1859
14251TIP3    H164244   4.609   5.978  11.249 -0.6490  1.3366  0.1858
14251TIP3    H264245   4.477   6.034  11.200 -0.1602  1.6387 -0.8087
14252TIP3   OH264246   3.577   1.425  16.415  0.2770 -0.4925  0.0048
14252TIP3    H164247   3.574   1.409  16.509  0.5696 -1.8684 -0.1945
14252TIP3    H264248   3.488   1.454  16.392 -0.0632 -1.0901  0.5509
14253TIP3   OH264249   1.140   0.409  14.174 -0.1955 -0.1691 -0.1097
14253TIP3    H164250   1.130   0.486  14.230  2.6061 -0.7209  1.3479
14253TIP3    H264251   1.126   0.334  14.233 -0.0422 -0.7781 -0.8260
14254TIP3   OH264252   0.802   0.967   5.736 -0.5557 -0.5403  0.2464
14254TIP3    H164253   0.864   1.023   5.688  1.5584 -1.7047  1.4571
14254TIP3    H264254   0.755   1.027   5.793 -1.1875  0.4910 -1.2994
14255TIP3   OH264255   0.569   2.486  14.749 -0.1935 -0.1330 -0.1696
14255TIP3    H164256   0.661   2.468  14.728 -0.1724  0.4614 -0.6205
14255TIP3    H264257   0.538   2.407  14.793  0.7204 -0.0893  0.5709
14256TIP3   OH264258   4.780   5.639  14.783 -1.0307 -0.4050  0.0500
14256TIP3    H164259   4.871   5.614  14.774 -0.6447  0.2262  1.8028
14256TIP3    H264260   4.732   5.578  14.728  0.2330 -2.2825  0.9366
14257TIP3   OH264261   1.940   3.549   1.469  0.2982  0.1143  0.2094
14257TIP3    H164262   1.919   3.497   1.392  2.3155 -1.4250  0.5968
14257TIP3    H264263   2.034   3.536   1.482  0.0940  0.5340  2.7419
14258TIP3   OH264264   4.564   2.946   6.705  0.2172 -0.3445 -0.4606
14258TIP3    H164265   4.660   2.954   6.710  0.5558 -2.8656 -1.3747
14258TIP3    H264266   4.532   2.991   6.783  2.1687  0.1697  0.0998
14259TIP3   OH264267   5.207   1.728  12.025 -0.8419 -0.4163 -0.0917
14259TIP3    H164268   5.217   1.633  12.019 -1.2452 -0.4270 -0.6309
14259TIP3    H264269   5.259   1.763  11.953 -1.6616 -0.2939 -0.6360
14260TIP3   OH264270   1.284   1.086   0.062  0.1972 -0.1618  0.1517
14260TIP3    H164271   1.367   1.053   0.094  0.2554 -0.6930 -0.5356
14260TIP3    H264272   1.303   1.122  -0.024 -0.4833 -1.3110 -0.5057
14261TIP3   OH264273   2.389   1.552  12.924 -0.1829 -1.0898 -0.1963
14261TIP3    H164274   2.356   1.483  12.866 -0.2331 -1.0589 -0.2046
14261TIP3    H264275   2.414   1.506  13.004 -3.9637 -0.6731  1.4386
14262TIP3   OH264276   3.536   2.534   5.008 -0.0608 -0.0483  0.2371
14262TIP3    H164277   3.582   2.615   5.027  1.1606 -0.3883 -1.1302
14262TIP3    H264278   3.446   2.562   4.991 -0.2387  0.7116  2.1006
14263TIP3   OH264279   3.781   5.642  11.330 -0.3792 -0.6571 -0.1287
14263TIP3    H164280   3.826   5.711  11.280  1.1243 -0.7378  1.0634
14263TIP3    H264281   3.832   5.563  11.313 -1.0503 -1.1093 -0.0659
14264TIP3   OH264282   3.952   5.771   6.331 -0.3550  0.2780 -0.4870
14264TIP3    H164283   3.994   5.765   6.246 -0.7702  2.2006 -0.8652
14264TIP3    H264284   3.996   5.704   6.385 -0.0321 -0.9016 -2.1487
14265TIP3   OH264285   4.318   0.052   2.034  0.1135 -0.1528  0.1815
14265TIP3    H164286   4.233   0.092   2.053 -0.0311 -0.0963 -0.5561
14265TIP3    H264287   4.300  -0.042   2.030  0.1080 -0.1497  0.1346
14266TIP3   OH264288   2.747   5.032  11.146  0.1316 -0.2255  0.1380
14266TIP3    H164289   2.666   5.062  11.104 -0.2275  0.4154  1.2466
14266TIP3    H264290   2.800   4.997  11.074 -1.0909 -0.5841 -0.6185
14267TIP3   OH264291   2.202   2.309  13.143 -0.1233 -0.4904  0.3752
14267TIP3    H164292   2.124   2.282  13.094  0.6640  0.1455 -1.3142
14267TIP3    H264293   2.272   2.256  13.105  0.4204 -0.3951  1.2372
14268TIP3   OH264294   5.309   5.024  10.570  0.3244 -0.2869  0.4487
14268TIP3    H164295   5.304   5.072  10.653  0.5816  1.0915 -0.2902
14268TIP3    H264296   5.396   4.986  10.570  0.3711 -0.1871  0.7541
14269TIP3   OH264297   5.750   3.923  12.714 -0.4168  1.1101  0.2727
14269TIP3    H164298   5.658   3.906  12.736 -0.7229  2.3678  0.0663
14269TIP3    H264299   5.757   4.019  12.714  0.6068  1.0634 -0.8330
14270TIP3   OH264300   1.334   4.753   1.033 -0.2909 -0.0610 -0.6872
14270TIP3    H164301   1.361   4.669   0.996 -0.4691 -0.9654  1.1468
14270TIP3    H264302   1.321   4.809   0.956  1.0695 -1.3032 -1.9002
14271TIP3   OH264303   4.585   0.726  15.019 -0.3686 -0.1666 -0.2126
14271TIP3    H164304   4.671   0.746  15.058 -0.6534 -1.9773  1.5040
14271TIP3    H264305   4.588   0.768  14.933  2.6629 -1.0116 -0.6539
14272TIP3   OH264306   5.290   6.048   3.202 -0.3920  0.2000  0.9243
14272TIP3    H164307   5.383   6.028   3.215 -0.3833 -0.9626 -0.6588
14272TIP3    H264308   5.286   6.089   3.115 -1.3660  0.1865  0.9548
14273TIP3   OH264309   0.826   3.598   6.758  0.0752 -0.2745  0.3640
14273TIP3    H164310   0.833   3.505   6.782 -1.2424 -0.1620  1.2611
14273TIP3    H264311   0.765   3.635   6.822 -0.1824  0.9932 -0.5801
14274TIP3   OH264312   0.953   1.943   2.799  0.3868  0.1715  0.2299
14274TIP3    H164313   0.892   1.927   2.727 -0.0519 -2.6308  1.1021
14274TIP3    H264314   0.898   1.942   2.877  1.4462 -3.1265  1.1170
14275TIP3   OH264315   5.477   3.969   2.986 -0.6476 -0.2217 -0.5081
14275TIP3    H164316   5.479   3.952   3.080 -2.6225 -2.5363 -0.7673
14275TIP3    H264317   5.403   4.029   2.974 -1.1200 -0.8267 -0.6665
14276TIP3   OH264318   3.024   4.377  15.568  0.0732  0.1211  0.0204
14276TIP3    H164319   2.989   4.466  15.564 -0.3726  0.0303  1.4019
14276TIP3    H264320   2.953   4.325  15.606 -0.5190 -1.3108 -2.7712
14277TIP3   OH264321   6.797   4.770   4.393 -0.4232 -0.3813  0.3156
14277TIP3    H164322   6.776   4.736   4.305  1.3062 -3.2878  0.8714
14277TIP3    H264323   6.768   4.701   4.452 -0.6682  1.1082  2.0044
14278TIP3   OH264324   4.038   1.571   0.906 -0.1166  0.3085 -0.8098
14278TIP3    H164325   4.017   1.644   0.849  0.1074  0.5178 -0.6244
14278TIP3    H264326   4.121   1.537   0.871  0.6162  1.1410  0.0637
14279TIP3   OH264327   4.909   2.345   1.987  0.1931 -0.0625 -0.5009
14279TIP3    H164328   4.846   2.335   1.916  0.0177 -0.8884 -0.2445
14279TIP3    H264329   4.875   2.417   2.040 -0.6362 -0.5996 -0.2767
14280TIP3   OH264330   3.943   0.618  12.635  0.2612  0.2489  0.6211
14280TIP3    H164331   3.868   0.579  12.590  1.4798 -0.2171 -1.0807
14280TIP3    H264332   4.019   0.587  12.587  1.5044  1.6290  1.6114
14281TIP3   OH264333   5.720   1.002  11.727  0.0117 -0.4293  0.7122
14281TIP3    H164334   5.812   0.974  11.729 -0.3122 -1.5940  0.0507
14281TIP3    H264335   5.694   0.993  11.635 -1.4935 -2.6647  1.2806
14282TIP3   OH264336   4.194   3.084  17.062  0.2555  0.4064  0.3904
14282TIP3    H164337   4.186   3.165  17.011 -1.2419  0.0530  0.0376
14282TIP3    H264338   4.206   3.114  17.152  3.0750  1.0428 -0.0913
14283TIP3   OH264339   5.936   5.156  14.323 -0.1218 -0.6774  0.0831
14283TIP3    H164340   5.913   5.178  14.232 -0.2515 -2.0844 -0.2409
14283TIP3    H264341   6.011   5.213  14.343 -0.6970  0.3481 -0.5569
14284TIP3   OH264342   6.337   2.174  17.050  0.3265  0.0065 -0.5708
14284TIP3    H164343   6.267   2.109  17.038 -0.9288  1.6289 -2.5579
14284TIP3    H264344   6.409   2.142  16.995 -0.1996  0.1936 -1.3664
14285TIP3   OH264345   1.063   1.437   3.692 -0.0555  0.2907 -0.4599
14285TIP3    H164346   1.103   1.414   3.609  0.1305  1.1012 -0.6016
14285TIP3    H264347   0.998   1.503   3.670 -0.9147 -0.4128 -0.1251
14286TIP3   OH264348   5.743   4.680  13.382 -0.5961  0.4886  0.6870
14286TIP3    H164349   5.779   4.619  13.317  1.6289  0.7098  1.6211
14286TIP3    H264350   5.760   4.637  13.466 -1.1898  1.3323  1.2462
14287TIP3   OH264351   1.414   1.377   5.377 -0.3618 -1.2366 -0.1595
14287TIP3    H164352   1.497   1.362   5.422 -1.0233 -1.3399  1.0661
14287TIP3    H264353   1.438   1.425   5.298  0.5624  2.0669  1.9160
14288TIP3   OH264354   0.944   2.057  13.470  0.1786 -0.0216  0.5155
14288TIP3    H164355   0.874   2.014  13.519 -2.1695 -0.3853 -2.8325
14288TIP3    H264356   0.959   1.999  13.395  1.8676  1.6222 -0.4811
14289TIP3   OH264357   2.954   2.530  15.255  0.4259 -0.1184  0.3567
14289TIP3    H164358   2.988   2.494  15.337 -1.7299 -0.2031  1.2912
14289TIP3    H264359   3.023   2.588  15.224  2.1170 -1.5807  1.1703
14290TIP3   OH264360   2.920   2.275   5.215  0.5676 -0.1923  0.3194
14290TIP3    H164361   2.860   2.344   5.188 -0.9463 -1.2546  0.8078
14290TIP3    H264362   2.978   2.262   5.140  1.1521  1.8294  0.3569
14291TIP3   OH264363   5.543   6.461  16.771  0.5339 -0.7698  0.6092
14291TIP3    H164364   5.630   6.435  16.801  1.6268 -0.2751 -1.8917
14291TIP3    H264365   5.537   6.427  16.681 -0.5823  1.8979 -0.4238
14292TIP3   OH264366   5.257   0.163   5.997 -0.0004 -0.2682  0.2019
14292TIP3    H164367   5.332   0.203   6.040 -0.6820  2.1944 -0.7162
14292TIP3    H264368   5.294   0.105   5.931  1.0570 -0.9385  1.3696
14293TIP3   OH264369   0.461   5.571   0.081  0.0730 -0.5934 -0.1476
14293TIP3    H164370   0.399   5.500   0.095  0.5826 -1.2923 -1.2753
14293TIP3    H264371   0.539   5.528   0.045  0.0867  0.6220 -1.6659
14294TIP3   OH264372   0.075   4.372   2.209 -0.4270 -0.2758  0.3122
14294TIP3    H164373   0.040   4.292   2.249 -1.4335  0.0065  0.0211
14294TIP3    H264374   0.002   4.435   2.214  0.6682  0.9716  1.4907
14295TIP3   OH264375   3.279   2.930   4.924 -0.0100  0.1035  0.4919
14295TIP3    H164376   3.348   2.906   4.863  2.1078  1.7308  2.1072
14295TIP3    H264377   3.230   2.999   4.878 -0.0401 -0.4463 -0.3219
14296TIP3   OH264378   0.770   2.753   4.718 -0.0629  0.7249 -0.1723
14296TIP3    H164379   0.828   2.714   4.653 -0.2681 -0.5844  0.3773
14296TIP3    H264380   0.829   2.796   4.780  0.3159 -0.2586  0.1698
14297TIP3   OH264381   1.840   1.884   2.402 -0.4053 -0.1474 -0.7173
14297TIP3    H164382   1.839   1.927   2.487 -2.4668 -0.1935 -0.6718
14297TIP3    H264383   1.822   1.792   2.421 -3.0140  0.1663 -1.2773
14298TIP3   OH264384   3.316   3.485  15.584  0.1957 -0.4782 -0.0769
14298TIP3    H164385   3.262   3.407  15.598  0.1120  0.0171  2.9383
14298TIP3    H264386   3.253   3.556  15.571  0.1893 -0.4414  0.1474
14299TIP3   OH264387   3.221   6.075   1.889 -0.0518 -0.3975  0.0178
14299TIP3    H164388   3.196   5.995   1.935  0.9622 -0.6607  0.1341
14299TIP3    H264389   3.161   6.080   1.815 -1.2856 -0.3176  0.9905
14300TIP3   OH264390   1.893   0.594   2.780 -0.2695  0.0039  0.1014
14300TIP3    H164391   1.857   0.507   2.798 -0.7421  0.1396 -0.1731
14300TIP3    H264392   1.987   0.579   2.767 -0.2441 -0.3716  0.6958
14301TIP3   OH264393   4.901   6.432   2.142  0.6080  0.0740 -0.9072
14301TIP3    H164394   4.861   6.519   2.135 -0.9280 -0.5881 -0.8159
14301TIP3    H264395   4.875   6.401   2.228  3.2691  0.4879  0.1111
14302TIP3   OH264396   5.463   3.799  11.553 -0.5266  0.7619  0.2393
14302TIP3    H164397   5.534   3.737  11.538 -0.5072  0.7516  0.3723
14302TIP3    H264398   5.454   3.803  11.649 -1.4320 -0.0625  0.1942
14303TIP3   OH264399   6.479   0.818  12.685  0.4864 -0.1070 -0.3848
14303TIP3    H164400   6.462   0.870  12.606  0.6506 -0.2557 -0.5191
14303TIP3    H264401   6.415   0.747  12.681 -0.1736  0.4474  0.1357
14304TIP3   OH264402   0.429   4.844   0.813  0.1234  0.1593 -0.1971
14304TIP3    H164403   0.369   4.887   0.874 -0.2932  0.9448 -1.1340
14304TIP3    H264404   0.376   4.776   0.772  0.0761  0.3637 -0.4814
14305TIP3   OH264405   6.628   6.770  12.409  0.4475 -0.4128  0.7679
14305TIP3    H164406   6.689   6.842  12.425 -0.6641  1.4961 -2.6265
14305TIP3    H264407   6.601   6.781  12.318 -3.3588 -2.3469  1.4605
14306TIP3   OH264408   2.332   3.580  14.269 -0.0631 -0.1259  0.2688
14306TIP3    H164409   2.243   3.544  14.271 -0.1702  0.1221 -0.0715
14306TIP3    H264410   2.371   3.542  14.191 -0.2298  0.6188 -0.1846
14307TIP3   OH264411   0.575   3.962  15.946  0.0540  0.1387  0.0825
14307TIP3    H164412   0.649   3.964  15.886  0.0910  1.8832  0.1260
14307TIP3    H264413   0.586   4.039  16.001  0.5480 -1.8893  3.0647
14308TIP3   OH264414   5.649   6.469   2.375  0.5536 -0.5774 -0.7801
14308TIP3    H164415   5.638   6.564   2.371  0.1953 -0.6105 -0.5784
14308TIP3    H264416   5.561   6.435   2.392  0.6950 -0.9403 -0.7719
14309TIP3   OH264417   3.110   0.447   3.235  1.3290 -0.4182  0.7986
14309TIP3    H164418   3.086   0.538   3.216  0.0501 -0.7367  0.8000
14309TIP3    H264419   3.205   0.450   3.248  1.4462  0.7570 -0.1190
14310TIP3   OH264420   6.061   4.038   4.084  0.3075  0.2194 -0.0227
14310TIP3    H164421   5.992   3.977   4.057  0.4705 -0.2927  0.6996
14310TIP3    H264422   6.082   4.086   4.004 -0.4933 -0.0048 -0.3835
14311TIP3   OH264423   1.063   3.064   0.446  0.3882  0.0208 -0.2758
14311TIP3    H164424   1.100   3.084   0.532 -0.7142 -0.2596  0.2903
14311TIP3    H264425   1.137   3.034   0.394  0.6004 -3.3900  1.6914
14312TIP3   OH264426   1.119   0.560  15.797 -0.7544  0.1859  0.4486
14312TIP3    H164427   1.103   0.495  15.728 -1.0289 -1.0090  1.5831
14312TIP3    H264428   1.214   0.559  15.809 -0.6273  0.9394 -0.3915
14313TIP3   OH264429   0.961   3.430  11.738  0.3504 -0.2785  0.2977
14313TIP3    H164430   0.975   3.517  11.775 -2.0793  0.9041 -1.2913
14313TIP3    H264431   0.930   3.377  11.812  0.0754  0.7293  0.9233
14314TIP3   OH264432   2.420   5.072  16.267  0.5690  0.4403  0.0048
14314TIP3    H164433   2.329   5.068  16.298  0.9494  0.0250  1.1304
14314TIP3    H264434   2.413   5.063  16.172 -0.5040 -0.9388  0.1679
14315TIP3   OH264435   1.441   5.851   2.648  0.3402 -0.7080 -0.4462
14315TIP3    H164436   1.489   5.929   2.675  0.3215 -0.8533  0.0044
14315TIP3    H264437   1.500   5.807   2.586  0.1553 -0.0955 -1.0652
14316TIP3   OH264438   1.447   1.035  13.102 -0.4041 -0.3559  0.2153
14316TIP3    H164439   1.540   1.020  13.085 -1.1186 -2.1285 -2.9406
14316TIP3    H264440   1.406   1.036  13.015 -2.9947  3.6817  1.1903
14317TIP3   OH264441   5.251   4.813   1.800 -0.6079  0.1913 -0.2097
14317TIP3    H164442   5.337   4.834   1.835  0.0627 -1.2730 -0.8828
14317TIP3    H264443   5.198   4.791   1.876 -0.6456  1.8170  0.2777
14318TIP3   OH264444   3.152   3.713  16.054  0.7729 -0.6345 -0.4528
14318TIP3    H164445   3.077   3.704  15.994 -1.1753  2.9024  1.1869
14318TIP3    H264446   3.189   3.798  16.033  2.7594 -1.1852  0.5832
14319TIP3   OH264447   4.155   5.787  14.838  0.0982  0.0139  0.2034
14319TIP3    H164448   4.202   5.716  14.882 -2.0240 -0.5921  1.6418
14319TIP3    H264449   4.099   5.743  14.774  1.5520  0.7485 -1.6824
14320TIP3   OH264450   6.016   5.493   5.277 -0.5261 -0.3995  0.6263
14320TIP3    H164451   6.109   5.471   5.270 -0.4051 -0.1140  1.2781
14320TIP3    H264452   5.990   5.457   5.362 -1.0192 -0.5060  0.4296
14321TIP3   OH264453   2.188   5.978  14.965 -0.3504 -1.2641  0.1296
14321TIP3    H164454   2.095   5.999  14.962  0.0614  0.6589 -2.4816
14321TIP3    H264455   2.191   5.884  14.981 -2.7582 -1.4901 -0.4642
14322TIP3   OH264456   5.691   1.539   3.810 -0.4644  0.0327 -0.2855
14322TIP3    H164457   5.649   1.618   3.846  0.3917  0.6195 -0.5422
14322TIP3    H264458   5.777   1.569   3.781 -0.8953 -0.5103 -2.3413
14323TIP3   OH264459   6.280   3.874  15.769 -0.1913  0.2721 -0.2400
14323TIP3    H164460   6.223   3.799  15.751  1.9363 -1.1838 -1.3608
14323TIP3    H264461   6.221   3.942  15.803 -2.6474 -0.9498 -1.7760
14324TIP3   OH264462   4.013   5.393   1.274  0.7087 -0.5075 -0.2004
14324TIP3    H164463   4.057   5.427   1.351 -0.5125 -1.3956  0.9402
14324TIP3    H264464   3.920   5.397   1.296  0.2345  0.5087 -2.1891
14325TIP3   OH264465   6.684   4.797  15.652  0.5387  0.1924 -0.0341
14325TIP3    H164466   6.754   4.850  15.691  0.8446  0.0825 -0.4215
14325TIP3    H264467   6.657   4.847  15.575 -0.6733  0.8456  0.7786
14326TIP3   OH264468   1.396   4.791   0.051 -0.1601 -0.1062  0.3610
14326TIP3    H164469   1.302   4.776   0.059 -0.1715 -0.2537 -0.0258
14326TIP3    H264470   1.432   4.707   0.024  0.0220  0.0668  0.0579
14327TIP3   OH264471   3.484   5.731   2.704  0.3263  0.0713  0.0381
14327TIP3    H164472   3.390   5.746   2.693 -0.0365 -1.4233  0.7553
14327TIP3    H264473   3.522   5.753   2.619 -0.6353  0.9648 -0.1725
14328TIP3   OH264474   0.422   5.732   3.934  0.4446  0.5994  0.3395
14328TIP3    H164475   0.441   5.781   4.015  0.0975 -1.8624  2.0330
14328TIP3    H264476   0.328   5.744   3.921  0.0173 -0.8956  1.7317
14329TIP3   OH264477   4.302   2.267  14.107  0.5358 -0.0458 -0.5071
14329TIP3    H164478   4.351   2.211  14.168  0.2329  0.2874  0.0548
14329TIP3    H264479   4.357   2.272  14.029  1.0105 -0.3502 -0.1949
14330TIP3   OH264480   1.824   2.861   4.619  0.1151  0.1264  0.4039
14330TIP3    H164481   1.899   2.884   4.674  0.8386 -0.8372 -0.1626
14330TIP3    H264482   1.806   2.769   4.639 -0.8139  0.2909  0.3958
14331TIP3   OH264483   2.644   2.617   4.807 -0.0674 -0.3463 -0.0875
14331TIP3    H164484   2.662   2.648   4.896  1.4068 -2.3235  0.3801
14331TIP3    H264485   2.686   2.681   4.750 -0.5746  0.6610  0.6377
14332TIP3   OH264486   5.143   4.309   6.127  0.4633 -0.2947 -0.0120
14332TIP3    H164487   5.179   4.279   6.210 -0.1177  2.3147  1.2837
14332TIP3    H264488   5.198   4.383   6.102 -0.0669 -0.3240 -1.3941
14333TIP3   OH264489   2.843   6.211  14.451  0.6668  0.5043 -0.1080
14333TIP3    H164490   2.828   6.189  14.359  1.1350 -0.7656  0.0997
14333TIP3    H264491   2.790   6.149  14.500  0.1457  1.4034  0.4851
14334TIP3   OH264492   1.608   5.020  14.945 -0.5211 -0.1505 -0.1435
14334TIP3    H164493   1.591   4.934  14.904 -0.9662 -0.1282 -0.0160
14334TIP3    H264494   1.698   5.041  14.921 -0.5055 -0.5229 -0.4208
14335TIP3   OH264495   1.839   2.719  15.469  1.2446 -0.3530  0.5505
14335TIP3    H164496   1.917   2.724  15.414  0.9051  1.3283  0.1825
14335TIP3    H264497   1.770   2.761  15.417  0.4519 -0.4668  1.4765
14336TIP3   OH264498   6.533   6.269  12.555 -0.3605 -0.0085 -0.3057
14336TIP3    H164499   6.580   6.258  12.472  0.9895  2.5509  0.0145
14336TIP3    H264500   6.442   6.250  12.534  0.2988 -1.8065 -1.7599
14337TIP3   OH264501   3.188   1.579   4.256 -0.0984  0.0112 -0.6277
14337TIP3    H164502   3.214   1.499   4.302 -1.4895  0.5725  1.2577
14337TIP3    H264503   3.271   1.620   4.230  0.7393 -0.6293  0.9027
14338TIP3   OH264504   3.911   2.528   0.690 -0.1455  0.1047  0.4422
14338TIP3    H164505   3.915   2.622   0.703 -1.0682  0.1743  0.2349
14338TIP3    H264506   3.998   2.497   0.717  0.3618  1.0684 -0.0389
14339TIP3   OH264507   5.151   5.091  15.609 -0.0416 -0.6658 -0.1575
14339TIP3    H164508   5.059   5.078  15.633 -0.3390  1.0265 -0.3131
14339TIP3    H264509   5.172   5.179  15.640  1.5188 -0.9970 -0.1883
14340TIP3   OH264510   5.028   5.726   3.972  0.1852 -0.4765 -0.6132
14340TIP3    H164511   4.990   5.814   3.970 -0.6147 -0.6871  1.8233
14340TIP3    H264512   5.113   5.735   3.929 -0.2658  1.2718 -1.2061
14341TIP3   OH264513   6.555   4.131   1.740 -0.0642  0.6308 -0.5601
14341TIP3    H164514   6.602   4.084   1.671  0.3207 -2.1784  1.4606
14341TIP3    H264515   6.621   4.146   1.808 -1.4408 -1.3229  1.3389
14342TIP3   OH264516   5.677   2.886  11.209 -0.0011  0.1285 -0.3287
14342TIP3    H164517   5.670   2.889  11.113  1.1120 -3.1900 -0.6431
14342TIP3    H264518   5.615   2.817  11.235 -0.1333  0.8336  1.3438
14343TIP3   OH264519   3.765   4.933   5.001 -0.3120  0.0373  0.0575
14343TIP3    H164520   3.682   4.964   5.038  0.0331  0.9590  0.0779
14343TIP3    H264521   3.804   5.011   4.961 -0.6416 -0.9055 -2.2375
14344TIP3   OH264522   1.639   3.864  12.402  0.0799  0.1293  0.2486
14344TIP3    H164523   1.557   3.823  12.373 -0.2826  1.6536 -1.0287
14344TIP3    H264524   1.619   3.897  12.490 -0.1620 -0.8995  0.5872
14345TIP3   OH264525   5.075   3.948   4.004  0.1255  0.5351 -0.9138
14345TIP3    H164526   5.106   3.978   3.918  0.6632 -0.7484 -1.1861
14345TIP3    H264527   4.982   3.931   3.990  0.4159 -0.6505 -1.5480
14346TIP3   OH264528   2.448   2.146   2.516  0.8132 -0.6438 -0.1227
14346TIP3    H164529   2.437   2.166   2.423  2.8149 -0.4513 -0.3768
14346TIP3    H264530   2.401   2.064   2.530  0.4998 -0.6776 -1.3127
14347TIP3   OH264531   1.167   1.485  13.015 -0.5649 -0.0213  0.1043
14347TIP3    H164532   1.164   1.492  12.920 -0.4757 -0.5158  0.0647
14347TIP3    H264533   1.085   1.442  13.039 -0.4106 -0.2520  0.2207
14348TIP3   OH264534   3.800   1.915  15.228 -0.1173  0.9857  0.1347
14348TIP3    H164535   3.821   1.822  15.222  0.4634  1.1245  0.0117
14348TIP3    H264536   3.759   1.936  15.144 -0.1683  0.8612  0.1291
14349TIP3   OH264537   6.757   5.552  17.008 -0.1571  0.6597  0.3939
14349TIP3    H164538   6.743   5.552  17.103 -1.8740  0.1647  0.1621
14349TIP3    H264539   6.714   5.473  16.977 -1.2937  1.7809 -1.0251
14350TIP3   OH264540   0.598   4.262   3.964  0.2184  0.5768  0.2294
14350TIP3    H164541   0.507   4.293   3.968 -0.5377 -1.5936  1.8302
14350TIP3    H264542   0.619   4.239   4.054  2.9486  2.3919  0.1604
14351TIP3   OH264543   4.661   5.639  17.052  0.2483  0.1322  0.4533
14351TIP3    H164544   4.635   5.720  17.096 -0.3769 -0.3971  1.0739
14351TIP3    H264545   4.722   5.668  16.984  0.3564  1.0833  0.9335
14352TIP3   OH264546   4.957   0.832  10.574  0.0716  0.1589  0.5027
14352TIP3    H164547   4.899   0.758  10.589 -0.8936  0.1320 -2.6448
14352TIP3    H264548   4.900   0.908  10.573  0.5997  0.5660  0.6720
14353TIP3   OH264549   5.361   6.206   0.480  0.5062 -0.6684 -0.4587
14353TIP3    H164550   5.315   6.233   0.400 -1.2398 -1.1605  0.3233
14353TIP3    H264551   5.291   6.190   0.543  1.8789  0.6317  1.4917
14354TIP3   OH264552   1.524   2.971  12.289 -0.1345 -0.5904 -0.5787
14354TIP3    H164553   1.607   2.930  12.311 -0.1430  0.0105  0.6783
14354TIP3    H264554   1.458   2.913  12.326 -0.1857 -0.0276  0.2365
14355TIP3   OH264555   2.697   0.613  14.391 -0.1979  0.4194 -0.5145
14355TIP3    H164556   2.683   0.685  14.453 -0.0638  0.2389 -0.2694
14355TIP3    H264557   2.742   0.653  14.317 -0.5217  0.6745 -0.5748
14356TIP3   OH264558   4.999   5.441   4.663  0.0905  0.5039  0.0221
14356TIP3    H164559   5.003   5.417   4.756 -0.2598  0.0747 -0.0742
14356TIP3    H264560   5.087   5.475   4.644  0.2792  0.2437  0.4117
14357TIP3   OH264561   1.159   5.158  12.173 -1.0245  0.3545 -0.1930
14357TIP3    H164562   1.092   5.226  12.178 -1.4842 -0.1569  0.9867
14357TIP3    H264563   1.219   5.178  12.245 -1.1730 -0.4864  0.1717
14358TIP3   OH264564   0.588   1.163  10.637  0.0675 -0.1689  0.1343
14358TIP3    H164565   0.594   1.071  10.611 -0.1889  0.3121 -1.7590
14358TIP3    H264566   0.495   1.184  10.631  0.3398  0.7348 -1.5110
14359TIP3   OH264567   0.360   4.624  12.347 -0.2353 -0.5079  0.2444
14359TIP3    H164568   0.339   4.601  12.256  1.2682 -0.0934 -0.2392
14359TIP3    H264569   0.294   4.688  12.371 -1.3778 -1.4958 -0.1316
14360TIP3   OH264570   5.196   5.876  13.077 -0.2926 -0.1204 -0.8197
14360TIP3    H164571   5.250   5.797  13.069 -1.6320 -1.3162  1.1608
14360TIP3    H264572   5.130   5.867  13.009 -0.3333 -0.6519 -0.7171
14361TIP3   OH264573   3.312   1.765   0.739 -0.4313 -0.6330 -0.0128
14361TIP3    H164574   3.296   1.786   0.647  0.5612  0.4262  0.0353
14361TIP3    H264575   3.260   1.829   0.788  0.1417 -0.2918  0.1535
14362TIP3   OH264576   0.814   3.061  16.574  0.1330 -0.1172  0.0170
14362TIP3    H164577   0.746   3.126  16.557  0.7738  0.4519 -0.4148
14362TIP3    H264578   0.814   3.006  16.496 -1.1309 -1.3193  0.8186
14363TIP3   OH264579   5.596   6.833  17.177  0.2400  1.0815  0.3882
14363TIP3    H164580   5.524   6.892  17.200  0.6451  2.6114 -1.9471
14363TIP3    H264581   5.555   6.765  17.125  0.3652  1.5822 -0.3744
14364TIP3   OH264582   5.857   3.444   3.519  0.0708 -0.1135 -0.4111
14364TIP3    H164583   5.884   3.368   3.571 -0.7894  0.8282  1.5117
14364TIP3    H264584   5.767   3.460   3.545 -0.2981  0.6213 -2.0036
14365TIP3   OH264585   5.911   3.949   4.585  0.0095  0.0918 -0.4292
14365TIP3    H164586   5.881   3.908   4.666 -0.1251  1.5230  0.2751
14365TIP3    H264587   5.880   3.891   4.516  1.1933 -1.8408  0.5508
14366TIP3   OH264588   4.842   2.341  11.726 -0.4480 -0.3630 -0.1207
14366TIP3    H164589   4.837   2.287  11.647 -2.1827 -0.2764 -0.1047
14366TIP3    H264590   4.858   2.429  11.694 -0.3362 -0.4540 -0.3202
14367TIP3   OH264591   5.512   2.233   5.848 -0.3541 -0.5097  0.4934
14367TIP3    H164592   5.442   2.299   5.841 -1.0709 -1.3973 -1.2529
14367TIP3    H264593   5.478   2.157   5.802  1.4781 -1.2381  0.2556
14368TIP3   OH264594   0.419   2.323  10.838  0.0667 -0.3665  0.5903
14368TIP3    H164595   0.375   2.381  10.775  0.4495 -0.2623  0.4150
14368TIP3    H264596   0.450   2.381  10.907  0.3361 -0.3801  0.4801
14369TIP3   OH264597   5.476   0.424  10.612  0.9165 -0.1178 -0.2450
14369TIP3    H164598   5.385   0.419  10.584  1.0738 -0.2023 -0.7530
14369TIP3    H264599   5.527   0.417  10.531  1.3532  0.7948 -0.0645
14370TIP3   OH264600   0.555   4.924  15.687  0.3160 -0.6156  0.1793
14370TIP3    H164601   0.646   4.901  15.704  1.0126 -0.1759 -2.5457
14370TIP3    H264602   0.547   4.926  15.592 -1.8471  1.9929  0.2739
14371TIP3   OH264603   4.689   6.771   0.967  0.0089 -0.2111  0.4166
14371TIP3    H164604   4.766   6.815   0.931  0.2226 -1.3512 -0.6226
14371TIP3    H264605   4.614   6.822   0.935  0.3047  0.7741  1.2473
14372TIP3   OH264606   5.665   0.046   3.883 -0.1633  1.1014 -0.0373
14372TIP3    H164607   5.631   0.014   3.967 -0.6254 -0.6668 -0.8446
14372TIP3    H264608   5.597   0.105   3.850 -0.3999  1.0713  0.3950
14373TIP3   OH264609   2.854   0.136  12.840 -0.6352  0.1991  0.0738
14373TIP3    H164610   2.916   0.135  12.766 -1.3010 -0.8011 -0.4998
14373TIP3    H264611   2.848   0.228  12.865 -2.6210  1.1111 -3.0620
14374TIP3   OH264612   1.136   5.690  14.164 -0.1436 -0.2621  0.3081
14374TIP3    H164613   1.102   5.613  14.210  0.9091 -0.4825  0.7379
14374TIP3    H264614   1.206   5.656  14.109  0.8322  0.4829  1.0562
14375TIP3   OH264615   0.226   6.264  10.863  0.0578 -0.0997  0.1119
14375TIP3    H164616   0.269   6.341  10.825  0.4338 -0.2650  0.1993
14375TIP3    H264617   0.291   6.194  10.855 -0.1331 -0.3097  0.3987
14376TIP3   OH264618   2.398   4.630  11.753 -0.5148 -0.0139 -0.1440
14376TIP3    H164619   2.462   4.560  11.743  1.8023  1.9620  0.1451
14376TIP3    H264620   2.336   4.615  11.681  0.0653 -2.1401 -0.2806
14377TIP3   OH264621   6.276   0.364  10.740  0.0332  0.1399  0.0143
14377TIP3    H164622   6.221   0.340  10.666  0.3429 -0.0695 -0.1534
14377TIP3    H264623   6.246   0.309  10.812 -1.3791  1.4997  0.5264
14378TIP3   OH264624   2.850   2.362  16.482 -0.2563 -0.0965 -0.7399
14378TIP3    H164625   2.783   2.426  16.506  0.2547  0.8785 -1.7754
14378TIP3    H264626   2.888   2.335  16.566 -1.7709 -0.5067 -0.1578
14379TIP3   OH264627   5.027   2.910   5.772  0.1742  0.1195  0.0704
14379TIP3    H164628   5.064   2.850   5.708  0.3883 -0.4352  0.6975
14379TIP3    H264629   4.998   2.853   5.844  1.4592  0.8364  1.2131
14380TIP3   OH264630   4.796   0.965  13.803 -0.0365 -0.2903  0.1068
14380TIP3    H164631   4.701   0.955  13.816 -0.0352 -0.1083  0.2540
14380TIP3    H264632   4.828   0.997  13.887 -0.1319  1.6527 -0.5350
14381TIP3   OH264633   5.354   6.318  15.724  0.2862  0.0430  0.4639
14381TIP3    H164634   5.326   6.352  15.639  1.3153 -1.0855 -0.3419
14381TIP3    H264635   5.365   6.224  15.711  1.1487 -0.0484  1.6542
14382TIP3   OH264636   2.097   4.917   3.297  0.5967  0.2002 -0.3275
14382TIP3    H164637   2.183   4.901   3.337 -0.5709 -1.2143  1.8032
14382TIP3    H264638   2.085   5.012   3.306  1.4426  0.2566  0.4557
14383TIP3   OH264639   1.947   2.615   0.868  0.6007 -0.8405 -0.1479
14383TIP3    H164640   1.965   2.591   0.777  0.7390 -1.4674  0.0409
14383TIP3    H264641   1.852   2.620   0.874  0.4849 -2.6874  0.1279
14384TIP3   OH264642   6.601   4.529   1.723 -0.1647 -0.1251 -0.0671
14384TIP3    H164643   6.682   4.507   1.677  0.5560  2.3989 -0.1292
14384TIP3    H264644   6.621   4.517   1.815 -0.0466 -0.4447 -0.1337
14385TIP3   OH264645   2.917   5.715   2.597 -0.4760  0.9351  0.2093
14385TIP3    H164646   2.923   5.627   2.559 -1.1636  1.5121 -1.3409
14385TIP3    H264647   2.975   5.713   2.673  1.8549 -0.0365 -1.4416
14386TIP3   OH264648   4.955   0.532  11.630  0.6064 -0.2914  1.2122
14386TIP3    H164649   4.948   0.465  11.563  0.7380 -0.2269  1.1344
14386TIP3    H264650   4.965   0.483  11.712  3.2633 -0.3731  0.9031
14387TIP3   OH264651   5.875   3.631   5.016 -0.4468 -0.1324 -0.0840
14387TIP3    H164652   5.968   3.626   5.039  0.0125  1.9788 -1.2138
14387TIP3    H264653   5.829   3.609   5.097  0.9998 -1.2697  0.4822
14388TIP3   OH264654   2.458   5.086  12.215 -0.0765  0.6699 -0.1173
14388TIP3    H164655   2.391   5.017  12.218 -0.0988  0.5960 -1.5632
14388TIP3    H264656   2.495   5.079  12.126  1.1961  1.3259  0.3357
14389TIP3   OH264657   4.461   1.766  14.975 -0.4777 -0.4070 -0.1342
14389TIP3    H164658   4.527   1.832  14.955 -1.7391  0.7154 -0.7856
14389TIP3    H264659   4.479   1.694  14.915  0.1259 -0.1068 -0.3206
14390TIP3   OH264660   5.389   4.738  10.709 -0.1414 -0.1157  0.2113
14390TIP3    H164661   5.456   4.778  10.652 -1.5940  0.9611 -0.8218
14390TIP3    H264662   5.410   4.771  10.796 -0.6260  2.0894 -0.4471
14391TIP3   OH264663   2.690   3.845   4.718  0.2737  0.0285 -0.0551
14391TIP3    H164664   2.745   3.767   4.709 -0.1652 -0.1427 -1.5323
14391TIP3    H264665   2.749   3.918   4.701  0.0557 -0.1634 -1.8389
14392TIP3   OH264666   2.613   1.582   4.684 -0.3021 -0.3158 -0.4099
14392TIP3    H164667   2.557   1.582   4.607 -0.6367 -0.1157 -0.1711
14392TIP3    H264668   2.586   1.660   4.733 -0.4692 -0.7273  0.1730
14393TIP3   OH264669   4.887   2.558   0.799  0.6039 -0.2669 -0.1025
14393TIP3    H164670   4.878   2.464   0.782 -1.6934 -0.2620  0.7436
14393TIP3    H264671   4.931   2.563   0.884  1.6841 -0.5227 -0.6288
14394TIP3   OH264672   3.356   5.243  14.710  0.1305  0.6079  0.2515
14394TIP3    H164673   3.422   5.234  14.779 -0.8560  1.3802  1.3239
14394TIP3    H264674   3.310   5.324  14.731 -1.3855 -0.0794 -0.2942
14395TIP3   OH264675   5.975   3.054  11.727 -0.1440 -0.4153 -0.3327
14395TIP3    H164676   6.025   3.119  11.777  0.4641  0.6050 -2.1910
14395TIP3    H264677   5.918   3.106  11.671  2.3088 -1.2615 -3.9196
14396TIP3   OH264678   4.878   5.210   2.388  0.3093 -0.0455 -0.2112
14396TIP3    H164679   4.885   5.282   2.451  1.3839 -0.6493  0.3908
14396TIP3    H264680   4.788   5.179   2.397  0.3392  0.1280  0.7581
14397TIP3   OH264681   3.074   0.893   5.214  0.3679  0.0108  0.1025
14397TIP3    H164682   3.152   0.844   5.238  0.2475 -0.0614  0.3429
14397TIP3    H264683   3.107   0.978   5.185  0.4588  0.3308  1.1410
14398TIP3   OH264684   0.362   1.475  16.015  0.3057 -0.1070 -0.5507
14398TIP3    H164685   0.446   1.520  16.026 -0.5458  1.6900 -1.0812
14398TIP3    H264686   0.357   1.457  15.921 -0.5085  1.1056 -0.7644
14399TIP3   OH264687   2.387   6.487   1.244 -0.3868 -0.7277 -0.0023
14399TIP3    H164688   2.322   6.444   1.189  0.9133 -1.5102 -0.9815
14399TIP3    H264689   2.468   6.484   1.192  0.2102  1.1443  0.7292
14400TIP3   OH264690   1.720   1.037   4.751 -0.3441  0.7245  0.2336
14400TIP3    H164691   1.633   1.058   4.718 -0.0070 -0.3519 -1.4205
14400TIP3    H264692   1.776   1.035   4.673  0.8519 -0.1571  1.0794
14401TIP3   OH264693   6.704   6.201  15.977  0.4643  0.2997  0.1230
14401TIP3    H164694   6.622   6.152  15.974  0.9179 -0.4610 -0.2439
14401TIP3    H264695   6.701   6.247  16.061  0.7258 -1.6701  1.2899
14402TIP3   OH264696   1.269   1.382  11.154 -0.0046 -0.0488 -0.0037
14402TIP3    H164697   1.197   1.325  11.180 -1.1436  1.5250  0.4370
14402TIP3    H264698   1.287   1.358  11.063 -1.4814 -0.0974 -0.3039
14403TIP3   OH264699   3.022   5.813  12.950 -0.0167  0.3195 -0.0989
14403TIP3    H164700   2.996   5.720  12.951 -1.1617  0.5318 -2.7245
14403TIP3    H264701   3.030   5.835  12.857  1.4164  2.5785  0.4813
14404TIP3   OH264702   3.858   2.052  16.618  0.1466 -0.5193 -0.7745
14404TIP3    H164703   3.902   2.137  16.615 -0.3352 -0.2902 -1.5489
14404TIP3    H264704   3.770   2.073  16.651  0.4414 -0.9132  0.3259
14405TIP3   OH264705   5.674   2.237  16.370 -0.3316  0.3109  0.1727
14405TIP3    H164706   5.721   2.175  16.425 -0.1399 -0.4152 -0.7831
14405TIP3    H264707   5.622   2.290  16.431 -1.5929 -1.6849  0.9294
14406TIP3   OH264708   1.693   3.364   2.560  0.3428 -0.2804 -0.5729
14406TIP3    H164709   1.674   3.457   2.570  0.8923 -0.3548  1.4667
14406TIP3    H264710   1.610   3.321   2.579  0.7316 -0.2938  1.2472
14407TIP3   OH264711   1.579   1.913   0.716 -0.7501  0.1171 -0.1622
14407TIP3    H164712   1.506   1.850   0.712  0.3303 -1.2197  0.1814
14407TIP3    H264713   1.538   1.997   0.733 -2.1077 -0.9149  2.0358
14408TIP3   OH264714   1.622   0.469   4.313 -0.6810  0.4002  0.6954
14408TIP3    H164715   1.598   0.376   4.320 -0.3668  0.0527 -1.8004
14408TIP3    H264716   1.712   0.472   4.346 -0.7636 -0.1247  0.9998
14409TIP3   OH264717   3.170   3.830  13.602  0.1227 -0.2573 -0.1947
14409TIP3    H164718   3.153   3.893  13.671 -0.9556  1.7292 -2.1603
14409TIP3    H264719   3.235   3.770  13.640  2.5587  2.9663  1.2771
14410TIP3   OH264720   6.182   4.283  10.662  0.0948  0.6026 -0.2977
14410TIP3    H164721   6.127   4.329  10.599  1.1502  0.2217 -1.5428
14410TIP3    H264722   6.159   4.321  10.747 -0.2541  2.2396 -1.0918
14411TIP3   OH264723   5.090   0.601   4.758 -0.2154  0.0568  0.5273
14411TIP3    H164724   5.061   0.662   4.826  0.1281  0.0703  0.6607
14411TIP3    H264725   5.183   0.620   4.747 -0.0764 -0.5327  0.6558
14412TIP3   OH264726   0.809   4.999  15.519 -0.3404 -0.8037  0.3824
14412TIP3    H164727   0.892   4.961  15.547  0.2921 -0.0843 -0.4575
14412TIP3    H264728   0.789   4.956  15.436 -0.1222 -0.0394 -0.0805
14413TIP3   OH264729   4.782   3.803  13.379  0.3750  0.2058 -0.0346
14413TIP3    H164730   4.792   3.877  13.319  2.4992 -0.2023 -0.2789
14413TIP3    H264731   4.815   3.834  13.463  0.3808 -0.1822  0.1116
14414TIP3   OH264732   1.212   5.172  12.892 -0.1607  0.1732 -0.2503
14414TIP3    H164733   1.118   5.177  12.908 -0.0144  0.9038  0.4714
14414TIP3    H264734   1.220   5.158  12.798 -0.9609  2.4158 -0.7256
14415TIP3   OH264735   3.899   2.424   1.157  0.2490 -0.0196  0.3137
14415TIP3    H164736   3.901   2.382   1.244 -1.9699 -0.4070  0.2290
14415TIP3    H264737   3.935   2.358   1.098  2.2349  0.4212  0.9507
14416TIP3   OH264738   4.705   1.211   0.304 -0.0859  0.5674 -0.2981
14416TIP3    H164739   4.793   1.176   0.287  0.2427  1.3938 -0.3442
14416TIP3    H264740   4.683   1.180   0.391  0.1923  0.2428 -0.3389
14417TIP3   OH264741   5.214   1.187  11.261 -0.0002 -0.0276 -0.5432
14417TIP3    H164742   5.127   1.150  11.245  0.7483 -1.3285 -1.8437
14417TIP3    H264743   5.247   1.207  11.173  0.5522  1.5981  0.0065
14418TIP3   OH264744   5.571   4.282  14.631  0.6987 -0.1122 -0.1209
14418TIP3    H164745   5.541   4.357  14.580 -0.6134  0.6654  1.6816
14418TIP3    H264746   5.643   4.316  14.684  0.3022 -0.1866  0.4760
14419TIP3   OH264747   4.935   6.520  16.746 -0.1181 -0.2424  0.4034
14419TIP3    H164748   4.934   6.603  16.795  0.9293 -0.9251  1.6352
14419TIP3    H264749   4.991   6.538  16.671  0.1857  0.1572  0.7161
14420TIP3   OH264750   3.245   2.527   2.212 -0.1939  0.2786  0.2485
14420TIP3    H164751   3.244   2.541   2.307 -0.9620  1.2011  0.1222
14420TIP3    H264752   3.259   2.433   2.202  1.4753  0.3729  1.2367
14421TIP3   OH264753   6.431   1.761  12.136 -0.2842 -0.0885 -0.0969
14421TIP3    H164754   6.359   1.704  12.161 -0.2650  0.0590  0.2921
14421TIP3    H264755   6.393   1.848  12.130 -0.1598 -0.0252  0.0164
14422TIP3   OH264756   3.168   0.025   5.355 -0.0255 -0.4064  0.2423
14422TIP3    H164757   3.241   0.053   5.410 -0.2037 -0.5551  0.5612
14422TIP3    H264758   3.093   0.024   5.414 -0.5035  0.7530 -0.3209
14423TIP3   OH264759   0.942   2.928  11.123  0.0279  0.5970 -0.3410
14423TIP3    H164760   0.954   2.993  11.193  0.7641  1.3199 -1.1069
14423TIP3    H264761   0.875   2.966  11.066  0.3749  0.6311 -0.7299
14424TIP3   OH264762   6.841   3.860   0.842 -0.3204 -0.0653 -0.0670
14424TIP3    H164763   6.888   3.785   0.880 -0.3436  0.2576  0.6300
14424TIP3    H264764   6.749   3.839   0.854 -0.3621  1.2307  2.6266
14425TIP3   OH264765   4.563   1.992   0.523  0.0151  0.0568  0.6638
14425TIP3    H164766   4.483   1.964   0.479 -1.7566 -0.5137  3.9474
14425TIP3    H264767   4.536   2.067   0.576  1.3169 -0.8496  2.7348
14426TIP3   OH264768   0.528   2.382   4.246  0.0737 -0.0321 -0.9199
14426TIP3    H164769   0.597   2.447   4.236  0.1855  0.4258  1.9911
14426TIP3    H264770   0.572   2.307   4.285 -1.0808  0.5029  1.6044
14427TIP3   OH264771   3.536   5.262  13.941 -0.1813  0.9020  0.4455
14427TIP3    H164772   3.448   5.224  13.944 -0.5162  1.6243  0.0093
14427TIP3    H264773   3.521   5.356  13.931  0.6126  0.8098 -2.8655
14428TIP3   OH264774   3.589   4.185   0.583  0.1333 -0.1260  0.2128
14428TIP3    H164775   3.506   4.161   0.542  0.0316  0.8166 -0.1540
14428TIP3    H264776   3.617   4.105   0.627 -0.8564 -0.5227  0.1589
14429TIP3   OH264777   5.873   2.987  15.720  0.0275 -0.2182  0.2303
14429TIP3    H164778   5.949   3.017  15.669 -0.8151  0.8765 -0.4266
14429TIP3    H264779   5.908   2.970  15.807  0.7886  1.6134  0.3322
14430TIP3   OH264780   3.766   0.435  15.735 -0.3030  0.2183 -0.2787
14430TIP3    H164781   3.816   0.473  15.807 -0.4447  3.3514 -1.6672
14430TIP3    H264782   3.819   0.361  15.705  1.2673  0.7343  1.0899
14431TIP3   OH264783   5.545   4.089  13.720  0.3774 -0.1511 -0.2694
14431TIP3    H164784   5.615   4.069  13.658 -0.0791 -1.4558 -0.3860
14431TIP3    H264785   5.469   4.040  13.688 -0.1594  0.0037  0.7229
14432TIP3   OH264786   3.693   5.564  12.463  0.5286 -0.1706 -0.4989
14432TIP3    H164787   3.734   5.650  12.460  0.0026  0.2048  1.4180
14432TIP3    H264788   3.689   5.543  12.556 -0.1346 -1.8953 -0.8760
14433TIP3   OH264789   2.429   0.027  13.136 -0.0155  0.1302  0.2029
14433TIP3    H164790   2.415   0.039  13.230 -2.6065 -0.5561 -0.0135
14433TIP3    H264791   2.470  -0.059  13.128 -0.5389 -0.1669  0.6824
14434TIP3   OH264792   2.357   1.581  13.556  0.1043  0.0727 -0.1480
14434TIP3    H164793   2.341   1.595  13.463  2.0899  1.1429 -0.3844
14434TIP3    H264794   2.290   1.517  13.583  0.1758 -1.1042 -2.5250
14435TIP3   OH264795   3.916   2.339   1.425  0.6372  0.0033 -0.2990
14435TIP3    H164796   3.872   2.394   1.490 -0.3704  0.1241 -1.0553
14435TIP3    H264797   3.985   2.295   1.474 -0.6455 -0.5914  1.0681
14436TIP3   OH264798   0.130   0.987  12.060 -0.5975  0.4244  0.0693
14436TIP3    H164799   0.161   1.067  12.019  1.0731  0.8584  1.9929
14436TIP3    H264800   0.183   0.917  12.021 -1.4249  0.3499 -0.9531
14437TIP3   OH264801   6.375   5.760  13.126  0.0285  0.0775  0.3049
14437TIP3    H164802   6.344   5.815  13.054 -2.4363 -2.4591 -0.7786
14437TIP3    H264803   6.316   5.782  13.199 -0.6815 -0.7363 -0.0019
14438TIP3   OH264804   4.978   3.842  13.586 -0.4458  0.7143  0.2605
14438TIP3    H164805   5.047   3.835  13.653  3.1369  2.5329 -2.8575
14438TIP3    H264806   4.935   3.926  13.605 -0.4429  0.5559  1.0220
14439TIP3   OH264807   3.057   2.289  13.258 -0.1116 -0.1385 -0.0599
14439TIP3    H164808   3.019   2.242  13.184 -0.8585 -0.1142  0.2963
14439TIP3    H264809   3.037   2.381  13.241  1.2232  0.0635 -0.6834
14440TIP3   OH264810   1.630   5.713  15.587 -0.0819  0.6133 -0.3392
14440TIP3    H164811   1.643   5.692  15.680 -0.0747  2.0104 -0.0018
14440TIP3    H264812   1.598   5.632  15.549  2.8031 -0.9152  0.2283
14441TIP3   OH264813   2.505   1.639  12.172  0.5019  0.1061  0.0637
14441TIP3    H164814   2.423   1.625  12.219  1.2209 -0.7342  1.1175
14441TIP3    H264815   2.563   1.681  12.236  1.1122  0.0698 -0.4532
14442TIP3   OH264816   0.784   2.478  17.163 -0.0042 -0.4034  0.3934
14442TIP3    H164817   0.696   2.464  17.128  0.4940 -0.7253 -0.7828
14442TIP3    H264818   0.771   2.538  17.237 -1.0636  0.6992 -0.6392
14443TIP3   OH264819   4.923   5.508   0.513 -0.3309  0.4245  0.0796
14443TIP3    H164820   4.868   5.434   0.488  0.4885 -0.5319  1.0046
14443TIP3    H264821   4.875   5.552   0.584  0.9568 -1.6953  2.4478
14444TIP3   OH264822   5.533   2.558  15.662 -0.0971 -0.0624  0.3653
14444TIP3    H164823   5.453   2.606  15.684  1.2145  1.4060  2.2429
14444TIP3    H264824   5.541   2.566  15.567 -1.5424  0.7810  0.2893
14445TIP3   OH264825   2.058   5.705   3.010  0.4114 -0.0985 -0.7187
14445TIP3    H164826   2.015   5.787   2.983 -0.0952 -0.2582 -0.4121
14445TIP3    H264827   2.126   5.691   2.944 -0.6565 -0.3726 -1.7925
14446TIP3   OH264828   5.346   6.107   6.731  0.2900  0.4138  0.2067
14446TIP3    H164829   5.251   6.101   6.741  0.2841  1.0780  0.5871
14446TIP3    H264830   5.361   6.097   6.637 -0.2088  0.9885  0.0676
14447TIP3   OH264831   2.378   3.120   4.978 -0.2527 -0.2605  0.0014
14447TIP3    H164832   2.436   3.097   4.905  0.4289 -0.3968  0.5790
14447TIP3    H264833   2.290   3.106   4.943  0.0398  0.2235 -0.9811
14448TIP3   OH264834   4.956   1.087   5.893 -0.5883  0.2730 -0.0008
14448TIP3    H164835   5.012   1.040   5.955  0.3373 -0.2047 -1.1797
14448TIP3    H264836   4.929   1.165   5.942  1.2114  0.5964  0.5813
14449TIP3   OH264837   1.337   2.417  14.801  0.0289 -0.1644  0.2112
14449TIP3    H164838   1.279   2.363  14.855  0.6086 -1.3112 -0.2705
14449TIP3    H264839   1.425   2.385  14.821  0.2327 -1.0921 -1.8553
14450TIP3   OH264840   2.795   0.451  15.701 -0.5161  0.2398 -0.3614
14450TIP3    H164841   2.717   0.405  15.732  0.1166 -2.1428 -2.0091
14450TIP3    H264842   2.772   0.482  15.614 -0.9666  3.3541  0.7616
14451TIP3   OH264843   6.421   4.233   1.382  0.2085  0.7812  0.0385
14451TIP3    H164844   6.407   4.263   1.472 -1.1418  1.1556 -0.2664
14451TIP3    H264845   6.337   4.247   1.339 -0.2893 -2.5924 -0.3885
14452TIP3   OH264846   6.456   1.979  13.272  0.4901 -0.2134  0.0983
14452TIP3    H164847   6.439   1.921  13.347 -0.8795 -1.9200 -1.4460
14452TIP3    H264848   6.544   1.954  13.243  0.6323 -0.2369  0.5362
14453TIP3   OH264849   0.253   3.256  12.733 -0.1865 -0.2198 -0.4807
14453TIP3    H164850   0.279   3.296  12.650  3.0645 -2.3737 -0.6577
14453TIP3    H264851   0.229   3.166  12.710  1.7187 -1.1574  0.9295
14454TIP3   OH264852   2.121   4.087  16.920  0.3282  0.4175 -0.1098
14454TIP3    H164853   2.106   4.155  16.854 -0.0844 -1.9929 -2.7024
14454TIP3    H264854   2.044   4.030  16.914  1.7113 -1.6062  0.1768
14455TIP3   OH264855   4.400   2.617   1.907 -0.1625 -1.2297  0.0294
14455TIP3    H164856   4.380   2.611   1.814 -0.4817 -0.1727  0.0170
14455TIP3    H264857   4.337   2.680   1.941  1.3300  0.0460  0.5449
14456TIP3   OH264858   6.733   6.476  13.978 -0.2439  0.2914  0.2609
14456TIP3    H164859   6.785   6.396  13.967 -0.7445  0.1296 -1.1657
14456TIP3    H264860   6.698   6.493  13.891 -2.2347  0.6442  1.0885
14457TIP3   OH264861   4.075   3.173  14.356  0.3422  0.4530 -0.3005
14457TIP3    H164862   4.038   3.132  14.277  1.0628  2.2593 -1.6351
14457TIP3    H264863   4.000   3.212  14.400  0.1445  0.9194 -1.0314
14458TIP3   OH264864   2.614   2.580   0.568 -0.1824  0.9714 -0.2865
14458TIP3    H164865   2.574   2.666   0.583  0.8121  1.5158 -0.6839
14458TIP3    H264866   2.664   2.562   0.647 -0.3654  0.7698 -0.2157
14459TIP3   OH264867   0.376   1.167  12.532  0.0376 -0.1469 -0.6355
14459TIP3    H164868   0.343   1.166  12.442  1.6644 -1.0042 -1.2771
14459TIP3    H264869   0.350   1.253  12.566 -2.3941 -0.5962 -1.1854
14460TIP3   OH264870   0.190   0.050  13.518 -0.0298 -0.4200  0.2585
14460TIP3    H164871   0.133  -0.026  13.504 -1.6094  0.7312  0.2131
14460TIP3    H264872   0.279   0.014  13.514 -0.6499 -1.9427 -1.9141
14461TIP3   OH264873   2.286   1.801   4.880 -0.3435  0.1530  0.2384
14461TIP3    H164874   2.381   1.808   4.871 -0.2086  2.0352  2.2485
14461TIP3    H264875   2.271   1.709   4.903  0.5768 -0.9873 -3.1602
14462TIP3   OH264876   5.499   1.171   5.435 -0.0421 -0.8409 -0.2636
14462TIP3    H164877   5.421   1.117   5.423 -0.4530 -0.3235  0.0584
14462TIP3    H264878   5.566   1.109   5.466 -0.7837 -1.0128  1.0980
14463TIP3   OH264879   0.018   1.780  15.368  0.7091  0.1620  0.1349
14463TIP3    H164880   0.027   1.729  15.448  1.9494  2.5984  1.6460
14463TIP3    H264881   0.107   1.787  15.333  0.1311 -1.2824 -1.8102
14464TIP3   OH264882   2.609   2.592  16.358  0.4316 -0.2172  0.4052
14464TIP3    H164883   2.548   2.659  16.326  0.0488  0.3851  2.3005
14464TIP3    H264884   2.696   2.627  16.335  0.2820  1.3376  1.9977
14465TIP3   OH264885   3.571   0.428   3.515 -0.2027 -0.3742  0.7347
14465TIP3    H164886   3.530   0.485   3.450 -1.1869 -0.2048  1.4829
14465TIP3    H264887   3.610   0.357   3.464  0.7330  0.7748 -0.1755
14466TIP3   OH264888   6.636   0.030  11.478  0.6596  0.1201  0.4763
14466TIP3    H164889   6.715   0.023  11.425 -0.4063  2.1756 -1.5602
14466TIP3    H264890   6.570  -0.020  11.431  0.0853  0.6438  0.7100
14467TIP3   OH264891   2.532   5.233  11.445 -0.4861  0.1056  0.0643
14467TIP3    H164892   2.612   5.261  11.401 -1.1232 -0.3406 -1.4607
14467TIP3    H264893   2.526   5.139  11.425 -0.8556 -0.0792  1.0286
14468TIP3   OH264894   0.866   4.930  13.707 -0.0544 -0.2419 -0.6903
14468TIP3    H164895   0.923   4.911  13.781 -1.1463  1.6481  0.7246
14468TIP3    H264896   0.789   4.875  13.720 -1.1966  1.6135  0.8542
14469TIP3   OH264897   2.051   4.373  14.759  0.3439 -0.0382  0.4212
14469TIP3    H164898   2.006   4.443  14.805  1.2914 -0.1469  1.5684
14469TIP3    H264899   1.983   4.330  14.707 -0.6006  0.5905  1.1079
14470TIP3   OH264900   5.438   1.322   4.467  0.0824  0.1896 -0.4036
14470TIP3    H164901   5.438   1.267   4.388  0.1115 -1.0401  0.4106
14470TIP3    H264902   5.418   1.410   4.436 -0.0624 -0.3003 -1.7579
14471TIP3   OH264903   4.705   2.648   6.313 -0.1056  0.4718 -0.0226
14471TIP3    H164904   4.703   2.571   6.256 -0.9847  0.3443  0.1677
14471TIP3    H264905   4.624   2.643   6.364 -0.8495  2.2197 -0.9433
14472TIP3   OH264906   6.099   1.630   0.199  0.3767  0.1911  0.3696
14472TIP3    H164907   6.056   1.545   0.204  1.1173 -0.2081  0.1418
14472TIP3    H264908   6.150   1.637   0.279 -0.2604  0.7538  0.7367
14473TIP3   OH264909   2.017   3.086  13.553  0.2485  0.3241  0.1773
14473TIP3    H164910   2.006   2.992  13.547 -3.6652  0.5319  1.3722
14473TIP3    H264911   2.041   3.114  13.465  1.0789 -1.6822 -0.2852
14474TIP3   OH264912   3.833   3.171   6.306 -0.3811  0.7316  0.2532
14474TIP3    H164913   3.741   3.178   6.331 -0.8044 -0.6754 -0.7353
14474TIP3    H264914   3.870   3.109   6.369 -0.4607  0.2804 -0.1313
14475TIP3   OH264915   5.571   2.886   3.149  0.1168 -0.4583 -0.7936
14475TIP3    H164916   5.540   2.862   3.062 -0.7004 -0.3834 -0.5349
14475TIP3    H264917   5.495   2.874   3.205  0.0969  1.2560 -0.3949
14476TIP3   OH264918   2.863   4.949  15.814  0.3471 -0.2257  0.1582
14476TIP3    H164919   2.895   4.980  15.729 -3.1002  2.4595 -0.3344
14476TIP3    H264920   2.932   4.974  15.876  1.2826  1.0887 -1.3464
14477TIP3   OH264921   0.327   5.185   5.176  0.0067 -0.2125 -0.6925
14477TIP3    H164922   0.305   5.101   5.216  0.6667 -0.4418 -0.7949
14477TIP3    H264923   0.345   5.243   5.249  0.1871 -0.3402 -0.6361
14478TIP3   OH264924   0.594   1.945  13.420 -0.2990  0.3022  0.1463
14478TIP3    H164925   0.656   1.929  13.490 -0.3530 -1.7815 -0.2346
14478TIP3    H264926   0.510   1.957  13.465 -0.0155  0.9573  0.5230
14479TIP3   OH264927   6.742   5.026   4.140  0.4297 -0.0513  0.0803
14479TIP3    H164928   6.837   5.021   4.127  0.3642 -0.4196 -0.2530
14479TIP3    H264929   6.731   5.029   4.235  0.8921  2.3041  0.1380
14480TIP3   OH264930   1.016   0.944  13.428 -0.2253  0.3956  0.1067
14480TIP3    H164931   1.107   0.938  13.458 -0.7493  1.2080  2.0385
14480TIP3    H264932   1.002   1.037  13.411 -0.8833  0.3892  0.5608
14481TIP3   OH264933   1.064   3.658  12.921 -0.4100 -0.2303  0.4447
14481TIP3    H164934   1.128   3.647  12.851 -2.0116 -3.5423 -0.6660
14481TIP3    H264935   1.116   3.658  13.001  1.3045  1.9260 -0.5485
14482TIP3   OH264936   4.036   5.613  16.330  0.0280  0.3109 -0.1984
14482TIP3    H164937   4.032   5.708  16.344  3.0053  1.0100 -2.9647
14482TIP3    H264938   4.086   5.579  16.403 -0.0244  1.0391  0.1830
14483TIP3   OH264939   6.175   4.349   4.292 -0.1228  0.3074 -0.1029
14483TIP3    H164940   6.191   4.425   4.348 -2.2218 -0.9009  2.3337
14483TIP3    H264941   6.251   4.292   4.306  0.3467  0.9098 -0.1444
14484TIP3   OH264942   2.888   3.346  14.180  0.4456  0.0252 -0.5837
14484TIP3    H164943   2.853   3.419  14.129  1.0353 -0.2013 -1.3336
14484TIP3    H264944   2.830   3.339  14.255 -0.0687  0.7768 -0.8986
14485TIP3   OH264945   3.132   5.866  11.949 -0.6075  0.0926 -0.8315
14485TIP3    H164946   3.226   5.853  11.962 -0.6353 -0.0180 -0.7401
14485TIP3    H264947   3.116   5.840  11.859 -0.5385  0.1720 -0.8666
14486TIP3   OH264948   2.052   3.063  15.187 -0.3830  0.2969  0.5417
14486TIP3    H164949   2.116   3.041  15.255  1.5017  0.5648 -1.0591
14486TIP3    H264950   2.073   3.152  15.161 -0.7670  0.0479 -0.7037
14487TIP3   OH264951   4.178   6.720   4.911 -0.6786 -0.0320 -0.5988
14487TIP3    H164952   4.256   6.775   4.914 -0.3810 -0.2589 -2.6872
14487TIP3    H264953   4.111   6.771   4.956  0.7222 -0.0127  1.6126
14488TIP3   OH264954   6.055   4.725  14.192  0.3751 -0.2192 -0.3739
14488TIP3    H164955   6.123   4.768  14.243  0.1219 -0.8946  0.5550
14488TIP3    H264956   6.101   4.656  14.144  0.5264  0.0800 -0.6660
14489TIP3   OH264957   0.628   3.516  15.671  0.3731  1.0284  0.2112
14489TIP3    H164958   0.601   3.520  15.579  0.1078  1.3206  0.3036
14489TIP3    H264959   0.547   3.502  15.720  0.5613  0.4656  0.3715
14490TIP3   OH264960   1.720   0.423  13.644 -0.3281 -0.8497  0.3036
14490TIP3    H164961   1.640   0.384  13.608 -0.8498  0.8301 -0.4588
14490TIP3    H264962   1.753   0.357  13.705 -1.6249 -2.0920 -0.2683
14491TIP3   OH264963   1.229   1.595  13.726  0.9160  0.9868 -0.5169
14491TIP3    H164964   1.234   1.570  13.819 -0.6263  2.6730  0.0947
14491TIP3    H264965   1.315   1.571  13.690  0.5533 -2.5138  0.5364
14492TIP3   OH264966   5.433   0.179  16.338 -0.1369  0.1312 -0.5460
14492TIP3    H164967   5.454   0.186  16.245 -0.4580 -1.3975 -0.7673
14492TIP3    H264968   5.346   0.218  16.346  0.6100  1.9104 -0.5213
14493TIP3   OH264969   3.400   5.876   6.088  0.0173 -0.0632 -0.0872
14493TIP3    H164970   3.305   5.868   6.095  0.1150  0.1004  1.8555
14493TIP3    H264971   3.434   5.793   6.121  0.5730  0.5245  0.8527
14494TIP3   OH264972   0.579   6.382  14.474 -0.0889 -0.0125 -0.0020
14494TIP3    H164973   0.654   6.440  14.493  1.1649 -1.4106 -0.4911
14494TIP3    H264974   0.608   6.328  14.401 -1.6118 -0.5732 -0.2238
14495TIP3   OH264975   3.900   4.575   2.737  0.1661  0.0572  0.3423
14495TIP3    H164976   3.827   4.623   2.697 -1.1928 -1.7194  0.5958
14495TIP3    H264977   3.968   4.575   2.669 -0.9830 -0.3463 -0.8601
14496TIP3   OH264978   0.842   5.844  15.604 -0.1342  0.4849  0.5824
14496TIP3    H164979   0.855   5.771  15.543 -1.4464  0.6543  0.0580
14496TIP3    H264980   0.929   5.883  15.612 -0.0662  1.0885 -2.0267
14497TIP3   OH264981   3.249   4.311  14.941 -0.1156 -0.0607  0.7252
14497TIP3    H164982   3.272   4.312  14.848  1.2926 -0.2987  1.0453
14497TIP3    H264983   3.259   4.402  14.970 -1.1656  0.1326  0.5210
14498TIP3   OH264984   1.515   6.651  13.870 -0.3305  0.3306  0.3544
14498TIP3    H164985   1.433   6.603  13.871  0.0834 -0.3857  1.0638
14498TIP3    H264986   1.532   6.672  13.962  1.2213 -1.1845  0.4594
14499TIP3   OH264987   5.076   6.577   1.665 -0.2851 -0.2127 -0.0611
14499TIP3    H164988   4.993   6.618   1.639 -0.0047  0.5510  0.2176
14499TIP3    H264989   5.114   6.545   1.584 -1.1282 -1.1138 -0.1287
14500TIP3   OH264990   2.356   3.209  10.588  0.4782  0.0175 -0.7946
14500TIP3    H164991   2.295   3.264  10.637  1.0080  0.4879 -0.6496
14500TIP3    H264992   2.301   3.161  10.525 -0.2932 -0.9903  0.5901
14501TIP3   OH264993   0.880   2.453  11.378 -0.2178 -0.5815  0.1113
14501TIP3    H164994   0.910   2.514  11.310  1.5438 -0.4357  0.9729
14501TIP3    H264995   0.865   2.371  11.330 -1.0201  0.0679 -0.7841
14502TIP3   OH264996   4.865   6.561   5.182 -0.2097 -0.3462  0.1092
14502TIP3    H164997   4.949   6.602   5.157 -0.8957  0.6375 -0.6727
14502TIP3    H264998   4.799   6.622   5.150 -1.2378  0.3181  3.1794
14503TIP3   OH264999   5.861   4.595   5.567 -0.1310  0.3158 -0.6728
14503TIP3    H165000   5.897   4.684   5.569 -0.7507  0.5789 -1.2036
14503TIP3    H265001   5.781   4.602   5.517 -0.0858 -0.5899 -0.8884
14504TIP3   OH265002   6.551   5.523  12.127 -0.5467 -0.3329  0.2021
14504TIP3    H165003   6.515   5.441  12.093 -1.9694  0.4383 -0.1987
14504TIP3    H265004   6.476   5.581  12.136  0.3144  0.6503  1.3464
14505TIP3   OH265005   0.750   0.278  14.771  0.6182  0.5585  0.3481
14505TIP3    H165006   0.838   0.256  14.803  1.0816  1.2436 -0.4110
14505TIP3    H265007   0.712   0.194  14.747  1.0526  0.2479  0.7158
14506TIP3   OH265008   1.839   3.273  14.402 -0.4717 -0.5480  0.5526
14506TIP3    H165009   1.898   3.274  14.478 -0.1733 -1.7957  0.3670
14506TIP3    H265010   1.755   3.243  14.438 -1.1651  1.6761  0.9025
14507TIP3   OH265011   2.778   1.700  11.838  0.2278 -0.0116  0.0579
14507TIP3    H165012   2.783   1.749  11.757  1.3550  1.7742  1.1412
14507TIP3    H265013   2.714   1.748  11.891 -1.0663 -1.5848 -0.0146
14508TIP3   OH265014   2.804   0.889   3.087 -0.2974  0.3257  0.3414
14508TIP3    H165015   2.742   0.949   3.045  0.0694  1.7314  1.7292
14508TIP3    H265016   2.749   0.832   3.140 -0.6139 -0.3312 -0.6632
14509TIP3   OH265017   0.174   1.640  14.987 -0.1917  0.1400 -0.4331
14509TIP3    H165018   0.158   1.551  14.955  1.1115 -0.3519  0.1742
14509TIP3    H265019   0.124   1.645  15.068  2.7336 -1.5136  1.6655
14510TIP3   OH265020   2.732   6.680   4.809 -0.4014  0.3574 -0.4771
14510TIP3    H165021   2.642   6.667   4.779 -0.6233  0.6068  0.0543
14510TIP3    H265022   2.748   6.773   4.797 -0.2520  0.3322 -0.4721
14511TIP3   OH265023   3.951   5.091   4.405  0.1097 -0.0043 -0.0020
14511TIP3    H165024   3.925   5.012   4.454 -1.2435  0.0042 -0.6796
14511TIP3    H265025   4.008   5.058   4.335 -2.3762 -0.7602 -1.7919
14512TIP3   OH265026   4.512   3.216   0.714  0.6103 -0.3530 -0.5802
14512TIP3    H165027   4.592   3.269   0.711  1.6995 -1.7600  1.2203
14512TIP3    H265028   4.489   3.212   0.807 -0.2115 -1.8873 -0.8172
14513TIP3   OH265029   5.603   5.360  11.568 -1.0069 -0.3819  0.1262
14513TIP3    H165030   5.610   5.415  11.489 -0.5304 -1.7838 -0.8471
14513TIP3    H265031   5.685   5.374  11.615 -1.7516  1.3297  1.0059
14514TIP3   OH265032   0.471   2.411   5.126 -0.1407 -0.1978  0.4458
14514TIP3    H165033   0.446   2.427   5.217 -0.5063 -0.1024  0.3304
14514TIP3    H265034   0.468   2.316   5.116  0.0048 -0.2151  0.5631
14515TIP3   OH265035   1.289   3.751   2.079 -0.0775  0.2759 -0.4515
14515TIP3    H165036   1.257   3.671   2.038 -0.2154  0.7081 -1.2134
14515TIP3    H265037   1.287   3.734   2.173 -1.1308 -0.2273 -0.5643
14516TIP3   OH265038   5.634   5.214   2.282  0.0477 -0.4984  0.1560
14516TIP3    H165039   5.547   5.207   2.244  1.4012 -0.2144 -3.4388
14516TIP3    H265040   5.640   5.304   2.313  0.1379  0.7785 -3.0963
14517TIP3   OH265041   4.715   4.105   3.640 -0.5397 -0.5256 -0.1002
14517TIP3    H165042   4.724   4.010   3.634  1.1011 -0.5325  1.6817
14517TIP3    H265043   4.676   4.130   3.556  1.3761 -2.4984 -1.7018
14518TIP3   OH265044   5.814   5.725  14.288  0.0188  0.4991 -0.1980
14518TIP3    H165045   5.886   5.664  14.276 -1.4455 -1.4328  0.3065
14518TIP3    H265046   5.792   5.718  14.381 -1.1883  0.5878 -0.4577
14519TIP3   OH265047   0.064   5.677   2.814 -0.1282  0.3171  0.2174
14519TIP3    H165048   0.099   5.671   2.903 -0.6964  0.4136  0.4553
14519TIP3    H265049  -0.023   5.636   2.820 -0.6061  1.2658 -0.0476
14520TIP3   OH265050   5.653   2.268   3.942  0.0631  0.8035 -0.2308
14520TIP3    H165051   5.582   2.208   3.964  0.6401  0.5391  0.9545
14520TIP3    H265052   5.659   2.327   4.017 -0.2706  2.1628 -1.2287
14521TIP3   OH265053   4.335   4.485   1.029  0.1995 -0.3073  0.7360
14521TIP3    H165054   4.256   4.496   1.081 -0.5442  0.2531 -0.4679
14521TIP3    H265055   4.399   4.448   1.090 -1.3493 -2.0222  1.4031
14522TIP3   OH265056   1.524   1.944  12.582 -0.3481  0.2909  0.5786
14522TIP3    H165057   1.509   1.938  12.677 -0.2538 -0.4480  0.5519
14522TIP3    H265058   1.612   1.908  12.570 -1.3224 -2.0653 -0.0626
14523TIP3   OH265059   3.359   0.623   2.465 -0.5048  0.0794 -0.3082
14523TIP3    H165060   3.340   0.553   2.402 -4.5909  1.2243 -0.6792
14523TIP3    H265061   3.384   0.698   2.411 -0.7002  0.1339 -0.3263
14524TIP3   OH265062   3.825   5.602  16.965 -0.5267 -0.6291  0.5161
14524TIP3    H165063   3.839   5.660  16.890  0.6997 -0.7707  0.6051
14524TIP3    H265064   3.764   5.535  16.933 -0.0908 -0.6401 -0.3320
14525TIP3   OH265065   6.079   5.066  16.055  0.2862 -0.1761  0.4553
14525TIP3    H165066   6.029   4.994  16.093  0.3150 -0.7428 -0.5371
14525TIP3    H265067   6.155   5.077  16.112  1.4312 -2.3794 -0.5239
14526TIP3   OH265068   2.411   6.062  16.614 -0.4282 -0.1971  0.0660
14526TIP3    H165069   2.350   6.014  16.559 -2.3832  0.9674  1.0978
14526TIP3    H265070   2.415   6.149  16.574  0.7402 -0.3140 -0.0975
14527TIP3   OH265071   0.340   0.035   2.371 -0.4668 -0.0827  0.0352
14527TIP3    H165072   0.400  -0.019   2.319 -2.1313 -1.7631 -0.2446
14527TIP3    H265073   0.305   0.098   2.309  2.5602  2.4655  0.6537
14528TIP3   OH265074   2.795   4.396   4.885 -0.2320  0.1175 -0.0359
14528TIP3    H165075   2.812   4.469   4.825  1.8810  0.4332  0.8872
14528TIP3    H265076   2.788   4.437   4.971 -0.8166 -0.6018  0.2710
14529TIP3   OH265077   0.565   3.642   2.153 -0.7737  0.2461 -0.0159
14529TIP3    H165078   0.537   3.585   2.224 -1.1957  1.2221  0.6199
14529TIP3    H265079   0.488   3.649   2.096 -0.6405 -0.0114 -0.2322
14530TIP3   OH265080   4.430   3.196   3.057 -0.2082 -0.5673 -0.5761
14530TIP3    H165081   4.447   3.258   2.986  0.3525 -0.2359 -0.1604
14530TIP3    H265082   4.337   3.175   3.047 -0.1628 -0.4579 -1.3491
14531TIP3   OH265083   2.485   1.786   2.355 -0.1916  0.6174 -0.0125
14531TIP3    H165084   2.477   1.764   2.262  1.2670 -2.9377  0.5403
14531TIP3    H265085   2.576   1.817   2.364 -0.5945  1.8051  0.1326
14532TIP3   OH265086   5.192   4.394   3.982 -0.0602 -0.1148  0.2163
14532TIP3    H165087   5.139   4.440   3.916 -0.6734 -1.0017  0.0748
14532TIP3    H265088   5.281   4.399   3.948 -0.4596 -1.1654 -1.0639
14533TIP3   OH265089   2.676   4.506   1.975 -0.0121 -0.4396 -0.0261
14533TIP3    H165090   2.767   4.498   1.946  0.0855  1.2378 -0.3204
14533TIP3    H265091   2.678   4.483   2.068  0.4660 -1.6814 -0.3310
14534TIP3   OH265092   0.984   5.808  13.333  0.4706  0.1528 -0.8043
14534TIP3    H165093   0.928   5.759  13.394  1.4994 -1.6926 -1.2601
14534TIP3    H265094   1.069   5.812  13.378  0.5949  0.9101 -1.0954
14535TIP3   OH265095   2.532   0.014   3.097  0.3154 -0.2330  0.1496
14535TIP3    H165096   2.545   0.051   3.009  1.5094  0.5722  0.6443
14535TIP3    H265097   2.595   0.060   3.152 -1.1221  0.0134  1.6600
14536TIP3   OH265098   0.911   4.948   0.655 -0.2885 -0.1184  0.0952
14536TIP3    H165099   0.989   4.943   0.711 -0.1251 -0.9501 -0.1995
14536TIP3    H265100   0.838   4.937   0.716 -0.1612  0.1175  0.2971
14537TIP3   OH265101   5.281   6.019  16.006 -0.2110 -0.7366 -0.1587
14537TIP3    H165102   5.249   5.933  15.978  0.0976 -1.3582  1.3176
14537TIP3    H265103   5.376   6.015  15.990 -0.2439 -0.5192 -0.4284
14538TIP3   OH265104   6.035   3.319  11.201 -0.3212 -0.1522  0.0081
14538TIP3    H165105   5.967   3.337  11.136 -0.3387  0.2177  0.1224
14538TIP3    H265106   6.094   3.394  11.194  1.2237 -1.4574 -1.5455
14539TIP3   OH265107   4.633   5.368   2.572  0.0237 -0.0627 -0.7057
14539TIP3    H165108   4.644   5.425   2.496  1.4344 -0.2961 -0.6997
14539TIP3    H265109   4.599   5.286   2.536 -1.4089  0.5367 -0.7897
14540TIP3   OH265110   5.021   4.298  15.672  0.0625 -0.0817  0.0281
14540TIP3    H165111   4.953   4.241  15.708 -1.9454  1.0728 -1.6950
14540TIP3    H265112   5.097   4.240  15.661 -0.9240 -1.6671  1.0971
14541TIP3   OH265113   6.377   5.006   3.657 -0.0386  0.1790  0.1505
14541TIP3    H165114   6.324   4.989   3.579 -1.1525 -0.3639  0.9816
14541TIP3    H265115   6.390   5.101   3.657 -1.3493  0.3802  0.1016
14542TIP3   OH265116   1.412   0.670  11.833  0.0116 -0.4721  0.4259
14542TIP3    H165117   1.468   0.686  11.757  0.2180  1.0299  0.8776
14542TIP3    H265118   1.380   0.580  11.820  1.0293 -0.6861 -0.7853
14543TIP3   OH265119   0.325   2.270  14.362  0.0110 -0.8702 -0.1913
14543TIP3    H165120   0.316   2.319  14.444 -1.3160  1.0961 -1.4277
14543TIP3    H265121   0.407   2.303  14.323  0.3936 -1.4563  0.1030
14544TIP3   OH265122   2.471   1.330  16.085 -0.5292 -0.2989  0.1317
14544TIP3    H165123   2.388   1.288  16.063 -0.3069 -0.7273  0.0881
14544TIP3    H265124   2.525   1.318  16.007 -0.1924 -0.6431  0.4123
14545TIP3   OH265125   2.164   0.760  15.620 -0.2798 -0.1018 -0.5714
14545TIP3    H165126   2.197   0.847  15.640 -3.2865  1.0126  0.1508
14545TIP3    H265127   2.116   0.734  15.699  0.0945 -2.2007 -0.9778
14546TIP3   OH265128   3.836   6.246   0.463 -0.0196  0.2191 -0.4430
14546TIP3    H165129   3.770   6.206   0.407 -0.8108 -0.0861  0.6826
14546TIP3    H265130   3.919   6.225   0.419 -0.5689 -0.5715 -1.1571
14547TIP3   OH265131   4.062   4.195   1.346  0.2210  0.4011  0.6249
14547TIP3    H165132   4.081   4.105   1.374 -0.1949  0.2258  0.3539
14547TIP3    H265133   4.014   4.184   1.264  0.6797  0.8883  0.2924
14548TIP3   OH265134   3.123   2.839   1.692  0.5612  0.0646  0.1099
14548TIP3    H165135   3.150   2.818   1.781 -0.6809 -1.9361  0.0872
14548TIP3    H265136   3.174   2.780   1.637  0.9966  0.9760 -0.4713
14549TIP3   OH265137   0.535   1.622   1.203 -0.0394  0.4402 -0.0744
14549TIP3    H165138   0.503   1.557   1.266  0.6904  0.3604  0.2269
14549TIP3    H265139   0.485   1.605   1.123 -0.3041 -0.0742  0.1936
14550TIP3   OH265140   4.128   1.649  16.609 -0.4984 -0.1272  0.5978
14550TIP3    H165141   4.075   1.570  16.616 -0.1002 -0.4508  0.0621
14550TIP3    H265142   4.144   1.658  16.515 -0.5750  0.6147  0.6496
14551TIP3   OH265143   4.782   6.055   5.554  0.6988 -0.0642  0.7760
14551TIP3    H165144   4.831   6.097   5.483 -0.4227  1.7202  1.0084
14551TIP3    H265145   4.816   6.095   5.634  0.2656 -0.2816  1.0723
14552TIP3   OH265146   3.446   0.566   1.772  0.5102  0.1697  0.0305
14552TIP3    H165147   3.402   0.481   1.769  0.2381  0.3479 -1.5114
14552TIP3    H265148   3.484   0.570   1.860  0.7205 -1.6298  0.0543
14553TIP3   OH265149   1.117   4.558   2.193  0.2313  0.1329  0.0663
14553TIP3    H165150   1.156   4.622   2.252 -0.4341  0.9084 -0.3112
14553TIP3    H265151   1.191   4.507   2.160  0.9256  1.4198 -0.4598
14554TIP3   OH265152   4.226   1.544  12.446  0.3247 -0.5302 -0.6433
14554TIP3    H165153   4.301   1.583  12.492 -0.2043 -0.8425  0.5099
14554TIP3    H265154   4.151   1.561  12.503 -0.8279  1.2264 -2.5104
14555TIP3   OH265155   0.946   3.312  16.937 -0.0511  0.0198 -0.5436
14555TIP3    H165156   0.903   3.308  17.022  0.5280 -1.5990 -0.2955
14555TIP3    H265157   0.955   3.405  16.919 -1.6743  0.3840  0.3937
14556TIP3   OH265158   2.201   2.256   5.266  0.0774  0.0228  0.3129
14556TIP3    H165159   2.174   2.240   5.357  0.0412  1.4045  0.5806
14556TIP3    H265160   2.255   2.335   5.272 -0.3486  0.4189 -0.9348
14557TIP3   OH265161   3.088   1.558   6.420 -0.8479  0.9512  0.6598
14557TIP3    H165162   3.075   1.465   6.400 -0.8072  1.0268  0.2785
14557TIP3    H265163   3.142   1.558   6.499  0.8858  0.6333 -0.4730
14558TIP3   OH265164   5.268   0.510   4.138  0.4289  0.2253 -0.1144
14558TIP3    H165165   5.288   0.533   4.229  1.0810  1.2759 -0.5034
14558TIP3    H265166   5.353   0.508   4.094  0.0991 -0.0617 -0.7530
14559TIP3   OH265167   0.303   4.919  12.725 -0.4261 -0.0069 -0.1595
14559TIP3    H165168   0.214   4.915  12.761 -0.9794  0.4465 -1.4135
14559TIP3    H265169   0.342   4.996  12.765 -0.0062 -1.0815  1.6227
14560TIP3   OH265170   1.332   4.271  16.592  0.1673  0.3902  0.1339
14560TIP3    H165171   1.341   4.329  16.517  1.8529 -0.3245 -0.2654
14560TIP3    H265172   1.281   4.197  16.560  1.6710 -0.3623 -0.6322
14561TIP3   OH265173   5.013   6.030  11.205  0.3158  0.1875 -0.1961
14561TIP3    H165174   5.059   6.089  11.265 -2.3723 -0.1314  2.4184
14561TIP3    H265175   4.938   6.082  11.173 -2.4438 -1.6743  2.6088
14562TIP3   OH265176   3.373   4.799  14.395  0.5495  0.2112  0.6098
14562TIP3    H165177   3.467   4.792  14.405  0.8043 -0.1390 -1.4343
14562TIP3    H265178   3.356   4.765  14.307 -1.1755  2.4553 -0.0403
14563TIP3   OH265179   3.598   3.754  15.317 -0.8366  0.2950 -0.0006
14563TIP3    H165180   3.526   3.701  15.285 -0.1025 -0.4297 -0.4835
14563TIP3    H265181   3.648   3.695  15.373  0.6110  0.1008 -1.4159
14564TIP3   OH265182   0.377   4.058   1.082 -0.2172 -0.6218 -0.2807
14564TIP3    H165183   0.398   3.967   1.063  1.5439 -0.0334 -1.3293
14564TIP3    H265184   0.374   4.101   0.997  0.0525  0.5132  0.2627
14565TIP3   OH265185   4.174   3.124   5.569  0.4290 -0.6147 -0.0879
14565TIP3    H165186   4.097   3.170   5.601  1.3018  0.3881  0.6642
14565TIP3    H265187   4.238   3.132   5.640  1.0506 -1.9004 -0.4626
14566TIP3   OH265188   5.427   0.540  11.210  0.2880  0.6934 -1.0179
14566TIP3    H165189   5.353   0.509  11.261  2.4841  0.7762  2.5223
14566TIP3    H265190   5.423   0.635  11.217  1.9303  0.6715  1.3066
14567TIP3   OH265191   6.071   0.204   3.044 -0.4837  0.3430 -0.2645
14567TIP3    H165192   5.998   0.194   3.105 -2.6189  1.7586 -2.4136
14567TIP3    H265193   6.121   0.279   3.078 -0.2050 -0.3970  1.0135
14568TIP3   OH265194   2.461   2.704  11.838  0.3173 -0.3321 -0.1993
14568TIP3    H165195   2.449   2.798  11.852 -0.6177 -0.6673  1.5535
14568TIP3    H265196   2.527   2.698  11.769  0.0949  1.6056 -0.6302
14569TIP3   OH265197   1.256   0.396   3.484 -0.4589 -1.4154  0.7228
14569TIP3    H165198   1.343   0.389   3.523  1.4588 -1.1754 -3.0714
14569TIP3    H265199   1.255   0.329   3.415 -2.5333 -0.1660 -0.5606
14570TIP3   OH265200   2.929   3.968   6.257 -0.2740  0.0623 -0.5318
14570TIP3    H165201   3.004   3.912   6.238  0.8503  0.7474  1.5500
14570TIP3    H265202   2.931   3.980   6.352 -1.2507  2.5488 -0.7380
14571TIP3   OH265203   5.126   0.508  12.997  0.3556  0.0350 -0.7688
14571TIP3    H165204   5.172   0.442  12.946 -1.2790 -1.2408 -0.6979
14571TIP3    H265205   5.054   0.536  12.941 -1.9678 -1.9918  0.9877
14572TIP3   OH265206   4.074   1.620   1.375  0.1770 -0.0160  0.0664
14572TIP3    H165207   4.103   1.564   1.303  0.0776  1.6843 -1.3711
14572TIP3    H265208   4.093   1.709   1.345  0.5957  0.7383  2.3784
14573TIP3   OH265209   2.991   1.417  10.498  0.1037  0.4278  0.1590
14573TIP3    H165210   2.975   1.505  10.532  1.8326  1.6503 -1.9249
14573TIP3    H265211   2.951   1.418  10.411  1.7108 -0.1946 -0.6174
14574TIP3   OH265212   1.572   1.280  15.428  0.0625  0.0293 -0.2543
14574TIP3    H165213   1.619   1.346  15.376 -1.3304  0.7569 -0.6522
14574TIP3    H265214   1.640   1.239  15.481  1.1862  0.8395 -1.0060
14575TIP3   OH265215   6.263   4.634  10.726 -0.1088 -0.5673 -0.5949
14575TIP3    H165216   6.178   4.615  10.765  1.4922 -1.4955  2.8079
14575TIP3    H265217   6.305   4.549  10.717  1.0231 -0.0120 -0.7343
14576TIP3   OH265218   6.222   4.623   1.184  0.0605 -0.0544  0.0534
14576TIP3    H165219   6.314   4.601   1.169 -0.1659 -0.2538 -1.2078
14576TIP3    H265220   6.220   4.719   1.177  0.0639 -0.1005 -0.6549
14577TIP3   OH265221   5.395   3.918  15.836  0.2424  0.8281  0.2140
14577TIP3    H165222   5.323   3.981  15.835 -0.9789 -0.4951 -0.9677
14577TIP3    H265223   5.352   3.833  15.843  1.6961 -0.0123 -0.5907
14578TIP3   OH265224   3.247   1.795   0.488  0.3102 -0.4194  0.3984
14578TIP3    H165225   3.257   1.850   0.410 -2.3565  0.6759  0.7040
14578TIP3    H265226   3.255   1.705   0.455 -1.4910 -0.0245 -1.3485
14579TIP3   OH265227   4.960   1.047   4.704 -0.5929  0.7002  0.1001
14579TIP3    H165228   4.892   0.993   4.663 -1.5832  1.1402  1.1083
14579TIP3    H265229   5.033   0.986   4.719 -0.5851  0.3131 -1.3514
14580TIP3   OH265230   2.847   3.157  13.920  0.9744  0.0256  0.0686
14580TIP3    H165231   2.859   3.218  13.993 -0.4508  0.8593 -0.3478
14580TIP3    H265232   2.763   3.114  13.939  2.7852 -3.3101  1.3563
14581TIP3   OH265233   0.086   3.695  16.645  0.1745 -0.2155  0.6349
14581TIP3    H165234   0.080   3.667  16.553  0.3464 -0.6804  0.7667
14581TIP3    H265235   0.061   3.787  16.642  1.8004  0.2386 -0.1220
14582TIP3   OH265236   4.532   3.747   3.082 -0.0837 -0.3103 -0.5589
14582TIP3    H165237   4.578   3.812   3.028  0.0014 -0.7872 -1.0691
14582TIP3    H265238   4.449   3.790   3.105  0.0962  0.0893 -0.6407
14583TIP3   OH265239   5.827   6.094  12.523 -0.1012 -0.2232 -0.6503
14583TIP3    H165240   5.737   6.089  12.489 -0.9704  1.4584  1.1807
14583TIP3    H265241   5.827   6.035  12.598  0.2127  0.0535 -0.4310
14584TIP3   OH265242   3.514   4.634  14.800 -0.2315  0.6472 -0.0293
14584TIP3    H165243   3.419   4.645  14.807 -0.5677 -1.3705 -0.5674
14584TIP3    H265244   3.543   4.618  14.889 -0.5273  0.5329  0.0494
14585TIP3   OH265245   3.881   3.459   4.964 -0.2735  0.5867 -0.3344
14585TIP3    H165246   3.924   3.390   5.015 -1.0636  0.2765 -0.0694
14585TIP3    H265247   3.829   3.412   4.899  1.1825  0.9804 -1.8577
14586TIP3   OH265248   1.426   2.304  11.331 -0.1751  0.7970 -0.4131
14586TIP3    H165249   1.360   2.296  11.400  1.1551 -2.5985  0.6832
14586TIP3    H265250   1.385   2.266  11.253  0.2133 -0.6973  0.0905
14587TIP3   OH265251   6.655   5.327  13.123 -0.4221  0.1425 -0.0550
14587TIP3    H165252   6.565   5.358  13.135 -0.6502 -0.0756 -1.0641
14587TIP3    H265253   6.692   5.326  13.211 -1.4004  0.2512  0.3764
14588TIP3   OH265254   5.952   0.338  16.534  0.1715 -0.1586 -0.2075
14588TIP3    H165255   5.858   0.317  16.536  0.1504 -1.2209 -4.0169
14588TIP3    H265256   5.996   0.253  16.531  0.9732  0.2738 -2.0131
14589TIP3   OH265257   4.193   3.566   4.295 -0.0870  0.1157 -0.0463
14589TIP3    H165258   4.106   3.545   4.330  0.1053 -1.7058 -0.5537
14589TIP3    H265259   4.203   3.660   4.310 -1.4462  0.0510  1.5439
14590TIP3   OH265260   4.574   4.625   1.470  0.4415 -0.2962  0.4488
14590TIP3    H165261   4.535   4.576   1.397 -0.3569  0.6984  0.1937
14590TIP3    H265262   4.622   4.696   1.427  0.8747 -0.3393  0.8575
14591TIP3   OH265263   1.784   4.098   3.215  0.9813  0.4319  0.7506
14591TIP3    H165264   1.781   4.070   3.123  1.5135  1.9850  0.2318
14591TIP3    H265265   1.869   4.069   3.246  1.7340  1.8355  0.0725
14592TIP3   OH265266   6.201   3.706   6.447  0.6237  0.4399 -0.0995
14592TIP3    H165267   6.216   3.618   6.413  2.4434  1.6145 -2.6674
14592TIP3    H265268   6.228   3.701   6.539  1.5497 -1.4585 -0.4222
14593TIP3   OH265269   2.128   0.621  15.261 -0.8788  0.5375  0.1027
14593TIP3    H165270   2.152   0.531  15.283  0.6318  0.4923 -1.4322
14593TIP3    H265271   2.053   0.613  15.203 -0.5842  0.2255 -0.2435
14594TIP3   OH265272   0.596   3.104  12.549  0.3001 -0.1136  0.1760
14594TIP3    H165273   0.664   3.061  12.497  1.0496  1.3898 -0.1451
14594TIP3    H265274   0.618   3.197  12.545 -1.3920  0.3390  0.6521
14595TIP3   OH265275   5.208   1.302  13.157  0.1572 -0.5123  0.1238
14595TIP3    H165276   5.230   1.331  13.068 -0.6966 -0.5357 -0.0987
14595TIP3    H265277   5.128   1.349  13.179  0.4067 -0.4485  0.9156
14596TIP3   OH265278   1.191   3.126  14.220  0.9103  0.5014 -0.2675
14596TIP3    H165279   1.243   3.206  14.217 -0.2434  1.3307  1.1961
14596TIP3    H265280   1.249   3.062  14.261  1.2467  1.0533  0.1341
14597TIP3   OH265281   1.667   4.726  16.588 -0.6944  0.0334  0.1393
14597TIP3    H165282   1.661   4.633  16.612  1.6235 -0.4957 -1.0164
14597TIP3    H265283   1.581   4.747  16.551 -1.4035 -1.5156  0.8182
14598TIP3   OH265284   3.609   3.034   3.956  0.5626 -0.2186 -0.1056
14598TIP3    H165285   3.660   3.113   3.972  1.4689 -0.7907 -0.0815
14598TIP3    H265286   3.558   3.054   3.877  0.2389  0.6343  0.3080
14599TIP3   OH265287   4.229   3.967   2.979 -0.3072  0.2231  0.1531
14599TIP3    H165288   4.166   3.981   3.049 -0.9934 -0.6935 -0.2612
14599TIP3    H265289   4.273   4.051   2.969 -1.8941  1.0668  0.0151
14600TIP3   OH265290   1.379   5.011   1.538  0.1754 -0.0064 -0.0335
14600TIP3    H165291   1.303   4.962   1.509 -0.3680 -0.2540  1.6954
14600TIP3    H265292   1.409   5.058   1.460 -1.2029 -0.5921 -0.9478
14601TIP3   OH265293   2.343   5.001  14.026  0.0417 -0.1263  0.0310
14601TIP3    H165294   2.340   4.911  13.994  0.5064  0.3103 -1.3049
14601TIP3    H265295   2.434   5.014  14.052 -0.4031 -0.5913  1.9702
14602TIP3   OH265296   6.681   4.558  15.252  0.4372  0.2740  0.0587
14602TIP3    H165297   6.610   4.600  15.300 -1.6974  0.0937 -2.7101
14602TIP3    H265298   6.685   4.469  15.287 -2.7665 -0.6517 -1.5820
14603TIP3   OH265299   0.777   0.901   2.624 -0.2901 -0.2194  0.5746
14603TIP3    H165300   0.748   0.992   2.634 -0.2445 -0.1967  0.5033
14603TIP3    H265301   0.766   0.862   2.711 -0.0893 -0.0820  0.6630
14604TIP3   OH265302   5.754   1.846  13.535 -0.2670 -0.6739 -0.4666
14604TIP3    H165303   5.770   1.777  13.471 -0.4949  0.5738 -1.9050
14604TIP3    H265304   5.711   1.801  13.608  2.2553 -2.6061 -0.0046
14605TIP3   OH265305   3.356   3.222  14.789  0.0977  0.1900  0.3001
14605TIP3    H165306   3.305   3.155  14.743  1.8302 -0.8534 -0.2217
14605TIP3    H265307   3.311   3.304  14.770 -0.9784 -0.5973 -0.6958
14606TIP3   OH265308   2.321   5.979  12.329  0.0994  0.2790 -0.0195
14606TIP3    H165309   2.342   5.899  12.376 -0.0619 -0.9660 -1.9756
14606TIP3    H265310   2.227   5.973  12.312  0.3259  0.2242 -1.3177
14607TIP3   OH265311   0.120   0.507  14.821 -0.3967 -0.0093 -0.0409
14607TIP3    H165312   0.157   0.432  14.868  0.4148  0.5491  0.2321
14607TIP3    H265313   0.026   0.500  14.835 -0.2160 -0.2179  1.1285
14608TIP3   OH265314   4.069   4.016   2.602 -0.2091  0.1870 -0.3598
14608TIP3    H165315   4.002   4.047   2.663 -0.6410 -0.4972 -0.4643
14608TIP3    H265316   4.108   3.941   2.645 -1.0950 -0.8270 -1.2403
14609TIP3   OH265317   2.257   4.923   2.828  0.0926  0.0820 -0.3558
14609TIP3    H165318   2.250   4.901   2.921 -0.1813  0.1160 -0.3670
14609TIP3    H265319   2.209   4.853   2.784  0.1104  0.1383 -0.4641
14610TIP3   OH265320   1.099   3.510  16.186  0.0771  0.5317 -0.4691
14610TIP3    H165321   1.010   3.541  16.168  0.5251  0.6606 -2.8258
14610TIP3    H265322   1.151   3.590  16.190  0.8334  0.4453 -4.1942
14611TIP3   OH265323   3.344   0.110   5.607 -0.7042  0.2304  0.2766
14611TIP3    H165324   3.395   0.187   5.632 -0.8513  0.7394 -0.9397
14611TIP3    H265325   3.407   0.039   5.604 -0.3056  0.5921  0.0458
14612TIP3   OH265326   4.626   4.271  13.151  0.2457  0.0872  0.5679
14612TIP3    H165327   4.574   4.263  13.231  2.8264  2.0024  2.6444
14612TIP3    H265328   4.578   4.333  13.097 -1.0006 -0.3542  1.1274
14613TIP3   OH265329   6.215   6.383   2.340 -0.4483  0.0571 -0.2102
14613TIP3    H165330   6.150   6.453   2.345  0.0086  0.6624 -2.0580
14613TIP3    H265331   6.245   6.371   2.431 -1.9597  0.8549  0.4300
14614TIP3   OH265332   0.870   3.488   3.850  0.3938 -0.5562  0.0298
14614TIP3    H165333   0.941   3.553   3.851  0.4526 -0.6030 -0.4629
14614TIP3    H265334   0.794   3.535   3.883  0.7642 -0.6428  1.0218
14615TIP3   OH265335   2.969   1.844   0.545  0.3416  0.7091  0.6337
14615TIP3    H165336   3.048   1.819   0.497 -0.2224  0.3988 -0.1659
14615TIP3    H265337   2.944   1.928   0.508 -0.1177  0.4495  0.3358
14616TIP3   OH265338   3.123   1.670  15.547 -0.1115 -0.3702  0.0099
14616TIP3    H165339   3.098   1.593  15.598  1.1719 -0.8116  0.0043
14616TIP3    H265340   3.214   1.653  15.520 -0.6258  0.0266 -2.1150
14617TIP3   OH265341   5.411   3.401   1.351 -0.1843  1.0076 -0.4460
14617TIP3    H165342   5.465   3.322   1.350 -1.4520  0.0749  1.1212
14617TIP3    H265343   5.446   3.455   1.279  1.9200 -0.1328 -0.3413
14618TIP3   OH265344   3.900   6.763   0.809  0.3339  0.4772  0.0571
14618TIP3    H165345   3.841   6.747   0.735  0.3792  0.0498  0.1139
14618TIP3    H265346   3.972   6.813   0.770  0.5847 -0.1457 -0.2851
14619TIP3   OH265347   0.379   5.575  12.513  0.0071 -0.0027 -0.8377
14619TIP3    H165348   0.316   5.635  12.472 -0.3403 -1.1769 -2.0948
14619TIP3    H265349   0.330   5.495  12.528  1.0737 -0.8009 -1.4748
14620TIP3   OH265350   2.817   2.187  12.094  0.3817 -0.1046 -0.3459
14620TIP3    H165351   2.741   2.129  12.095 -1.7253  2.4728 -0.0180
14620TIP3    H265352   2.861   2.167  12.011  1.2984 -3.8349  0.8403
14621TIP3   OH265353   2.655   3.627  16.747 -0.1363  0.6370 -0.2518
14621TIP3    H165354   2.717   3.638  16.675 -0.7754  0.3158 -0.8614
14621TIP3    H265355   2.580   3.682  16.722 -0.3999  0.4476  0.1262
14622TIP3   OH265356   1.752   0.410  10.836  0.2484  0.3269  0.0571
14622TIP3    H165357   1.668   0.364  10.839  0.4719 -0.0889  0.1235
14622TIP3    H265358   1.757   0.457  10.919  0.0896  0.3409  0.0593
14623TIP3   OH265359   2.687   0.901   6.186 -0.3603 -0.4654  0.2794
14623TIP3    H165360   2.736   0.978   6.215 -1.7243  0.3667  0.4267
14623TIP3    H265361   2.621   0.887   6.253 -1.1254 -0.8146 -0.5269
14624TIP3   OH265362   5.300   4.729   2.727  0.4798 -0.4500  0.4095
14624TIP3    H165363   5.277   4.821   2.739  0.2221 -0.5061  0.3577
14624TIP3    H265364   5.217   4.686   2.706  0.4520 -0.8504  1.3106
14625TIP3   OH265365   5.922   5.312   5.079 -0.1794 -0.1389  0.2726
14625TIP3    H165366   5.907   5.350   4.992  1.1851  0.3429  0.2135
14625TIP3    H265367   5.932   5.388   5.137 -1.1972 -0.4606  0.8834
14626TIP3   OH265368   5.566   6.627  15.152  0.2433  0.6509  0.0524
14626TIP3    H165369   5.625   6.697  15.124  1.0214  0.2824  0.7520
14626TIP3    H265370   5.520   6.601  15.072  1.7298  0.2761 -0.7095
14627TIP3   OH265371   1.147   6.717   5.314  0.0791  0.4083 -0.8114
14627TIP3    H165372   1.192   6.790   5.273 -0.3205  0.4355 -1.2020
14627TIP3    H265373   1.119   6.661   5.242  1.1049 -0.5721 -0.4860
14628TIP3   OH265374   0.537   5.088  14.912 -0.2703  0.2354  0.0186
14628TIP3    H165375   0.530   5.072  14.818 -1.0350 -1.8001  0.3540
14628TIP3    H265376   0.611   5.034  14.940 -1.0658 -0.4861  0.7984
14629TIP3   OH265377   5.409   1.416  14.031  0.8468 -0.3329 -0.6477
14629TIP3    H165378   5.452   1.496  14.062 -0.0258 -0.2025  0.2902
14629TIP3    H265379   5.481   1.357  14.008  1.5060  0.2831 -0.1973
14630TIP3   OH265380   5.419   6.416  14.110  0.2389 -0.0375 -0.1509
14630TIP3    H165381   5.423   6.469  14.030  0.4077 -0.7741 -0.6422
14630TIP3    H265382   5.327   6.417  14.135  0.3468  1.0302  0.2192
14631TIP3   OH265383   5.608   5.036   1.375  0.4823 -0.0472 -0.2347
14631TIP3    H165384   5.593   5.018   1.283  0.0034 -1.6054  0.1110
14631TIP3    H265385   5.537   4.991   1.420  0.9670  0.2963  0.9211
14632TIP3   OH265386   4.245   6.036   2.363 -0.4246  0.7592 -0.3156
14632TIP3    H165387   4.235   5.968   2.429  1.0396  1.4048  0.6184
14632TIP3    H265388   4.163   6.086   2.367 -0.2358  0.9840  1.2501
14633TIP3   OH265389   2.828   2.045  13.444  0.7136 -0.2268  0.2384
14633TIP3    H165390   2.813   2.048  13.539 -0.7941 -0.2082  0.0243
14633TIP3    H265391   2.797   2.130  13.413 -1.1728 -1.1590 -0.5577
14634TIP3   OH265392   1.263   3.967   0.642  0.0810 -0.4784 -0.0665
14634TIP3    H165393   1.270   3.878   0.610  0.1502 -0.0689 -1.2373
14634TIP3    H265394   1.175   3.995   0.618  0.4034  0.0953 -0.6206
14635TIP3   OH265395   3.018   1.311  12.837 -0.1022  0.3941  0.2374
14635TIP3    H165396   3.096   1.277  12.792  0.4078  1.1112  0.5516
14635TIP3    H265397   2.960   1.235  12.846  0.3313 -0.0307 -0.4859
14636TIP3   OH265398   4.086   6.060  13.060  0.3385  0.3363  0.1833
14636TIP3    H165399   4.153   6.034  12.997  0.9236  0.7484  0.6359
14636TIP3    H265400   4.043   5.978  13.084  0.5270  0.1004 -0.2805
14637TIP3   OH265401   4.316   6.664  16.755 -0.5688 -0.2438 -0.0162
14637TIP3    H165402   4.250   6.728  16.782 -1.9939 -1.5466 -0.2637
14637TIP3    H265403   4.303   6.590  16.815 -0.3485 -1.1138 -1.0062
14638TIP3   OH265404   2.345   1.743   4.576  0.1719  0.2287 -0.1487
14638TIP3    H165405   2.278   1.740   4.644  0.0982  0.1570 -0.2232
14638TIP3    H265406   2.338   1.658   4.532  0.4806  0.1244  0.0046
14639TIP3   OH265407   1.181   2.038   2.687  1.0991  0.3392 -0.5153
14639TIP3    H165408   1.173   1.978   2.613  0.1312 -0.2261  0.0182
14639TIP3    H265409   1.112   2.010   2.748 -0.0460  2.6189 -0.6670
14640TIP3   OH265410   2.112   3.923  15.058  0.1948 -0.4764 -0.7140
14640TIP3    H165411   2.167   3.990  15.018  1.1049 -0.9448 -0.2910
14640TIP3    H265412   2.161   3.842  15.046 -1.2181 -1.1923 -1.8397
14641TIP3   OH265413   1.523   2.716  15.782 -0.4897 -0.4875 -0.0973
14641TIP3    H165414   1.594   2.725  15.845 -0.7829  0.5067  0.0986
14641TIP3    H265415   1.492   2.805  15.766 -1.1429 -0.8248 -0.8169
14642TIP3   OH265416   3.571   5.888   3.946  0.6004  0.3583 -0.3503
14642TIP3    H165417   3.500   5.952   3.946 -0.9731 -1.2494  1.0277
14642TIP3    H265418   3.557   5.837   3.866 -0.7839 -0.8787  0.6224
14643TIP3   OH265419   1.661   2.232  11.442  0.4035  0.5091 -0.5445
14643TIP3    H165420   1.578   2.260  11.403  0.0790 -0.3737 -0.5157
14643TIP3    H265421   1.693   2.162  11.384  2.4769  2.5562 -2.0544
14644TIP3   OH265422   4.511   1.265  12.822  0.7702  0.3306  0.1958
14644TIP3    H165423   4.499   1.187  12.877  0.1908  0.3855  0.1582
14644TIP3    H265424   4.515   1.338  12.884  0.0837  0.3959  0.1735
14645TIP3   OH265425   2.710   3.730   4.216  0.2237  0.0449 -0.3566
14645TIP3    H165426   2.718   3.718   4.121  0.1202  0.0766 -0.3702
14645TIP3    H265427   2.789   3.691   4.253 -0.7537 -1.9694 -0.2781
14646TIP3   OH265428   6.018   0.684   5.561 -0.1043 -0.5995  0.4791
14646TIP3    H165429   5.979   0.741   5.628 -0.4912 -0.8609  0.4780
14646TIP3    H265430   6.093   0.734   5.528  0.1906 -0.5310  1.2205
14647TIP3   OH265431   1.899   4.455  11.053 -0.3110 -0.4328  0.1739
14647TIP3    H165432   1.962   4.488  11.118 -0.6719  0.0661  0.2724
14647TIP3    H265433   1.815   4.493  11.080 -0.7626 -1.5318  0.3692
14648TIP3   OH265434   0.740   4.379   5.640 -0.4773 -0.1408 -0.0767
14648TIP3    H165435   0.749   4.286   5.622  1.9664  0.0977 -0.4879
14648TIP3    H265436   0.828   4.407   5.664 -0.5214  2.5540 -2.5003
14649TIP3   OH265437   3.048   3.458  17.201  0.2367  0.4728  0.1092
14649TIP3    H165438   3.021   3.470  17.111  1.4033  0.2316 -0.2907
14649TIP3    H265439   2.991   3.389  17.235  0.9014 -0.6257 -0.9594
14650TIP3   OH265440   4.208   5.363  15.377  0.2059  0.1746 -0.1553
14650TIP3    H165441   4.278   5.416  15.417  0.4326  0.1854 -0.5587
14650TIP3    H265442   4.201   5.286  15.434  1.9772 -0.8448 -1.2023
14651TIP3   OH265443   2.428   2.507  16.912  0.5570  0.1702 -0.4221
14651TIP3    H165444   2.380   2.530  16.832  0.0154 -1.7465 -0.6840
14651TIP3    H265445   2.362   2.505  16.980  0.8705  0.8882 -0.0813
14652TIP3   OH265446   3.657   2.903  11.896 -0.7272  0.2426  0.0692
14652TIP3    H165447   3.700   2.987  11.910 -2.0994  0.9445  0.2393
14652TIP3    H265448   3.616   2.911  11.810 -0.6335 -0.3601 -0.0388
14653TIP3   OH265449   1.918   2.018  17.123 -0.0290 -0.5211 -0.1121
14653TIP3    H165450   1.896   2.040  17.032  1.5367  1.4963 -0.0775
14653TIP3    H265451   1.981   1.947  17.115  0.6013  0.0818 -0.6663
14654TIP3   OH265452   1.635   5.026   2.253 -0.1085  0.0424  0.0429
14654TIP3    H165453   1.714   5.046   2.202  0.1774 -0.9074  0.1070
14654TIP3    H265454   1.628   5.098   2.316  0.4488  0.3623 -0.2564
14655TIP3   OH265455   6.099   0.248   1.394 -0.1369 -0.2797  0.1268
14655TIP3    H165456   6.050   0.328   1.371 -1.6160 -1.2460 -0.2053
14655TIP3    H265457   6.032   0.187   1.424  0.5748 -2.2706 -2.0319
14656TIP3   OH265458   5.341   1.942  12.702 -0.4421 -0.0031 -0.1395
14656TIP3    H165459   5.372   1.857  12.732 -2.0470 -0.1213  1.3211
14656TIP3    H265460   5.414   2.002  12.720 -0.3260 -0.5856  1.4289
14657TIP3   OH265461   2.671   3.882  15.940  0.1655 -0.1705 -0.0156
14657TIP3    H165462   2.670   3.884  16.036  2.0486  0.0558  0.0263
14657TIP3    H265463   2.661   3.974  15.915 -1.9742 -0.3771 -0.1209
14658TIP3   OH265464   2.980   3.850   4.340 -0.7803 -0.1015 -0.4816
14658TIP3    H165465   3.059   3.894   4.309 -0.7201  0.8348  0.8837
14658TIP3    H265466   2.909   3.907   4.312 -0.6731  1.2528  1.7198
14659TIP3   OH265467   5.345   0.922   5.475 -0.0251 -0.4350  0.5449
14659TIP3    H165468   5.254   0.945   5.455 -0.9768 -2.0360  2.6731
14659TIP3    H265469   5.350   0.924   5.571  2.1789 -0.4881  0.4857
14660TIP3   OH265470   3.404   0.795   0.416  0.1049 -0.1575  0.1324
14660TIP3    H165471   3.360   0.860   0.362  1.3938  2.2512  1.8139
14660TIP3    H265472   3.383   0.711   0.375 -0.2955  1.3983 -3.0887
14661TIP3   OH265473   5.023   2.160  15.676  0.2994 -0.4841  0.1692
14661TIP3    H165474   4.974   2.114  15.744 -1.2857  1.8962  0.7782
14661TIP3    H265475   5.115   2.148  15.701 -0.0399 -2.7936  0.5449
14662TIP3   OH265476   2.611   1.832   1.849 -0.2954  0.6505  0.4412
14662TIP3    H165477   2.631   1.744   1.816 -1.7586 -0.0731  1.3612
14662TIP3    H265478   2.694   1.862   1.886 -0.0625 -0.9192  1.3177
14663TIP3   OH265479   5.077   1.711  12.697 -0.3163  0.1580  0.0873
14663TIP3    H165480   5.048   1.801  12.680 -0.2449  0.2784  0.5996
14663TIP3    H265481   5.170   1.719  12.714 -0.4539  0.0879  0.9021
14664TIP3   OH265482   0.778   0.037  12.658  0.6843  0.0658 -0.3828
14664TIP3    H165483   0.863   0.028  12.616  0.8032 -1.0356  0.0824
14664TIP3    H265484   0.755   0.130  12.646  2.0505  0.4275 -0.2791
14665TIP3   OH265485   0.870   0.330  10.891 -0.3545  0.2584 -0.0062
14665TIP3    H165486   0.854   0.419  10.924 -2.4071  0.0125 -0.2122
14665TIP3    H265487   0.957   0.335  10.850  0.3042  1.7241  1.4366
14666TIP3   OH265488   1.282   3.250  11.694 -0.2240  0.0213 -0.0821
14666TIP3    H165489   1.264   3.343  11.708 -0.2949  0.2145 -1.2858
14666TIP3    H265490   1.349   3.249  11.625  0.5779 -0.7995  0.6823
14667TIP3   OH265491   6.212   5.047   2.987 -0.2842  0.1837  0.3115
14667TIP3    H165492   6.170   4.981   3.042  1.3350 -1.7054 -0.6151
14667TIP3    H265493   6.214   5.009   2.900  3.1606  0.1483  0.2646
14668TIP3   OH265494   0.000   5.224  15.606  0.7684  0.1934 -0.0165
14668TIP3    H165495   0.064   5.294  15.615 -0.2287  1.1335 -0.1212
14668TIP3    H265496  -0.046   5.243  15.524  1.0249 -1.0443 -0.4769
14669TIP3   OH265497   0.131   0.930   4.943  0.3020 -0.2256 -0.3880
14669TIP3    H165498   0.203   0.976   4.987 -0.4719 -0.0888  0.7988
14669TIP3    H265499   0.153   0.935   4.850  0.9234  1.3839 -0.2023
14670TIP3   OH265500   6.248   2.311  15.261 -0.2972 -0.5992  0.4453
14670TIP3    H165501   6.197   2.331  15.183  0.5904  1.6523  0.3541
14670TIP3    H265502   6.221   2.223  15.287 -1.1078 -1.1267 -1.9875
14671TIP3   OH265503   5.744   2.619   4.352  0.2106 -0.3500 -0.6822
14671TIP3    H165504   5.672   2.670   4.316  1.4303  1.8149 -0.1941
14671TIP3    H265505   5.723   2.610   4.445 -0.1187 -0.9960 -0.8097
14672TIP3   OH265506   4.469   1.628  14.599 -0.1370 -1.1069 -0.4238
14672TIP3    H165507   4.522   1.684  14.543 -0.6022 -0.4608 -0.2281
14672TIP3    H265508   4.531   1.567  14.638  0.4651 -0.3560 -0.1924
14673TIP3   OH265509   2.375   5.768  15.953 -0.3620 -0.1797 -0.2961
14673TIP3    H165510   2.443   5.722  16.004 -0.6080 -1.6942 -1.2570
14673TIP3    H265511   2.422   5.835  15.905  0.0907  0.3160  0.8123
14674TIP3   OH265512   0.066   4.335   3.839 -0.2400  0.1232 -0.2656
14674TIP3    H165513   0.042   4.264   3.899 -1.1839  2.2224  2.0554
14674TIP3    H265514  -0.006   4.398   3.846  1.2057  1.9861 -1.0524
14675TIP3   OH265515   1.638   2.839   0.941 -0.7015  0.0096 -0.1603
14675TIP3    H165516   1.553   2.851   0.983 -0.7153  1.8365 -0.5796
14675TIP3    H265517   1.652   2.745   0.940 -2.7193 -0.3414 -0.0653
14676TIP3   OH265518   3.646   1.860   0.208 -0.2019  0.2944 -0.2087
14676TIP3    H165519   3.550   1.855   0.213 -0.1274 -0.9762  0.4921
14676TIP3    H265520   3.672   1.903   0.290 -0.1233 -0.6142  0.2619
14677TIP3   OH265521   0.043   6.476  17.013  0.2024  0.9107 -0.1222
14677TIP3    H165522   0.088   6.407  16.964 -1.3013  1.0570 -1.8041
14677TIP3    H265523  -0.021   6.429  17.067  0.0212  0.8974 -0.3435
14678TIP3   OH265524   3.128   6.570  14.405 -0.0031 -0.3480  0.3557
14678TIP3    H165525   3.217   6.534  14.400  0.3403  0.6018 -1.6006
14678TIP3    H265526   3.139   6.662  14.378 -1.6725 -0.4126 -0.6583
14679TIP3   OH265527   3.059   0.952   5.601  0.5408 -0.8949 -0.0533
14679TIP3    H165528   3.013   0.891   5.658  1.5775 -0.7414  0.9879
14679TIP3    H265529   3.057   0.911   5.514 -3.2459 -0.0017 -0.5770
14680TIP3   OH265530   2.123   1.091   3.995 -0.5535  0.5930 -0.2066
14680TIP3    H165531   2.158   1.022   3.938 -1.8868 -0.7872  0.5579
14680TIP3    H265532   2.041   1.118   3.953 -0.1594  1.5713 -0.3733
14681TIP3   OH265533   0.655   5.243   3.962  0.6267  0.5600 -0.2794
14681TIP3    H165534   0.714   5.212   3.893 -0.8394 -0.8770 -0.9515
14681TIP3    H265535   0.606   5.165   3.988 -1.5901  1.8363 -0.3941
14682TIP3   OH265536   2.474   5.349  12.079  0.7746 -0.2900  0.0259
14682TIP3    H165537   2.539   5.415  12.058  1.3555 -0.5807  0.8503
14682TIP3    H265538   2.508   5.268  12.040  2.4302 -1.0871  2.7942
14683TIP3   OH265539   4.452   3.983   5.320  0.2787  0.1512  0.0482
14683TIP3    H165540   4.536   3.938   5.335  1.9707  2.6712 -1.1684
14683TIP3    H265541   4.472   4.076   5.331 -2.3858  0.8568 -0.3256
14684TIP3   OH265542   0.546   3.861   2.358  0.2953 -0.3473  0.7703
14684TIP3    H165543   0.582   3.898   2.277  0.3834  1.7401  1.6841
14684TIP3    H265544   0.452   3.877   2.351  0.2113 -0.8590  0.7402
14685TIP3   OH265545   5.326   5.458  11.536 -0.8026  0.3451 -0.0925
14685TIP3    H165546   5.307   5.476  11.628  0.3541 -0.6865  0.3692
14685TIP3    H265547   5.420   5.440  11.533 -0.9613 -0.4472 -1.3347
14686TIP3   OH265548   6.628   1.637   2.133  0.2191  0.1468  0.5934
14686TIP3    H165549   6.659   1.640   2.043 -1.1944  1.6836  0.1090
14686TIP3    H265550   6.535   1.614   2.127 -0.0137  0.7242  1.6149
14687TIP3   OH265551   2.006   3.497  14.330 -0.0060 -0.0834  0.0816
14687TIP3    H165552   1.948   3.432  14.370 -1.3505 -0.5884 -2.4460
14687TIP3    H265553   2.031   3.554  14.402 -2.6867 -0.5729  1.5444
14688TIP3   OH265554   4.005   5.060  15.541  0.0466 -0.8844  0.2695
14688TIP3    H165555   4.059   5.024  15.471 -2.2989 -0.9680 -1.6587
14688TIP3    H265556   3.995   4.989  15.603  2.9446 -0.5290  1.2893
14689TIP3   OH265557   5.064   6.724  16.857 -0.3745 -0.0330 -0.0439
14689TIP3    H165558   5.092   6.812  16.880 -1.4078  0.8234 -1.8830
14689TIP3    H265559   5.142   6.684  16.818  0.2612 -0.1727  1.3108
14690TIP3   OH265560   4.369   4.447  12.145 -0.5317 -0.1970 -0.1093
14690TIP3    H165561   4.438   4.438  12.079  0.2012  0.9935  0.4650
14690TIP3    H265562   4.349   4.540  12.147 -0.0405 -0.0844  1.7998
14691TIP3   OH265563   0.144   0.588   3.558 -0.0444 -0.7610 -0.0208
14691TIP3    H165564   0.155   0.636   3.641 -1.4956  1.6669 -1.1411
14691TIP3    H265565   0.227   0.601   3.513 -0.6148  1.3977 -0.5761
14692TIP3   OH265566   0.196   2.487  16.955 -0.2624  0.8257 -0.0044
14692TIP3    H165567   0.280   2.520  16.925  0.2538  1.6450  2.1800
14692TIP3    H265568   0.136   2.561  16.945 -0.1675  0.9926  0.6493
14693TIP3   OH265569   6.167   4.499   1.433  0.4402  0.4182  0.1369
14693TIP3    H165570   6.168   4.552   1.354  1.1769  0.4825  0.1824
14693TIP3    H265571   6.201   4.556   1.502 -0.7637  0.5625  0.6436
14694TIP3   OH265572   0.389   1.225   1.857  0.5052  0.2523 -0.2752
14694TIP3    H165573   0.429   1.304   1.893  0.6362  0.3985 -0.7283
14694TIP3    H265574   0.459   1.160   1.858  0.9869  0.7011 -1.7043
14695TIP3   OH265575   6.631   1.585   4.335  0.0690  0.7676 -0.0421
14695TIP3    H165576   6.659   1.651   4.398  1.4670  1.2473 -1.1285
14695TIP3    H265577   6.563   1.628   4.283 -1.0843  0.3713  1.1024
14696TIP3   OH265578   5.901   6.789   3.808 -0.0426  0.0044  0.5796
14696TIP3    H165579   5.946   6.777   3.891  0.5283  1.1301  0.4456
14696TIP3    H265580   5.808   6.789   3.831  0.0607 -0.8762  1.0446
14697TIP3   OH265581   6.410   4.375  16.282 -0.4251 -0.0242  0.5715
14697TIP3    H165582   6.316   4.373  16.266 -0.4957  3.9038 -0.4308
14697TIP3    H265583   6.418   4.360  16.377 -2.2826  1.5760  1.0564
14698TIP3   OH265584   2.231   6.386   0.999  0.0384 -0.2964 -0.5286
14698TIP3    H165585   2.319   6.420   0.981  0.0115 -0.2953 -0.6555
14698TIP3    H265586   2.172   6.458   0.977  0.0674  0.1023  0.6028
14699TIP3   OH265587   1.290   2.712   5.848  0.5591 -0.9574  0.2075
14699TIP3    H165588   1.340   2.726   5.768  0.5707 -0.4110  0.3051
14699TIP3    H265589   1.249   2.627   5.837  1.5651 -1.4479  0.1535
14700TIP3   OH265590   5.595   0.367   0.167 -0.2120  0.0558 -0.1273
14700TIP3    H165591   5.561   0.302   0.228 -0.1911 -0.1329 -0.3130
14700TIP3    H265592   5.600   0.320   0.083  0.9100 -0.0617 -0.0148
14701TIP3   OH265593   3.873   1.348   4.089  0.1366 -0.5860  0.0622
14701TIP3    H165594   3.792   1.384   4.127  0.2614 -1.4205  1.1588
14701TIP3    H265595   3.843   1.288   4.020 -0.1507 -0.4048  0.0277
14702TIP3   OH265596   4.749   6.204  16.178  0.6361  0.0170  0.1217
14702TIP3    H165597   4.820   6.255  16.140 -0.6001  2.0143  0.3537
14702TIP3    H265598   4.786   6.170  16.260  1.4497  0.6834  0.0483
14703TIP3   OH265599   2.919   6.184  16.673 -0.0403 -0.2644  0.1282
14703TIP3    H165600   3.004   6.213  16.641 -0.1237 -1.7273 -1.6224
14703TIP3    H265601   2.929   6.089  16.686 -0.7751 -0.1119  2.1168
14704TIP3   OH265602   2.765   3.685   0.085 -0.2224  0.2451 -0.2476
14704TIP3    H165603   2.766   3.646   0.172 -0.1145 -2.0185 -1.1995
14704TIP3    H265604   2.790   3.777   0.100  0.7213 -0.2937  1.9736
14705TIP3   OH265605   0.537   3.974   1.490  0.6779 -0.2625 -0.4798
14705TIP3    H165606   0.505   3.909   1.552  0.3005 -1.0336 -1.4509
14705TIP3    H265607   0.464   4.035   1.480  0.6854 -0.2191 -0.2745
14706TIP3   OH265608   1.459   5.336   3.956  0.0908  0.4517 -0.4611
14706TIP3    H165609   1.542   5.355   3.910 -0.5062 -0.1501 -1.8462
14706TIP3    H265610   1.479   5.351   4.048  1.8936 -0.1584 -0.7150
14707TIP3   OH265611   5.045   2.956  13.366 -0.6797 -0.2113  0.1905
14707TIP3    H165612   5.032   2.961  13.271 -0.8831  0.0659  0.2325
14707TIP3    H265613   4.958   2.937  13.401 -0.9082  1.2244  0.4432
14708TIP3   OH265614   4.119   6.731  13.601 -0.3839 -0.0715 -0.2600
14708TIP3    H165615   4.170   6.655  13.628  2.1691  1.0326 -1.5271
14708TIP3    H265616   4.175   6.775  13.536 -1.2326  3.4036  1.1142
14709TIP3   OH265617   4.546   6.503  12.876 -0.7436  0.0398 -0.4477
14709TIP3    H165618   4.558   6.561  12.800  1.5682 -0.5521 -0.5934
14709TIP3    H265619   4.537   6.416  12.838 -1.1809 -0.0773 -0.0864
14710TIP3   OH265620   6.416   6.068   1.977 -0.1641 -0.4425  0.3477
14710TIP3    H165621   6.361   6.132   1.932  1.9918 -0.4286 -2.5997
14710TIP3    H265622   6.383   5.983   1.948  1.4362 -0.4314 -1.8213
14711TIP3   OH265623   6.814   1.047  13.963 -0.0238 -0.1293  0.5079
14711TIP3    H165624   6.792   1.132  14.001  0.3624  0.5194 -0.6469
14711TIP3    H265625   6.739   0.992  13.982 -1.0765  0.9890 -0.2116
14712TIP3   OH265626   6.245   4.333   5.622 -0.0222  0.3126  0.3374
14712TIP3    H165627   6.283   4.262   5.674  2.0368  0.5025 -0.8010
14712TIP3    H265628   6.280   4.412   5.662  1.0260  0.4857 -0.8961
14713TIP3   OH265629   1.543   5.751  13.461 -0.3017 -0.2099 -0.0186
14713TIP3    H165630   1.457   5.713  13.476 -0.0252  0.1154  2.9309
14713TIP3    H265631   1.570   5.718  13.375 -1.9156 -3.0288  0.4668
14714TIP3   OH265632   1.494   6.536  16.400  0.0407 -0.6840  0.5134
14714TIP3    H165633   1.473   6.512  16.310 -1.4310 -1.6672  1.0682
14714TIP3    H265634   1.409   6.542  16.444  0.6876  0.5281  1.6615
14715TIP3   OH265635   3.176   2.543   3.913  0.4668 -0.6417 -0.5713
14715TIP3    H165636   3.190   2.626   3.958 -0.8003 -0.7597  0.0603
14715TIP3    H265637   3.134   2.567   3.831 -0.2562 -0.6744 -0.2185
14716TIP3   OH265638   1.003   2.391   1.164  0.4016  0.0665  0.0288
14716TIP3    H165639   1.049   2.335   1.227 -0.8972  0.2563  1.1981
14716TIP3    H265640   0.912   2.390   1.193 -0.0007  1.2018 -1.1017
14717TIP3   OH265641   4.112   5.107  15.942  0.1440  0.2919  0.6663
14717TIP3    H165642   4.143   5.074  15.858 -1.4391  1.3209 -0.3929
14717TIP3    H265643   4.031   5.058  15.959  0.5705 -0.0783  1.7272
14718TIP3   OH265644   4.313   2.739   6.262 -0.0278  0.9153 -0.7676
14718TIP3    H165645   4.341   2.794   6.189  1.5991  2.3976  0.8637
14718TIP3    H265646   4.340   2.787   6.340 -4.1605  0.8125  1.0033
14719TIP3   OH265647   1.040   4.715   1.054  0.8140  0.3206 -0.3068
14719TIP3    H165648   1.004   4.799   1.027 -0.2220  0.8133  2.3437
14719TIP3    H265649   1.131   4.717   1.022  1.3418  3.1818  1.0185
14720TIP3   OH265650   2.739   1.519   3.265 -0.4920  0.1629  0.0061
14720TIP3    H165651   2.811   1.545   3.207 -2.0371  1.8814 -1.2413
14720TIP3    H265652   2.739   1.423   3.260  1.8077  0.0978  0.2081
14721TIP3   OH265653   0.447   1.776  11.480  0.0486 -0.4943  0.0933
14721TIP3    H165654   0.437   1.797  11.387 -0.2510 -1.8900 -0.2040
14721TIP3    H265655   0.372   1.819  11.521 -0.2515 -0.5186 -0.4125
14722TIP3   OH265656   6.465   4.593  14.743 -0.0854  0.5451  0.4524
14722TIP3    H165657   6.422   4.606  14.828  0.1609  1.4358  0.4510
14722TIP3    H265658   6.521   4.670  14.733  0.3209  0.1645 -0.2621
14723TIP3   OH265659   3.736   2.495   5.273 -0.1292 -0.4719  0.1696
14723TIP3    H165660   3.643   2.476   5.257 -0.4361 -0.1852  1.4722
14723TIP3    H265661   3.736   2.585   5.307  0.9381  0.6797 -2.5707
14724TIP3   OH265662   3.702   4.514  16.969 -0.4049  0.1438 -0.0599
14724TIP3    H165663   3.652   4.495  16.890  0.0029 -0.7049 -0.1185
14724TIP3    H265664   3.793   4.519  16.940  0.0525 -2.4834  0.6713
14725TIP3   OH265665   6.476   5.142   2.388 -0.1240  0.1960  0.6339
14725TIP3    H165666   6.406   5.204   2.367  0.0561  0.1444 -0.1803
14725TIP3    H265667   6.451   5.105   2.473 -0.2485  1.3471  1.1108
14726TIP3   OH265668   6.347   0.377  16.045  0.0906  0.5977 -0.4447
14726TIP3    H165669   6.380   0.288  16.046  0.7655  0.8398  0.8439
14726TIP3    H265670   6.252   0.367  16.035 -0.0443 -0.3629  1.3694
14727TIP3   OH265671   4.235   0.382   2.593 -0.1651  0.0231  0.1665
14727TIP3    H165672   4.140   0.385   2.592 -0.1984 -0.7420  0.4513
14727TIP3    H265673   4.258   0.363   2.684  0.2091 -1.0143 -0.1303
14728TIP3   OH265674   3.062   6.339   1.708 -0.0920 -0.2286  0.4826
14728TIP3    H165675   3.023   6.254   1.730 -0.2110 -0.1083  0.7419
14728TIP3    H265676   2.992   6.386   1.663 -0.0182 -0.2775  0.3173
14729TIP3   OH265677   2.322   2.935   2.749  0.0609  0.0050 -0.5582
14729TIP3    H165678   2.296   2.873   2.680  0.1580 -1.6638  0.8314
14729TIP3    H265679   2.276   2.904   2.827  0.8260  1.1733  0.3897
14730TIP3   OH265680   6.668   5.051  14.239 -0.1855  0.2320 -0.0563
14730TIP3    H165681   6.679   4.969  14.287 -1.2764  0.2909  0.3051
14730TIP3    H265682   6.578   5.077  14.256  0.2152  1.6339  0.0245
14731TIP3   OH265683   2.248   4.351  14.038 -0.0483  0.5134  0.0516
14731TIP3    H165684   2.199   4.390  14.111 -0.7421  1.3898 -0.8423
14731TIP3    H265685   2.245   4.257  14.055 -1.5706  0.5805  0.3412
14732TIP3   OH265686   0.942   2.961   0.772 -0.2522 -0.2496  0.2038
14732TIP3    H165687   0.912   2.984   0.860 -0.6808 -1.1369  0.2999
14732TIP3    H265688   0.863   2.935   0.725  0.0475 -0.2974 -0.2852
14733TIP3   OH265689   3.039   6.582   3.896 -0.5385 -0.2240  0.0804
14733TIP3    H165690   3.040   6.512   3.831 -2.3089 -1.5756  1.4121
14733TIP3    H265691   2.968   6.639   3.869 -3.2140 -2.2827  2.1306
14734TIP3   OH265692   0.292   5.454  11.022  0.0593 -0.0249  0.1207
14734TIP3    H165693   0.226   5.448  10.953  1.2543 -1.9227 -0.9590
14734TIP3    H265694   0.359   5.513  10.986  0.6394 -0.9439 -0.3506
14735TIP3   OH265695   0.797   4.107   3.002  0.0035 -0.2574  0.1668
14735TIP3    H165696   0.755   4.022   2.989  1.6254 -1.0993  0.2217
14735TIP3    H265697   0.835   4.129   2.917 -0.2358  0.3243  0.2035
14736TIP3   OH265698   1.249   2.512  14.566 -0.2152  0.4509 -0.1105
14736TIP3    H165699   1.268   2.494  14.658 -0.3656  0.6216 -0.0456
14736TIP3    H265700   1.247   2.425  14.525 -0.6329  0.3372  0.1422
14737TIP3   OH265701   1.580   3.678   0.560  0.4456 -0.2793  0.6924
14737TIP3    H165702   1.497   3.692   0.514  0.2649 -0.1012  1.0656
14737TIP3    H265703   1.578   3.586   0.584 -0.0237 -0.0994  1.4083
14738TIP3   OH265704   2.983   2.935  15.668 -0.0956  0.0785  0.2218
14738TIP3    H165705   2.903   2.963  15.624 -0.4067 -2.2610 -0.9016
14738TIP3    H265706   2.958   2.853  15.711  1.4342 -0.1698  0.6754
14739TIP3   OH265707   6.739   3.256   6.344  0.6503 -0.1359  0.0920
14739TIP3    H165708   6.649   3.285   6.353  0.7267  0.5212 -1.1573
14739TIP3    H265709   6.792   3.335   6.361  1.0994 -0.8430  2.4457
14740TIP3   OH265710   5.832   3.008   4.411  0.2122  0.2318 -0.1692
14740TIP3    H165711   5.824   3.002   4.316 -1.5937  1.7480 -0.1559
14740TIP3    H265712   5.889   2.934   4.435 -0.0731 -0.7443 -2.3023
14741TIP3   OH265713   5.474   2.176   2.470 -0.0669 -0.4145 -0.6461
14741TIP3    H165714   5.405   2.214   2.415 -0.8672 -0.8064  0.0734
14741TIP3    H265715   5.435   2.169   2.557  1.2620  0.4531  0.0716
14742TIP3   OH265716   2.188   5.067   1.468 -1.0604 -0.6445 -0.0688
14742TIP3    H165717   2.248   5.117   1.413  0.1077  0.2206  1.9232
14742TIP3    H265718   2.207   4.976   1.448  1.0986 -0.3943  0.6556
14743TIP3   OH265719   3.687   1.134  12.750 -0.5314  0.3000 -0.0394
14743TIP3    H165720   3.597   1.148  12.780 -1.4785 -0.2662 -2.4094
14743TIP3    H265721   3.678   1.082  12.671  2.0363 -1.6376  0.7938
14744TIP3   OH265722   6.631   5.069   4.958  0.3933 -0.2312 -0.1997
14744TIP3    H165723   6.671   5.138   5.010  1.9559 -1.2087 -0.0291
14744TIP3    H265724   6.618   5.108   4.872 -1.2358  1.0709  0.5959
14745TIP3   OH265725   6.422   3.656   2.421 -0.3624  0.0033 -0.1190
14745TIP3    H165726   6.396   3.666   2.513 -0.6374 -3.3192  0.3205
14745TIP3    H265727   6.339   3.647   2.374 -0.2206  1.7205 -0.7354
14746TIP3   OH265728   1.201   1.687   1.072  0.0568 -0.0356  0.5228
14746TIP3    H165729   1.121   1.708   1.025 -0.3065 -2.1144  0.1556
14746TIP3    H265730   1.264   1.753   1.043 -1.0976  0.7480 -0.2721
14747TIP3   OH265731   4.683   2.419  12.369 -0.2401  0.1803  0.2955
14747TIP3    H165732   4.678   2.488  12.435  0.9749  1.8751 -1.3145
14747TIP3    H265733   4.738   2.352  12.409  1.9179  1.9406  0.4203
14748TIP3   OH265734   0.453   4.112   5.545 -0.4074  0.3666  0.2566
14748TIP3    H165735   0.427   4.203   5.530  0.0447  0.5230  0.4255
14748TIP3    H265736   0.438   4.098   5.638  0.3559  0.5405  0.4132
14749TIP3   OH265737   5.373   1.570  13.365 -0.3326 -0.3091  0.9776
14749TIP3    H165738   5.434   1.497  13.356  0.4311  0.3362  0.8544
14749TIP3    H265739   5.373   1.613  13.280 -0.3070  0.2011  1.2307
14750TIP3   OH265740   6.081   2.371  16.566  0.0269 -0.2191  0.3223
14750TIP3    H165741   6.133   2.437  16.520  0.8519  0.0794  1.6164
14750TIP3    H265742   6.115   2.287  16.535  1.5787 -0.0382  1.3790
14751TIP3   OH265743   0.903   3.514   2.979  0.1538 -0.0818  0.0703
14751TIP3    H165744   0.868   3.431   3.009  0.8427 -0.1411  0.7631
14751TIP3    H265745   0.845   3.541   2.908 -0.5934 -0.7171  0.4260
14752TIP3   OH265746   3.113   6.821   3.103 -0.7724  0.9453 -0.1777
14752TIP3    H165747   3.079   6.909   3.088 -1.5041  0.6136 -0.5243
14752TIP3    H265748   3.160   6.827   3.187 -1.4371  1.4868  0.1640
14753TIP3   OH265749   0.239   5.892   0.594 -0.2036  0.3882  0.1716
14753TIP3    H165750   0.279   5.825   0.648 -1.2319 -0.1990  0.2372
14753TIP3    H265751   0.229   5.967   0.652 -0.0691  0.2191  0.4161
14754TIP3   OH265752   6.644   3.608  17.090  0.0186 -0.5294 -0.1742
14754TIP3    H165753   6.704   3.604  17.015 -1.5996  0.1967 -1.5504
14754TIP3    H265754   6.611   3.697  17.090 -1.3066 -0.9981  0.3688
14755TIP3   OH265755   1.664   6.316  15.986  0.4024  0.0154 -0.1095
14755TIP3    H165756   1.674   6.288  15.894  0.7393 -0.6008  0.1100
14755TIP3    H265757   1.714   6.251  16.036 -0.0894  0.1369  0.5452
14756TIP3   OH265758   0.228   5.156  16.339 -0.3298 -0.7511 -0.2190
14756TIP3    H165759   0.292   5.100  16.294  1.1138 -1.0726  2.0460
14756TIP3    H265760   0.267   5.244  16.335 -1.2481 -0.3657 -1.3756
14757TIP3   OH265761   0.830   3.585  16.197 -0.0791  0.4059 -0.0808
14757TIP3    H165762   0.785   3.662  16.164 -2.5064 -1.2278 -0.8489
14757TIP3    H265763   0.775   3.553  16.269  1.5384  0.0683  1.0620
14758TIP3   OH265764   5.196   5.803   6.396  0.2714 -0.4639  0.8900
14758TIP3    H165765   5.145   5.724   6.409 -2.1115  0.7155 -0.6032
14758TIP3    H265766   5.155   5.847   6.322  2.2306  1.6131  0.9031
14759TIP3   OH265767   2.564   5.140   1.440  0.1696  0.0588  0.1069
14759TIP3    H165768   2.543   5.050   1.467  0.7452  0.6560  2.8618
14759TIP3    H265769   2.653   5.134   1.403 -0.2973 -0.6672 -0.9489
14760TIP3   OH265770   1.988   1.308  12.602 -0.9749 -0.1303 -0.3567
14760TIP3    H165771   1.925   1.348  12.662 -0.9755 -0.4090 -0.1712
14760TIP3    H265772   1.936   1.285  12.525 -1.2268 -0.8912  0.0250
14761TIP3   OH265773   6.573   1.321   2.903 -0.0410 -0.6103 -0.4564
14761TIP3    H165774   6.618   1.357   2.827 -0.9072 -0.2323 -0.8043
14761TIP3    H265775   6.483   1.353   2.896 -0.3260 -1.1791  0.3261
14762TIP3   OH265776   4.150   0.724  17.005  0.3901 -0.4353 -0.1854
14762TIP3    H165777   4.206   0.646  16.994  0.0917 -0.9106  1.4203
14762TIP3    H265778   4.106   0.733  16.920  1.9132 -0.8132 -1.0723
14763TIP3   OH265779   3.767   5.312   0.219  0.1428  0.9347 -0.0279
14763TIP3    H165780   3.832   5.258   0.176  1.0970  1.5937  0.5286
14763TIP3    H265781   3.708   5.340   0.149 -0.8990 -1.4643 -0.2027
14764TIP3   OH265782   4.194   1.260  14.551 -0.0111 -0.0086 -0.4810
14764TIP3    H165783   4.158   1.318  14.619  0.0378 -0.6440  0.0942
14764TIP3    H265784   4.288   1.258  14.568  0.1877  0.8578 -1.3755
14765TIP3   OH265785   3.625   0.715   2.266  0.9867 -0.2229  0.2118
14765TIP3    H165786   3.712   0.754   2.267  0.3266  1.3153 -0.0604
14765TIP3    H265787   3.632   0.639   2.323  2.9830 -1.2263 -1.2373
14766TIP3   OH265788   5.784   5.261  16.077  0.5489 -0.6363  0.0264
14766TIP3    H165789   5.719   5.193  16.094 -0.8094  0.4327 -0.6389
14766TIP3    H265790   5.867   5.214  16.071  0.2546 -1.8166  3.1577
14767TIP3   OH265791   0.829   4.350  11.566 -0.1240 -0.2945  0.0445
14767TIP3    H165792   0.860   4.409  11.497  0.9468 -1.7177 -0.7602
14767TIP3    H265793   0.735   4.367  11.573 -0.1157  0.3836 -1.2760
14768TIP3   OH265794   1.742   3.810  11.859 -0.3535  0.0083 -0.7145
14768TIP3    H165795   1.825   3.782  11.898 -0.3327 -0.1675 -0.8843
14768TIP3    H265796   1.724   3.895  11.900 -0.5395 -0.3615 -0.0222
14769TIP3   OH265797   6.049   0.279  12.225  0.3513  0.3679  0.4115
14769TIP3    H165798   6.056   0.374  12.216  2.5940  0.1874 -0.6779
14769TIP3    H265799   6.060   0.263  12.318 -0.2064  1.1867  0.6301
14770TIP3   OH265800   0.644   3.846  14.259 -0.1336  0.3407  0.6723
14770TIP3    H165801   0.646   3.751  14.259  3.0106  0.3198  1.2036
14770TIP3    H265802   0.586   3.869  14.332 -1.6257 -1.0821  0.0094
14771TIP3   OH265803   1.911   3.250   2.808 -0.2048 -0.4698  0.4720
14771TIP3    H165804   1.950   3.253   2.895  1.4387 -0.0816 -0.2431
14771TIP3    H265805   1.973   3.297   2.752 -1.5885 -0.0557 -0.7852
14772TIP3   OH265806   1.512   0.650  14.370 -0.4494 -0.2832 -0.2137
14772TIP3    H165807   1.549   0.735  14.394 -0.8395 -0.4887  1.2339
14772TIP3    H265808   1.587   0.591  14.368 -0.5971 -0.8659  3.4758
14773TIP3   OH265809   6.688   5.875  12.817 -0.4044  0.4163 -0.2372
14773TIP3    H165810   6.652   5.808  12.875  1.2581 -0.2209  0.1103
14773TIP3    H265811   6.639   5.866  12.736 -0.4128 -1.0367 -0.0874
14774TIP3   OH265812   1.029   1.025  15.163 -0.1494 -0.2884  0.0248
14774TIP3    H165813   1.080   0.960  15.211  1.2872  0.0414 -0.9604
14774TIP3    H265814   1.094   1.068  15.105 -1.1844  1.4912  0.1020
14775TIP3   OH265815   3.148   5.287   5.505 -0.2668 -0.2937 -0.4937
14775TIP3    H165816   3.099   5.365   5.534  0.4117  0.1496 -0.5088
14775TIP3    H265817   3.117   5.271   5.416  0.8986  1.0840 -1.1907
14776TIP3   OH265818   0.622   2.470   0.715  0.3167  0.0917  0.1156
14776TIP3    H165819   0.536   2.503   0.740  1.0933  1.9731  0.5226
14776TIP3    H265820   0.675   2.549   0.704  1.8176 -0.9944 -0.7795
14777TIP3   OH265821   4.189   0.660   2.198 -0.6112  0.0349 -0.1882
14777TIP3    H165822   4.124   0.601   2.238 -0.8088 -0.2739 -0.9448
14777TIP3    H265823   4.217   0.614   2.119 -1.8286  1.5734 -1.5687
14778TIP3   OH265824   0.793   1.412   6.681  0.1245  0.8237 -0.5015
14778TIP3    H165825   0.712   1.377   6.646 -0.3669  1.4328 -0.0152
14778TIP3    H265826   0.774   1.505   6.696  0.9308  0.9876 -0.4394
14779TIP3   OH265827   1.272   2.211  11.583 -0.7774 -0.3627 -0.3881
14779TIP3    H165828   1.304   2.215  11.673  0.0478 -0.0900 -0.6782
14779TIP3    H265829   1.187   2.255  11.585 -0.2743  0.6293  0.0568
14780TIP3   OH265830   5.245   3.596   0.086  0.0292  0.2533  0.0965
14780TIP3    H165831   5.177   3.619   0.149 -0.6829 -0.5560 -0.3590
14780TIP3    H265832   5.293   3.523   0.127 -0.3467 -0.1810 -0.2296
14781TIP3   OH265833   1.830   3.223  13.180  0.2741 -0.3590  0.2892
14781TIP3    H165834   1.757   3.286  13.180  0.4049 -0.1422 -1.9286
14781TIP3    H265835   1.894   3.262  13.239 -0.2771  0.8282  0.1430
14782TIP3   OH265836   5.941   0.240   4.926 -0.2052 -0.1636 -0.8430
14782TIP3    H165837   5.883   0.306   4.964 -1.0266 -0.2109 -1.9659
14782TIP3    H265838   6.022   0.286   4.906  0.0277 -0.0110  0.4017
14783TIP3   OH265839   5.897   2.668  12.556  0.4188  0.4682 -0.1485
14783TIP3    H165840   5.937   2.750  12.527  0.5298  0.3474 -0.3390
14783TIP3    H265841   5.872   2.624  12.475  0.5147  0.2350 -0.0509
14784TIP3   OH265842   4.137   3.301  16.682  0.0155  0.6433  0.5587
14784TIP3    H165843   4.217   3.256  16.657 -0.9052 -1.1167  0.6004
14784TIP3    H265844   4.152   3.393  16.658  2.1515  0.4290  0.9158
14785TIP3   OH265845   1.732   3.872   0.418 -0.1932  0.5752  0.1069
14785TIP3    H165846   1.823   3.848   0.431 -0.3216 -1.1959 -1.8022
14785TIP3    H265847   1.682   3.798   0.451 -0.8205  0.4704 -0.9978
14786TIP3   OH265848   5.004   0.366   4.578  0.2875 -0.4999  0.3817
14786TIP3    H165849   5.071   0.308   4.614  0.2423  0.1157  1.5259
14786TIP3    H265850   5.027   0.453   4.611 -0.4587 -0.0980 -0.1100
14787TIP3   OH265851   6.468   3.861   1.703 -0.1264  0.1470 -0.4142
14787TIP3    H165852   6.375   3.837   1.710 -0.0263 -0.0688  0.2631
14787TIP3    H265853   6.472   3.950   1.738 -0.3597  0.8767 -2.1394
14788TIP3   OH265854   1.939   1.169  14.227  0.1854  0.1775  0.0993
14788TIP3    H165855   1.926   1.081  14.193 -0.4406  0.2366  0.1737
14788TIP3    H265856   1.948   1.156  14.322  0.9901  0.1108  0.0267
14789TIP3   OH265857   5.997   3.345   5.120  0.0888 -0.0209  0.1005
14789TIP3    H165858   5.945   3.374   5.045 -0.0394  0.3247  0.3223
14789TIP3    H265859   6.080   3.317   5.081  0.3546  0.9900 -0.0850
14790TIP3   OH265860   4.617   1.837   5.324  0.3313  0.2918 -0.3166
14790TIP3    H165861   4.522   1.832   5.312  0.5528 -1.8625 -1.6046
14790TIP3    H265862   4.654   1.787   5.251  2.5348  1.8223 -0.3731
14791TIP3   OH265863   0.027   5.951  14.008 -0.0866 -0.5427 -0.8502
14791TIP3    H165864  -0.006   6.038  14.029  1.2523 -0.0698 -0.6307
14791TIP3    H265865  -0.033   5.891  14.053  0.7133  0.3551  1.5848
14792TIP3   OH265866   6.388   0.668   4.085 -0.3471 -0.6456 -0.2376
14792TIP3    H165867   6.301   0.660   4.124 -0.9626  1.0628 -1.1817
14792TIP3    H265868   6.437   0.722   4.147 -1.0449  1.2864 -1.2911
14793TIP3   OH265869   6.806   5.651  12.497 -0.0858 -0.2178 -0.3065
14793TIP3    H165870   6.855   5.732  12.515 -1.4899  0.2165  1.8456
14793TIP3    H265871   6.822   5.595  12.573 -2.5452 -0.2147  0.2929
14794TIP3   OH265872   0.808   5.472  14.345  0.2078  0.2423 -0.1369
14794TIP3    H165873   0.854   5.528  14.408 -0.4051  1.2500 -0.5603
14794TIP3    H265874   0.877   5.416  14.308  0.4380 -1.1250  2.1389
14795TIP3   OH265875   0.859   2.478  10.665  0.0179 -0.2269  0.0658
14795TIP3    H165876   0.859   2.457  10.571 -0.5850  0.5664 -0.1280
14795TIP3    H265877   0.801   2.413  10.705  1.0142 -1.1564  0.0478
14796TIP3   OH265878   4.949   3.990   2.850  0.2196  0.1043 -0.3637
14796TIP3    H165879   5.033   3.982   2.896 -0.0732  0.9240  0.3438
14796TIP3    H265880   4.972   3.978   2.758  0.8668 -1.2508 -0.0525
14797TIP3   OH265881   2.847   2.128  11.107  0.0545  0.7174  0.2592
14797TIP3    H165882   2.843   2.080  11.024  0.3634 -0.5017  0.9197
14797TIP3    H265883   2.934   2.167  11.108  0.3353  0.1104  0.3201
14798TIP3   OH265884   1.526   3.784  15.169  0.3022  0.0446 -0.0415
14798TIP3    H165885   1.594   3.782  15.237  0.4890  0.4312 -0.2138
14798TIP3    H265886   1.571   3.757  15.089 -0.1765 -1.5214  0.1955
14799TIP3   OH265887   5.122   0.617   5.396 -0.4053  0.3231  0.1357
14799TIP3    H165888   5.190   0.680   5.373 -0.1277 -0.1862 -0.5122
14799TIP3    H265889   5.147   0.585   5.483  1.2761 -1.2212 -0.8302
14800TIP3   OH265890   2.474   0.391   4.140 -0.2864 -0.3528 -0.1353
14800TIP3    H165891   2.454   0.362   4.229 -0.4781 -1.1862 -0.4466
14800TIP3    H265892   2.565   0.420   4.144 -0.9367  1.7898  0.8677
14801TIP3   OH265893   0.826   4.363   1.183 -0.0685 -0.4787  0.1632
14801TIP3    H165894   0.885   4.437   1.190  0.0947 -0.7106  1.4626
14801TIP3    H265895   0.739   4.402   1.179  0.1340 -0.1273 -1.9617
14802TIP3   OH265896   2.820   6.121  13.309 -1.0208  0.3649 -0.5758
14802TIP3    H165897   2.842   6.064  13.235  0.6148  0.1620  0.0133
14802TIP3    H265898   2.768   6.191  13.271 -1.1723 -0.3370 -1.7151
14803TIP3   OH265899   4.903   5.649  10.718  0.3011 -0.1437  0.1190
14803TIP3    H165900   4.941   5.582  10.661 -0.2709 -0.3848  0.0192
14803TIP3    H265901   4.837   5.692  10.663 -1.4347 -1.4630  1.0820
14804TIP3   OH265902   6.608   1.214   3.328 -0.0352 -0.2147 -0.6699
14804TIP3    H165903   6.513   1.209   3.314 -0.4099  1.6930  0.6776
14804TIP3    H265904   6.643   1.246   3.246 -0.9588  1.7612 -0.3507
14805TIP3   OH265905   1.149   1.248   4.388 -0.2880 -0.1935 -0.4299
14805TIP3    H165906   1.216   1.313   4.407 -1.3196  0.7786  0.0053
14805TIP3    H265907   1.112   1.226   4.473 -2.3081  1.3024 -0.8358
14806TIP3   OH265908   6.216   2.223  13.275 -0.1637  0.0969  0.1236
14806TIP3    H165909   6.149   2.187  13.334 -0.9188  4.2137  2.1321
14806TIP3    H265910   6.299   2.206  13.320 -0.4905  0.7787  1.0035
14807TIP3   OH265911   3.241   0.672   2.018  0.5789 -0.2716  0.5640
14807TIP3    H165912   3.192   0.671   1.935 -0.2240  0.9140  1.0005
14807TIP3    H265913   3.176   0.650   2.085  0.9165  0.1206  1.0285
14808TIP3   OH265914   1.943   0.143   1.904  0.2273  0.5257  0.0903
14808TIP3    H165915   1.934   0.087   1.827  0.2465  1.9317 -0.9768
14808TIP3    H265916   1.916   0.230   1.874 -1.8561  0.7288  2.2162
14809TIP3   OH265917   0.646   6.148   0.535  0.1139  0.3831 -0.0081
14809TIP3    H165918   0.567   6.096   0.524  1.0993 -1.2783  0.3992
14809TIP3    H265919   0.717   6.089   0.512  1.3590  1.1727  1.6041
14810TIP3   OH265920   3.868   6.019  13.818 -0.1914  0.4123  0.0865
14810TIP3    H165921   3.902   5.961  13.750 -2.6067 -1.3812  0.2700
14810TIP3    H265922   3.827   5.961  13.882 -0.4277  2.2041  1.6706
14811TIP3   OH265923   5.425   4.902   1.540  0.3180  0.0309  0.8213
14811TIP3    H165924   5.355   4.837   1.536  1.8910 -1.9205  2.5682
14811TIP3    H265925   5.395   4.965   1.605 -0.6445  0.3800  0.0768
14812TIP3   OH265926   1.117   6.186   2.749  0.3815  0.3883  0.2390
14812TIP3    H165927   1.113   6.094   2.725  0.5880  0.1065  1.2354
14812TIP3    H265928   1.209   6.209   2.740  0.6679 -0.0182  1.7211
14813TIP3   OH265929   6.475   3.728   5.199  0.4752 -0.1635 -0.1588
14813TIP3    H165930   6.465   3.717   5.294 -0.8290 -0.6916 -0.3321
14813TIP3    H265931   6.530   3.654   5.172 -1.9111 -2.0504 -0.2309
14814TIP3   OH265932   4.396   4.542  13.633 -0.6548  0.4956  0.4668
14814TIP3    H165933   4.371   4.491  13.555 -0.1805  0.4241  0.3631
14814TIP3    H265934   4.486   4.570  13.617 -0.6501  0.7224  0.8654
14815TIP3   OH265935   4.862   6.737   1.286 -0.0831 -0.2285 -0.3428
14815TIP3    H165936   4.787   6.797   1.294  0.4102  0.2685  0.8366
14815TIP3    H265937   4.867   6.693   1.371  1.3668  0.2629 -0.1340
14816TIP3   OH265938   3.981   0.983  14.198 -0.0564 -0.0846 -0.0440
14816TIP3    H165939   4.042   0.951  14.264 -0.2889 -1.4626 -0.4731
14816TIP3    H265940   4.019   1.067  14.170  0.4186  0.1732  1.3033
14817TIP3   OH265941   5.508   3.941   3.267 -1.0017 -0.3831 -0.8826
14817TIP3    H165942   5.563   3.864   3.284 -0.2371  0.2840 -0.2833
14817TIP3    H265943   5.437   3.933   3.330  0.8409  1.1051  1.5633
14818TIP3   OH265944   0.818   0.765  11.491  0.6471 -0.2988 -0.1473
14818TIP3    H165945   0.778   0.840  11.446  0.4785 -1.1915 -1.5592
14818TIP3    H265946   0.744   0.722  11.534  0.6815  0.1242  0.3366
14819TIP3   OH265947   4.801   2.579   3.319 -0.4992  0.0686 -0.3074
14819TIP3    H165948   4.733   2.512   3.312 -0.6812  0.2558 -0.3416
14819TIP3    H265949   4.752   2.662   3.322 -0.2224  0.4593 -3.4407
14820TIP3   OH265950   0.298   0.732   5.686  0.6452 -0.2566 -0.3753
14820TIP3    H165951   0.392   0.749   5.684  0.9519 -1.7609 -0.1162
14820TIP3    H265952   0.273   0.743   5.778  0.3429  1.1420 -0.6039
14821TIP3   OH265953   3.133   6.830  14.923  0.0609 -0.0033  0.2749
14821TIP3    H165954   3.130   6.777  15.002 -1.4126 -1.5145 -0.7200
14821TIP3    H265955   3.222   6.819  14.890 -0.4665 -2.8586 -0.4670
14822TIP3   OH265956   3.048   1.851  12.687 -0.1804 -0.4350 -0.4939
14822TIP3    H165957   2.969   1.898  12.715  0.2949  1.4872 -2.1648
14822TIP3    H265958   3.016   1.771  12.646 -1.0273 -1.5821  2.1803
14823TIP3   OH265959   4.042   3.656   4.813  0.0216 -0.0031 -0.2755
14823TIP3    H165960   3.974   3.615   4.867  1.2843 -1.7750  0.0586
14823TIP3    H265961   4.105   3.690   4.877  1.4326 -1.9484 -0.5462
14824TIP3   OH265962   4.652   6.333   5.372  0.8091  0.0988 -0.1104
14824TIP3    H165963   4.652   6.405   5.435  0.6672 -1.0842  1.3012
14824TIP3    H265964   4.559   6.315   5.355  0.8491  0.9611 -1.3411
14825TIP3   OH265965   1.783   6.323   5.584 -0.1290  0.6166 -0.4006
14825TIP3    H165966   1.759   6.259   5.651 -0.4307  0.5154 -0.6042
14825TIP3    H265967   1.807   6.269   5.508  1.1371  0.6944 -0.0828
14826TIP3   OH265968   3.007   1.941   3.341 -0.3316 -0.3562  0.2088
14826TIP3    H165969   2.931   1.897   3.378 -0.6057 -0.4799 -0.4775
14826TIP3    H265970   3.029   1.889   3.263 -0.1967  0.2834 -0.1895
14827TIP3   OH265971   5.731   1.742   0.048 -0.0736  0.3602  0.7340
14827TIP3    H165972   5.660   1.714   0.106 -0.5592  0.0962  0.0218
14827TIP3    H265973   5.771   1.660   0.018  0.1097  0.4949  0.6087
14828TIP3   OH265974   3.571   1.498  12.058 -0.6193  0.1260  0.0408
14828TIP3    H165975   3.591   1.549  12.137 -0.5463  0.7872 -0.3934
14828TIP3    H265976   3.512   1.429  12.088  1.6611 -1.4522  1.2579
14829TIP3   OH265977   3.556   1.307  13.877  0.6705  0.3865 -0.0741
14829TIP3    H165978   3.463   1.289  13.881  0.6473 -0.3559 -2.5990
14829TIP3    H265979   3.566   1.371  13.806  2.0737  0.4807  0.1642
14830TIP3   OH265980   5.556   5.475  13.037  0.4875  0.1813 -0.3063
14830TIP3    H165981   5.553   5.518  13.122  3.1433  1.3571 -0.7019
14830TIP3    H265982   5.520   5.388  13.053 -0.3933  0.8436  1.6611
14831TIP3   OH265983   0.788   5.173  13.598  0.1313  0.3599 -0.0311
14831TIP3    H165984   0.777   5.079  13.601  0.1756  0.3826  1.1356
14831TIP3    H265985   0.875   5.188  13.635  1.1875  0.7030 -2.4501
14832TIP3   OH265986   1.647   6.730  11.100  0.1511 -0.1699 -0.0261
14832TIP3    H165987   1.666   6.784  11.178 -0.5538  1.2280 -0.7906
14832TIP3    H265988   1.687   6.778  11.028  2.9244 -2.6400 -0.3287
14833TIP3   OH265989   1.635   4.389   3.658 -0.4855  0.0542  0.2629
14833TIP3    H165990   1.651   4.435   3.576 -0.4894  0.4168  0.4609
14833TIP3    H265991   1.722   4.358   3.686 -0.3762  0.5474  0.4796
14834TIP3   OH265992   0.975   0.153  14.827 -0.3395  0.1699 -0.0941
14834TIP3    H165993   1.039   0.112  14.886 -0.6201 -0.5731 -0.3012
14834TIP3    H265994   1.027   0.177  14.750 -0.3094 -0.4833 -0.2859
14835TIP3   OH265995   4.253   4.782   1.527 -0.2214 -0.1802 -0.0871
14835TIP3    H165996   4.273   4.845   1.457 -0.9841  0.3340  0.1501
14835TIP3    H265997   4.165   4.752   1.508 -0.3597 -0.1819  0.5461
14836TIP3   OH265998   1.087   4.793   2.037  0.6976  0.1651 -0.3513
14836TIP3    H165999   0.997   4.798   2.007  0.3393  1.4222  0.7888
14836TIP3    H266000   1.099   4.702   2.064 -0.7462  0.3036  0.8935
14837TIP3   OH266001   2.935   0.210  14.294 -0.5113 -0.1616 -0.1655
14837TIP3    H166002   2.960   0.130  14.247 -2.0416 -0.7194 -0.0647
14837TIP3    H266003   2.911   0.272  14.224 -0.8813 -0.3346 -0.1950
14838TIP3   OH266004   5.591   0.391  17.010  0.0981 -0.4408 -0.2172
14838TIP3    H166005   5.499   0.367  17.016  0.0358  0.0639  1.1132
14838TIP3    H266006   5.628   0.327  16.949 -0.7272 -1.8805  0.7165
14839TIP3   OH266007   6.405   1.236  12.436 -0.4224  0.4156  0.3784
14839TIP3    H166008   6.320   1.204  12.468 -0.1520 -0.4862  0.2254
14839TIP3    H266009   6.413   1.324  12.473 -1.4309  0.5168  0.3831
14840TIP3   OH266010   5.333   0.624   0.522  0.2129 -0.0899 -0.3636
14840TIP3    H166011   5.385   0.673   0.459 -0.6810  1.8252  0.3121
14840TIP3    H266012   5.340   0.673   0.604 -1.2357 -0.7158  0.1834
14841TIP3   OH266013   0.399   5.719  10.738  0.0187  0.0541  0.2369
14841TIP3    H166014   0.429   5.671  10.661  1.2497  0.1269  0.6479
14841TIP3    H266015   0.475   5.769  10.767 -0.3630 -0.1159  1.6092
14842TIP3   OH266016   0.096   4.898  13.134 -0.0928  0.3541 -0.6937
14842TIP3    H166017   0.093   4.992  13.148  0.1030  0.2348  0.2279
14842TIP3    H266018   0.074   4.860  13.219  0.5037 -0.4352 -0.8771
14843TIP3   OH266019   4.947   5.738  12.413  0.0544  0.0240 -0.2534
14843TIP3    H166020   4.955   5.684  12.334 -0.3895 -3.1505  1.6722
14843TIP3    H266021   4.965   5.677  12.485 -0.4369  2.5398  2.1560
14844TIP3   OH266022   2.388   3.765  13.529 -0.0370  1.0193 -0.3176
14844TIP3    H166023   2.405   3.789  13.438  1.5553 -0.9684 -0.6165
14844TIP3    H266024   2.362   3.846  13.571 -0.7985  1.9872 -2.5380
14845TIP3   OH266025   1.735   3.485  14.008  0.1388 -0.6363 -0.2905
14845TIP3    H166026   1.804   3.525  13.956  0.1735  0.4247  0.5450
14845TIP3    H266027   1.660   3.543  13.997  0.3736  0.0663  1.4437
14846TIP3   OH266028   4.561   3.957   4.721  0.4283 -0.2113  0.1760
14846TIP3    H166029   4.538   4.019   4.652  0.0739 -0.2541  0.2567
14846TIP3    H266030   4.552   4.007   4.802 -2.4843 -1.0758  0.4790
14847TIP3   OH266031   4.107   2.504   0.151 -1.4593  0.2756 -0.0205
14847TIP3    H166032   4.107   2.409   0.151  0.6828  0.2124 -0.7344
14847TIP3    H266033   4.090   2.529   0.060 -1.5587  0.5486  0.0704
14848TIP3   OH266034   5.997   6.606   3.628  0.6944 -0.3601 -0.0392
14848TIP3    H166035   5.966   6.532   3.680  0.9234  0.2805  1.0415
14848TIP3    H266036   5.929   6.672   3.637  0.8261 -0.1721 -0.4012
14849TIP3   OH266037   0.162   0.652  13.276  0.0209  0.4093 -0.2937
14849TIP3    H166038   0.249   0.615  13.265 -1.0436 -1.8622 -1.9667
14849TIP3    H266039   0.136   0.626  13.365  0.2216 -0.8841 -0.5913
14850TIP3   OH266040   4.336   3.382  16.400  0.4333 -0.4103  0.0883
14850TIP3    H166041   4.274   3.432  16.452  1.1879 -0.3884  0.9969
14850TIP3    H266042   4.342   3.430  16.317 -0.5157 -0.2503  0.1022
14851TIP3   OH266043   6.028   3.381  12.488  0.0016 -0.6096 -0.4666
14851TIP3    H166044   6.058   3.292  12.507  0.2146 -0.7963 -1.6035
14851TIP3    H266045   5.960   3.370  12.421 -0.7104  0.0154  0.1353
14852TIP3   OH266046   0.266   4.108  16.401  0.1087 -0.4852  0.4988
14852TIP3    H166047   0.298   4.171  16.466 -0.0539  0.8225 -0.6323
14852TIP3    H266048   0.171   4.107  16.415 -0.0928  0.8240 -0.5371
14853TIP3   OH266049   2.205   0.264  11.144 -0.5854 -0.4967 -0.5367
14853TIP3    H166050   2.250   0.287  11.225  0.4244 -1.7751 -0.6948
14853TIP3    H266051   2.129   0.214  11.172  0.2719 -1.7569 -0.3767
14854TIP3   OH266052   0.545   6.288  10.978  0.0371 -0.2882 -0.3120
14854TIP3    H166053   0.477   6.352  11.001 -0.4966 -1.1615  0.6772
14854TIP3    H266054   0.612   6.299  11.046 -0.3859 -1.2116  0.2902
14855TIP3   OH266055   1.269   2.196  13.130 -0.5191  0.6149  0.1269
14855TIP3    H166056   1.270   2.140  13.208  0.3872  1.3327  0.6619
14855TIP3    H266057   1.354   2.182  13.090 -1.5558 -0.9625 -1.6828
14856TIP3   OH266058   4.087   0.792  14.001 -0.5576  0.0840 -0.7403
14856TIP3    H166059   4.130   0.798  14.087  0.1719  1.5193 -1.1846
14856TIP3    H266060   4.081   0.697  13.985  0.3480 -0.1910  0.3736
14857TIP3   OH266061   4.076   0.976   4.107 -0.1527  0.4019  0.2907
14857TIP3    H166062   4.137   0.910   4.143 -0.8418 -1.1651 -1.2532
14857TIP3    H266063   4.132   1.034   4.056  0.0741 -1.4881 -1.7727
14858TIP3   OH266064   1.822   0.030   3.453  0.1305  0.0514  0.1808
14858TIP3    H166065   1.807   0.025   3.547 -1.2213 -0.0432 -0.0186
14858TIP3    H266066   1.889   0.098   3.443 -1.7074  2.1019  1.0484
14859TIP3   OH266067   0.797   6.073   4.129 -0.4206  0.0709 -0.7477
14859TIP3    H166068   0.766   5.999   4.182 -2.4768 -0.1802 -2.2309
14859TIP3    H266069   0.827   6.033   4.047 -0.1366  0.7573 -0.9857
14860TIP3   OH266070   4.164   2.569  12.350 -0.0831 -0.0398 -0.0426
14860TIP3    H166071   4.250   2.564  12.390 -1.3891 -0.1604  3.0408
14860TIP3    H266072   4.118   2.490  12.380 -2.2777  1.5865  1.2172
14861TIP3   OH266073   5.870   1.313  13.937  0.0987  0.3517 -0.3960
14861TIP3    H166074   5.785   1.279  13.964  1.4834 -2.0999  1.3038
14861TIP3    H266075   5.889   1.267  13.855  1.3598 -2.1657  1.1918
14862TIP3   OH266076   3.680   4.612   4.635 -0.0594 -0.3207  0.0397
14862TIP3    H166077   3.681   4.702   4.668 -1.7286 -0.4744  0.6097
14862TIP3    H266078   3.663   4.558   4.713 -2.0121 -0.8683 -0.7080
14863TIP3   OH266079   2.026   6.058  13.990 -0.2178  0.2077 -0.1820
14863TIP3    H166080   2.115   6.058  13.955 -0.1134 -0.9014  0.0444
14863TIP3    H266081   2.021   5.978  14.042 -1.3609  0.2387 -0.2205
14864TIP3   OH266082   1.463   2.033  12.316 -0.4049  0.5022  0.1587
14864TIP3    H166083   1.490   2.011  12.405 -3.3227 -0.4610  0.9126
14864TIP3    H266084   1.464   2.128  12.313  1.4159  0.5312  0.6052
14865TIP3   OH266085   3.036   4.473  15.918 -0.7032 -0.1881 -0.6405
14865TIP3    H166086   3.099   4.501  15.851 -2.7755  2.5208 -1.6617
14865TIP3    H266087   3.008   4.555  15.959 -1.6639 -1.5424  1.5473
14866TIP3   OH266088   0.264   2.162  13.601  0.1698 -0.8394  0.3334
14866TIP3    H166089   0.222   2.194  13.680  1.1100  0.8880  0.1817
14866TIP3    H266090   0.275   2.240  13.546 -0.5482 -1.9861 -1.5671
14867TIP3   OH266091   5.520   4.682  16.190  0.3628  0.1145 -0.4579
14867TIP3    H166092   5.483   4.766  16.215 -0.3596 -0.1317 -0.6625
14867TIP3    H266093   5.595   4.670  16.248 -0.1850  0.3974  0.3268
14868TIP3   OH266094   2.971   3.497  15.489 -0.3747 -0.4273 -0.5339
14868TIP3    H166095   2.945   3.482  15.580 -0.4522 -0.5070 -0.5684
14868TIP3    H266096   2.988   3.591  15.483 -1.9495 -0.1470 -0.8507
14869TIP3   OH266097   5.618   0.918  15.277 -0.3218 -0.2627  0.2046
14869TIP3    H166098   5.615   1.013  15.267 -1.2298 -0.4889 -2.2702
14869TIP3    H266099   5.593   0.884  15.192  1.2101 -2.7530  0.6452
14870TIP3   OH266100   3.415   5.283  16.149 -0.2649  0.3306 -0.1003
14870TIP3    H166101   3.423   5.197  16.189 -0.1706  0.1880 -0.4247
14870TIP3    H266102   3.341   5.275  16.089 -0.6690  0.6626  0.3525
14871TIP3   OH266103   5.177   1.312  14.115  0.2445  0.3430  0.1476
14871TIP3    H166104   5.256   1.354  14.080 -0.1668  0.7996 -0.2570
14871TIP3    H266105   5.193   1.218  14.104 -0.1388  0.4690 -1.9432
14872TIP3   OH266106   3.929   0.595   3.282  0.0486 -0.6115 -0.1885
14872TIP3    H166107   3.871   0.646   3.338  1.8355  0.3252  0.8865
14872TIP3    H266108   3.927   0.507   3.319  2.4501  0.3299  2.4948
14873TIP3   OH266109   1.549   1.479   3.263  0.3335 -0.6109 -0.1705
14873TIP3    H166110   1.479   1.507   3.204 -1.7935  0.4070  2.6113
14873TIP3    H266111   1.539   1.535   3.340  3.6845 -1.0657  0.7626
14874TIP3   OH266112   5.111   0.930  16.438 -0.4498 -0.0592  0.5542
14874TIP3    H166113   5.156   0.849  16.415 -0.0341  0.7508 -1.7009
14874TIP3    H266114   5.180   0.995  16.447 -0.9923  1.1333 -2.6730
14875TIP3   OH266115   4.034   5.264  13.909 -0.4834  0.6079 -0.4049
14875TIP3    H166116   3.957   5.208  13.922  0.2282 -0.0058  1.4585
14875TIP3    H266117   3.997   5.349  13.885 -1.7373  0.2676  0.2192
14876TIP3   OH266118   4.031   1.127  15.232  0.2269 -0.1787  0.4530
14876TIP3    H166119   4.074   1.041  15.234  0.8757  0.1034 -0.6095
14876TIP3    H266120   4.091   1.184  15.281 -0.4020 -0.4021  1.5092
14877TIP3   OH266121   3.649   0.236   3.852 -0.0768 -0.5616  0.5718
14877TIP3    H166122   3.598   0.177   3.907 -1.6064  0.6967  0.5669
14877TIP3    H266123   3.662   0.314   3.906  0.9432 -0.4503  0.1853
14878TIP3   OH266124   5.644   5.866   0.502 -0.4139  0.2330  0.0197
14878TIP3    H166125   5.671   5.953   0.532  1.0542 -0.0087 -0.5508
14878TIP3    H266126   5.628   5.878   0.408 -3.2082  0.5604  0.4381
14879TIP3   OH266127   3.631   6.060   2.600  0.6398 -0.0876  0.4350
14879TIP3    H166128   3.637   5.979   2.549 -0.3830  0.7857 -1.1750
14879TIP3    H266129   3.642   6.130   2.536 -0.1984  1.0662  1.4867
14880TIP3   OH266130   5.148   0.696   2.765 -0.6528  0.5000  0.1800
14880TIP3    H166131   5.194   0.778   2.748  1.1571 -0.4244  0.3943
14880TIP3    H266132   5.149   0.650   2.681 -0.0045 -0.0733  0.4907
14881TIP3   OH266133   0.343   5.063  12.513 -0.4599  0.0003 -0.1595
14881TIP3    H166134   0.396   5.032  12.440  1.7696 -0.5502  1.5625
14881TIP3    H266135   0.339   4.988  12.573 -0.5282  1.0284  1.1685
14882TIP3   OH266136   1.722   5.400   6.215 -0.6499  0.2533 -0.3600
14882TIP3    H166137   1.676   5.426   6.295 -0.2041 -0.6323  0.2056
14882TIP3    H266138   1.712   5.475   6.156 -1.8917  0.5030  0.1315
14883TIP3   OH266139   3.717   4.956  11.831 -0.5182  0.3262 -0.8798
14883TIP3    H166140   3.633   4.921  11.800 -1.5012  2.0701 -0.3271
14883TIP3    H266141   3.755   4.884  11.881 -1.7574 -0.4649 -1.0117
14884TIP3   OH266142   5.245   6.355  16.390 -0.3508  0.5249  0.0253
14884TIP3    H166143   5.191   6.398  16.456 -0.4151  1.3309 -0.5393
14884TIP3    H266144   5.329   6.399  16.396 -0.6364  1.2505 -1.0587
14885TIP3   OH266145   1.795   0.616  14.303  0.3827  0.4671  0.1522
14885TIP3    H166146   1.786   0.591  14.395  0.5485  1.4156  0.4421
14885TIP3    H266147   1.886   0.596  14.281 -0.0359 -1.1293 -0.2554
14886TIP3   OH266148   2.702   3.495  16.095 -0.7210  0.0016 -0.1117
14886TIP3    H166149   2.623   3.499  16.149  0.4565  0.7931  1.6422
14886TIP3    H266150   2.761   3.437  16.144  0.9426  1.9358  0.3190
14887TIP3   OH266151   2.329   5.526  15.811 -0.4529  0.1334 -0.3244
14887TIP3    H166152   2.269   5.480  15.869 -0.1450  0.3956  0.2024
14887TIP3    H266153   2.365   5.597  15.864  0.7295 -0.3452 -0.4736
14888TIP3   OH266154   0.748   1.496  17.004  0.5362  0.1334 -0.5978
14888TIP3    H166155   0.775   1.585  16.985  1.5893 -0.2654 -1.0477
14888TIP3    H266156   0.754   1.489  17.099 -0.9658  0.9639 -0.4230
14889TIP3   OH266157   4.287   3.877  12.729 -0.2110  0.4675  0.1251
14889TIP3    H166158   4.196   3.848  12.725 -0.4159  1.1017  0.2096
14889TIP3    H266159   4.334   3.802  12.768 -0.8470  0.5043  0.9736
14890TIP3   OH266160   0.105   6.244  13.497  0.3206  0.0251  0.3376
14890TIP3    H166161   0.146   6.300  13.563  1.7041 -1.9342  1.2374
14890TIP3    H266162   0.011   6.252  13.514  0.5491  1.2556  1.1066
14891TIP3   OH266163   4.596   6.798  11.782  0.1160  0.4063  0.2072
14891TIP3    H166164   4.612   6.763  11.870 -3.2344  0.9489  1.1941
14891TIP3    H266165   4.664   6.759  11.727  1.5943 -0.9062  2.8060
14892TIP3   OH266166   0.910   1.834  16.293  0.1028 -0.0996 -0.4186
14892TIP3    H166167   0.887   1.792  16.210 -0.8466 -1.1278  0.3392
14892TIP3    H266168   0.827   1.864  16.329  0.6052  1.1155 -0.2308
14893TIP3   OH266169   0.511   4.104   6.485 -0.2354  0.5479  0.1249
14893TIP3    H166170   0.503   4.044   6.558 -0.8386  1.0102  0.4496
14893TIP3    H266171   0.448   4.174   6.504  1.2349  1.8750  0.3442
14894TIP3   OH266172   0.420   4.856  13.618 -0.7531 -0.1980 -0.3722
14894TIP3    H166173   0.375   4.889  13.541 -1.8740 -0.2331  0.2443
14894TIP3    H266174   0.420   4.929  13.680  1.1734  0.2091 -0.8010
14895TIP3   OH266175   4.881   5.882   0.461  0.1762  0.0535  0.1341
14895TIP3    H166176   4.851   5.972   0.472  0.3512  0.0976  0.2568
14895TIP3    H266177   4.800   5.831   0.450  0.0778  0.2246  0.0632
14896TIP3   OH266178   4.031   0.516   3.692 -0.0181 -0.0969 -0.3530
14896TIP3    H166179   4.023   0.460   3.769  1.8846  0.2754  0.1521
14896TIP3    H266180   4.082   0.591   3.722 -2.5473  2.0301 -0.9618
14897TIP3   OH266181   6.274   4.672   6.293  0.1426 -0.4589 -0.1717
14897TIP3    H166182   6.242   4.616   6.364  1.4025 -0.6731  0.2600
14897TIP3    H266183   6.344   4.620   6.252  0.4963  0.3073 -0.5480
14898TIP3   OH266184   0.817   5.584  16.407  0.5316  0.7205  0.1692
14898TIP3    H166185   0.730   5.594  16.368  0.7166 -2.0644 -1.2050
14898TIP3    H266186   0.807   5.616  16.497 -0.9641  3.6315 -0.9177
14899TIP3   OH266187   2.130   0.823  13.760  0.1471  0.5372 -0.8809
14899TIP3    H166188   2.190   0.843  13.688 -1.6819 -0.1734 -2.7034
14899TIP3    H266189   2.137   0.728  13.772  1.1381  0.7637  0.5862
14900TIP3   OH266190   5.439   4.184   6.203  0.4945  0.0652  0.4476
14900TIP3    H166191   5.391   4.132   6.267 -0.1978 -2.0473 -1.6266
14900TIP3    H266192   5.486   4.120   6.150  0.1778  1.5556 -1.7991
14901TIP3   OH266193   2.555   0.888   2.563  0.4874  0.4897 -0.1401
14901TIP3    H166194   2.563   0.966   2.507  1.0009 -0.0177 -0.7864
14901TIP3    H266195   2.487   0.836   2.521  0.3476  0.4518  0.1317
14902TIP3   OH266196   3.327   1.039  16.148  0.5939  0.2631  0.3797
14902TIP3    H166197   3.333   1.107  16.080 -0.2849 -0.8945 -0.9086
14902TIP3    H266198   3.363   0.961  16.107 -0.2803 -0.5509  1.1314
14903TIP3   OH266199   2.749   3.706  10.916  0.0213 -0.3837  0.3406
14903TIP3    H166200   2.692   3.708  10.839  0.4299 -1.0419  0.0198
14903TIP3    H266201   2.765   3.798  10.936  0.4576 -0.2038 -0.7708
14904TIP3   OH266202   4.004   5.359  13.048  0.2378 -0.3726  0.0353
14904TIP3    H166203   3.985   5.266  13.048  0.4101 -0.4078 -0.2227
14904TIP3    H266204   4.068   5.371  12.978 -0.3432  0.0510 -0.4339
14905TIP3   OH266205   3.800   3.581  10.714 -0.4454  0.3210  0.2739
14905TIP3    H166206   3.840   3.504  10.674 -1.0053 -0.2216  0.7360
14905TIP3    H266207   3.725   3.547  10.763 -0.9360  1.2077  0.1668
14906TIP3   OH266208   2.043   4.786  15.174  0.4567  0.1069  0.3278
14906TIP3    H166209   2.081   4.863  15.215 -0.3889 -0.6530  2.7207
14906TIP3    H266210   1.976   4.820  15.115  3.2686  1.3526 -2.3907
14907TIP3   OH266211   2.794   0.667   0.864  0.0750 -0.8083 -0.4346
14907TIP3    H166212   2.822   0.716   0.942  3.5296  1.4148 -2.7806
14907TIP3    H266213   2.727   0.723   0.824 -0.9284 -1.4407  0.2977
14908TIP3   OH266214   1.743   4.264  10.595 -0.1183  0.8366 -0.3349
14908TIP3    H166215   1.712   4.265  10.686 -0.4076  1.3273 -0.4354
14908TIP3    H266216   1.835   4.290  10.601 -0.9830  4.4099 -0.4656
14909TIP3   OH266217   0.985   0.689   4.746 -0.0871  0.3317  0.3868
14909TIP3    H166218   0.933   0.653   4.818 -1.8855 -2.0276 -1.9126
14909TIP3    H266219   1.038   0.616   4.715  0.8061  1.3532 -0.6250
14910TIP3   OH266220   0.478   6.124   5.367 -0.2850  0.5397  0.0871
14910TIP3    H166221   0.453   6.194   5.427 -1.4689 -1.6732  2.3714
14910TIP3    H266222   0.570   6.105   5.388 -0.5214  0.1751  0.8284
14911TIP3   OH266223   0.953   2.259   4.630 -0.0204 -0.2679 -0.1517
14911TIP3    H166224   0.924   2.170   4.650 -0.9316  0.5530  2.6046
14911TIP3    H266225   0.877   2.302   4.591  0.7697 -0.9148 -2.6492
14912TIP3   OH266226   1.646   6.411   5.940  0.2987  0.5440 -0.1974
14912TIP3    H166227   1.654   6.438   6.031  0.0322 -0.9672  0.2993
14912TIP3    H266228   1.678   6.486   5.889  1.2097  1.0887  1.1478
14913TIP3   OH266229   0.598   1.679  16.458  0.1617  0.1873 -0.3411
14913TIP3    H166230   0.564   1.708  16.543 -0.4281  2.5341 -1.2972
14913TIP3    H266231   0.520   1.657  16.407  0.4025  0.4040 -0.8092
14914TIP3   OH266232   3.864   5.693   4.240 -0.3158 -0.1126  0.1230
14914TIP3    H166233   3.783   5.731   4.273 -2.0297 -1.5187 -2.2117
14914TIP3    H266234   3.892   5.752   4.170  0.0725 -0.2393  0.1657
14915TIP3   OH266235   0.910   6.569  15.875  0.0382  0.6326 -0.1786
14915TIP3    H166236   0.954   6.486  15.894 -0.2046  0.7479  0.9868
14915TIP3    H266237   0.962   6.634  15.921 -1.6797  0.6914  1.8391
14916TIP3   OH266238   4.344   0.695  11.892  0.4482  0.4112 -0.3399
14916TIP3    H166239   4.382   0.720  11.976  0.4480  0.9729 -0.5014
14916TIP3    H266240   4.262   0.744  11.887  0.9724  1.2494 -1.1472
14917TIP3   OH266241   0.057   5.459   0.694  0.4922  0.0772 -0.2477
14917TIP3    H166242   0.046   5.412   0.777  0.6166 -1.2630 -0.9582
14917TIP3    H266243   0.092   5.544   0.719 -0.6128  0.1558  1.1630
14918TIP3   OH266244   2.373   3.128   4.353  0.4774 -0.1776 -0.0399
14918TIP3    H166245   2.323   3.051   4.382 -2.9309  1.4014 -1.1889
14918TIP3    H266246   2.386   3.179   4.433 -0.2116 -0.4074  0.2289
14919TIP3   OH266247   4.342   5.606   4.904  0.3863  0.2824  0.0296
14919TIP3    H166248   4.420   5.552   4.911  0.8592  0.9444  0.0096
14919TIP3    H266249   4.299   5.577   4.824  0.7144  0.0349 -0.0573
14920TIP3   OH266250   3.275   1.716   3.098 -0.3503  0.3858 -0.2626
14920TIP3    H166251   3.352   1.751   3.143 -0.8823  2.7574 -1.0478
14920TIP3    H266252   3.305   1.696   3.010  0.2297 -2.4831  0.4621
14921TIP3   OH266253   4.906   5.966  12.051 -0.2083  0.4979 -0.5417
14921TIP3    H166254   4.868   5.907  11.987 -0.1107 -2.1170  1.6264
14921TIP3    H266255   4.846   6.041  12.054 -4.0272 -2.2935  0.9357
14922TIP3   OH266256   4.719   1.949  12.778  0.0534 -0.4528  0.5171
14922TIP3    H166257   4.711   1.950  12.683 -1.4347 -1.9539  0.5917
14922TIP3    H266258   4.814   1.950  12.794  0.3164  0.5197 -0.9302
14923TIP3   OH266259   2.804   1.995  12.706  0.2196  0.1505  0.2967
14923TIP3    H166260   2.765   1.930  12.764  0.2344 -0.4077 -0.3139
14923TIP3    H266261   2.745   2.070  12.711  0.6155  0.4070  1.6098
14924TIP3   OH266262   6.250   2.430  13.840  0.2342 -0.1637  0.3990
14924TIP3    H166263   6.255   2.505  13.781  0.2963 -0.3062  0.2196
14924TIP3    H266264   6.190   2.369  13.796 -1.0942  0.4469  1.2957
14925TIP3   OH266265   3.713   6.672   6.176 -0.5574 -0.5017 -0.3128
14925TIP3    H166266   3.638   6.729   6.190 -0.3323  0.0863 -1.3894
14925TIP3    H266267   3.758   6.671   6.261 -0.1092  1.6155 -0.4594
14926TIP3   OH266268   4.357   5.542   6.007  0.6785 -0.5148 -0.1811
14926TIP3    H166269   4.445   5.504   5.995  0.0465 -2.0544 -0.1828
14926TIP3    H266270   4.303   5.497   5.942 -0.3961 -0.5863  0.7337
14927TIP3   OH266271   2.112   4.209   1.108  0.0473  0.2912  0.0200
14927TIP3    H166272   2.045   4.248   1.163  0.7026  1.5437 -0.0347
14927TIP3    H266273   2.118   4.267   1.032 -0.8522 -1.3986 -1.4295
14928TIP3   OH266274   4.082   5.098  16.664 -0.5150  0.2886 -0.1823
14928TIP3    H166275   4.040   5.114  16.579 -2.0814 -1.2426  0.2580
14928TIP3    H266276   4.173   5.078  16.641 -1.5122 -3.1453 -1.9308
14929TIP3   OH266277   2.110   0.345  13.503  0.4276  0.1642 -0.0081
14929TIP3    H166278   2.140   0.359  13.413 -1.8583  3.3948 -0.4376
14929TIP3    H266279   2.028   0.297  13.493 -1.2687  2.8642 -0.0109
14930TIP3   OH266280   0.136   6.387  14.854 -0.2643 -0.3578  0.3207
14930TIP3    H166281   0.143   6.294  14.879  1.4429 -0.7321 -1.2899
14930TIP3    H266282   0.194   6.432  14.915  2.4643 -1.0209 -1.6220
14931TIP3   OH266283   5.000   2.036  17.053  0.7843  0.2509 -0.1185
14931TIP3    H166284   5.087   2.059  17.085  0.3331  0.4068  1.0456
14931TIP3    H266285   4.966   2.118  17.017  1.2728  0.0869 -0.9849
14932TIP3   OH266286   0.178   0.025  16.200  0.5359 -0.2471  0.0909
14932TIP3    H166287   0.146  -0.065  16.189  0.2396 -0.2398  0.8280
14932TIP3    H266288   0.164   0.044  16.293  0.2647  0.6912 -0.1301
14933TIP3   OH266289   0.993   0.409   4.819 -0.2170  0.2662  0.1884
14933TIP3    H166290   1.020   0.372   4.903 -0.1495 -0.7557 -0.2720
14933TIP3    H266291   1.046   0.362   4.754 -0.8856  0.4323 -0.4871
14934TIP3   OH266292   4.115   6.740   4.031  0.5813 -0.1149  0.4086
14934TIP3    H166293   4.062   6.678   3.982 -0.9125 -0.5801  2.4801
14934TIP3    H266294   4.199   6.695   4.043  0.6209 -0.3888 -0.8476
14935TIP3   OH266295   5.282   4.212  14.485  0.6586  0.2611  0.5305
14935TIP3    H166296   5.338   4.165  14.547  2.0370  0.9488 -0.1473
14935TIP3    H266297   5.342   4.243  14.417 -0.8312 -0.8429 -1.4313
14936TIP3   OH266298   1.182   6.660  17.045  0.0712 -0.2880 -0.5301
14936TIP3    H166299   1.200   6.614  17.127 -1.1252 -0.6243 -0.4396
14936TIP3    H266300   1.093   6.694  17.055  0.8208  1.8927 -0.6860
14937TIP3   OH266301   4.307   4.871  16.004  0.0951 -0.5875  0.0567
14937TIP3    H166302   4.348   4.883  15.919  0.7616  0.7316  0.5353
14937TIP3    H266303   4.216   4.847  15.984  0.8568 -2.7977 -1.0042
14938TIP3   OH266304   2.567   5.140   3.605 -0.0776  0.3512  0.4137
14938TIP3    H166305   2.558   5.155   3.699  0.8130 -0.8022  0.7121
14938TIP3    H266306   2.618   5.059   3.598  0.0841  0.5390 -1.0637
14939TIP3   OH266307   5.463   3.850   4.739 -0.1165 -0.2318 -0.5879
14939TIP3    H166308   5.506   3.861   4.824  2.6086  1.3947 -2.0355
14939TIP3    H266309   5.386   3.797   4.758  1.6997 -2.0938  2.4930
14940TIP3   OH266310   0.631   1.795  13.876 -0.0039 -0.1819 -0.3746
14940TIP3    H166311   0.686   1.746  13.936 -0.9825 -3.8699 -2.1757
14940TIP3    H266312   0.545   1.797  13.918  0.1049  0.3223 -0.1670
14941TIP3   OH266313   5.612   1.600  13.630 -0.4119  0.2159 -0.4137
14941TIP3    H166314   5.523   1.614  13.600 -0.2480  0.0107 -1.0009
14941TIP3    H266315   5.638   1.516  13.592  0.2287  0.5458 -0.7231
14942TIP3   OH266316   0.508   6.797  12.615  0.1973 -0.0884  0.5266
14942TIP3    H166317   0.499   6.797  12.519  0.7961  3.0674  0.3343
14942TIP3    H266318   0.602   6.794  12.630  0.1006 -3.4721  1.2576
14943TIP3   OH266319   2.194   0.516  11.045  0.6365  0.2659 -0.1825
14943TIP3    H166320   2.210   0.426  11.072  1.5128 -0.0964 -1.7890
14943TIP3    H266321   2.181   0.564  11.127  1.3262 -1.1011  0.7586
14944TIP3   OH266322   5.986   0.734   4.447  0.4481  0.1052  0.2523
14944TIP3    H166323   5.908   0.715   4.499  0.1075  0.4128 -0.1322
14944TIP3    H266324   5.987   0.665   4.380 -1.6873  2.1648 -2.1420
14945TIP3   OH266325   3.597   2.242  13.943 -0.1193 -0.4409 -0.2489
14945TIP3    H166326   3.677   2.205  13.981  1.4237  0.4133 -2.4858
14945TIP3    H266327   3.624   2.277  13.858 -3.1372 -1.2983 -1.7184
14946TIP3   OH266328   2.564   5.836  12.977 -0.3027 -0.7558  0.2354
14946TIP3    H166329   2.493   5.772  12.972  0.4815 -1.6212 -0.1241
14946TIP3    H266330   2.558   5.885  12.895  0.1201 -1.4841 -0.2355
14947TIP3   OH266331   5.795   6.152  11.625 -0.3673  0.3624  0.4159
14947TIP3    H166332   5.794   6.172  11.532 -0.1542  2.6888  0.8325
14947TIP3    H266333   5.754   6.229  11.666 -1.0786 -0.8903  2.1956
14948TIP3   OH266334   2.150   0.474   3.226  0.3680  0.0454  0.3249
14948TIP3    H166335   2.197   0.434   3.300  2.2883  1.6215  0.0445
14948TIP3    H266336   2.163   0.568   3.238  0.6254  0.3534 -1.9172
14949TIP3   OH266337   2.762   1.527   4.020 -0.0185 -0.5427  0.0042
14949TIP3    H166338   2.695   1.569   4.074 -0.4751 -2.0411  0.6677
14949TIP3    H266339   2.714   1.470   3.961  0.6283 -0.8906 -0.1999
14950TIP3   OH266340   6.637   0.740  12.030 -0.2686  0.1250  0.0058
14950TIP3    H166341   6.543   0.756  12.034 -0.1241  0.8135  1.0513
14950TIP3    H266342   6.644   0.650  11.999 -1.4016 -1.0164  2.6811
14951TIP3   OH266343   5.134   2.852  15.876 -0.4194 -0.2042 -0.4737
14951TIP3    H166344   5.067   2.895  15.822 -0.0703 -0.8368 -1.4509
14951TIP3    H266345   5.154   2.915  15.945 -0.8938  0.6351 -1.0873
14952TIP3   OH266346   3.980   4.000   3.966  0.1009  0.0535 -0.0922
14952TIP3    H166347   4.038   4.073   3.947  2.0057 -1.1468  0.7868
14952TIP3    H266348   3.989   3.986   4.060  0.7381 -2.0312 -0.4108
14953TIP3   OH266349   6.489   4.177  14.122 -0.1517  0.3310 -0.4417
14953TIP3    H166350   6.507   4.105  14.061 -1.1642 -1.3226  1.1030
14953TIP3    H266351   6.573   4.194  14.164  0.0554 -0.1099 -0.6671
14954TIP3   OH266352   6.085   1.942  12.239  0.0238  0.0665 -0.5509
14954TIP3    H166353   6.016   1.925  12.174 -1.2832  1.7566  0.3254
14954TIP3    H266354   6.149   1.996  12.194 -2.5784  4.3080  0.3033
14955TIP3   OH266355   4.560   5.562  15.113 -0.4688 -0.3711 -0.1377
14955TIP3    H166356   4.642   5.568  15.162  0.2128  2.1301 -1.4009
14955TIP3    H266357   4.520   5.648  15.122 -2.8828 -1.4447  0.2045
14956TIP3   OH266358   2.406   2.555   1.304  0.1178 -0.7792  0.0857
14956TIP3    H166359   2.456   2.483   1.344  1.6260  0.1939  0.0096
14956TIP3    H266360   2.466   2.630   1.306 -0.8802  0.0890 -1.2289
14957TIP3   OH266361   2.614   4.711   1.795 -0.2529  0.3277 -0.2261
14957TIP3    H166362   2.570   4.701   1.711 -2.1192 -0.3088  0.7608
14957TIP3    H266363   2.665   4.631   1.805  0.9674  0.9490 -1.2662
14958TIP3   OH266364   3.699   1.844  16.288 -0.0010 -0.0263 -0.1892
14958TIP3    H166365   3.749   1.764  16.303 -1.8572 -0.9365  1.7353
14958TIP3    H266366   3.613   1.813  16.259 -0.2793  1.3467 -0.8854
14959TIP3   OH266367   1.586   0.263   3.880 -0.3385  0.0906  0.3337
14959TIP3    H166368   1.612   0.212   3.956 -1.1529 -0.6157  0.1584
14959TIP3    H266369   1.543   0.340   3.916  0.2472  0.3057  0.5915
14960TIP3   OH266370   4.810   4.377  14.627 -0.0849  0.4383  0.3575
14960TIP3    H166371   4.901   4.351  14.640  0.2154  0.9942 -0.5722
14960TIP3    H266372   4.807   4.468  14.656 -0.2369  0.5576 -0.0222
14961TIP3   OH266373   3.332   3.792  13.367 -0.1660 -0.3361  0.1022
14961TIP3    H166374   3.298   3.873  13.328  0.7578  0.6955  1.3445
14961TIP3    H266375   3.257   3.752  13.410 -0.1641  1.1504  1.5660
14962TIP3   OH266376   6.442   4.516   4.006 -0.5018  0.1312 -0.2594
14962TIP3    H166377   6.499   4.486   4.077 -0.2637  0.1158 -0.4545
14962TIP3    H266378   6.368   4.557   4.050  0.3568  1.4663 -0.0021
14963TIP3   OH266379   5.449   6.620  15.437  0.0785 -0.1761 -0.0441
14963TIP3    H166380   5.359   6.625  15.407 -0.1079 -1.3354  0.2715
14963TIP3    H266381   5.502   6.617  15.357 -0.2240 -0.3983 -0.2366
14964TIP3   OH266382   6.827   6.812   5.643  0.0380  0.3454 -0.5793
14964TIP3    H166383   6.817   6.788   5.551 -1.1854  0.2402 -0.4360
14964TIP3    H266384   6.866   6.899   5.642  1.0790 -0.1222 -1.1763
14965TIP3   OH266385   4.247   1.982   2.386 -0.2408 -0.0887 -0.2978
14965TIP3    H166386   4.342   1.990   2.382 -0.2750  0.2988 -0.3019
14965TIP3    H266387   4.216   2.024   2.306 -0.4745  0.6821  0.1949
14966TIP3   OH266388   1.631   0.125   5.310  0.2825 -0.0725  0.0861
14966TIP3    H166389   1.705   0.175   5.274 -0.0899  2.1777  2.1768
14966TIP3    H266390   1.664   0.091   5.393 -1.3302  2.3034  1.8487
14967TIP3   OH266391   6.213   1.587   1.358 -0.5285 -0.1631  0.4612
14967TIP3    H166392   6.124   1.611   1.383 -0.6601  0.1595 -0.2910
14967TIP3    H266393   6.250   1.666   1.318  0.0049 -0.3712  0.5286
14968TIP3   OH266394   4.302   3.057  15.817 -0.2637 -0.2634  0.4249
14968TIP3    H166395   4.246   2.988  15.854  0.8042 -1.7977 -0.6811
14968TIP3    H266396   4.357   3.085  15.890 -0.2471 -1.1023  0.7483
14969TIP3   OH266397   5.955   5.707  16.484  0.1056 -0.2019  0.5492
14969TIP3    H166398   5.920   5.625  16.518  1.4003 -0.4675  1.2878
14969TIP3    H266399   5.908   5.775  16.533  0.5090 -0.5436  1.4134
14970TIP3   OH266400   0.326   1.946  15.881  0.1633  0.5015 -0.2495
14970TIP3    H166401   0.245   1.993  15.862 -0.7897 -1.0736 -0.2816
14970TIP3    H266402   0.395   2.011  15.866 -1.0245  1.6480 -1.0588
14971TIP3   OH266403   4.646   0.031   0.375 -0.2247  0.0984  0.4112
14971TIP3    H166404   4.574  -0.030   0.389  1.1704 -1.6878  0.1822
14971TIP3    H266405   4.725  -0.018   0.399  1.2444  0.7858 -2.4718
14972TIP3   OH266406   3.895   5.683   5.686  0.1776  0.4234  0.6985
14972TIP3    H166407   3.924   5.768   5.653  0.1395  0.0975 -0.1809
14972TIP3    H266408   3.876   5.631   5.608  1.1306 -0.7322  1.1959
14973TIP3   OH266409   2.211   2.034   1.578  0.7731  0.0499 -0.5474
14973TIP3    H166410   2.284   2.020   1.638 -0.4008 -1.7210  0.5397
14973TIP3    H266411   2.243   2.001   1.494  0.6566 -2.5904  0.3357
14974TIP3   OH266412   1.942   3.124   5.044  0.1864 -0.1794  0.3934
14974TIP3    H166413   1.945   3.200   5.101 -0.7930  0.3508 -0.2530
14974TIP3    H266414   1.870   3.141   4.984  0.3102 -1.3630 -0.1158
14975TIP3   OH266415   0.761   6.329   3.580  0.3351  0.5975 -0.2318
14975TIP3    H166416   0.701   6.302   3.511  0.9231 -1.9214  0.1681
14975TIP3    H266417   0.845   6.292   3.555  0.9330  1.0496  1.0175
14976TIP3   OH266418   1.439   1.014   2.379 -0.2515  0.8855 -0.6923
14976TIP3    H166419   1.385   0.946   2.419 -0.0066  1.4562  0.6551
14976TIP3    H266420   1.464   0.978   2.294 -0.8023 -0.3582 -0.3452
14977TIP3   OH266421   0.445   1.193  16.483 -0.2246  0.3860 -0.3066
14977TIP3    H166422   0.375   1.258  16.481  0.0355  0.8058  1.8112
14977TIP3    H266423   0.523   1.242  16.456 -0.0044  1.0597  1.3964
14978TIP3   OH266424   5.402   5.761  12.371  0.1764  0.6870 -0.1625
14978TIP3    H166425   5.328   5.703  12.389  1.8789 -1.5234  0.2285
14978TIP3    H266426   5.376   5.845  12.410 -1.4567 -0.4594  1.4328
14979TIP3   OH266427   4.501   1.846   1.702  0.3840 -0.4328 -0.2602
14979TIP3    H166428   4.582   1.801   1.679  1.5284  1.8929 -1.1439
14979TIP3    H266429   4.432   1.792   1.665  1.5193 -2.2796  0.1800
14980TIP3   OH266430   0.981   0.301  12.429  0.3473  0.8660  0.3428
14980TIP3    H166431   0.975   0.272  12.520 -0.4928  0.2980  0.1152
14980TIP3    H266432   1.075   0.307  12.413  0.5840 -1.5455  0.4846
14981TIP3   OH266433   2.136   5.142   4.002 -0.0113  0.0684 -0.6674
14981TIP3    H166434   2.060   5.145   3.944 -0.4442  0.1150 -0.1051
14981TIP3    H266435   2.196   5.208   3.967 -0.6344  0.6992 -0.5656
14982TIP3   OH266436   2.051   2.446  14.272  0.2763 -0.1568 -0.2622
14982TIP3    H166437   2.077   2.463  14.363 -0.3434 -0.2260 -0.0698
14982TIP3    H266438   2.119   2.488  14.220 -0.9611  2.6423  0.1802
14983TIP3   OH266439   5.952   4.658  12.751  0.2214 -0.6500 -0.1703
14983TIP3    H166440   5.989   4.745  12.737  1.1193 -0.7361  1.4028
14983TIP3    H266441   6.027   4.599  12.747 -0.0355 -1.0788  0.9825
14984TIP3   OH266442   1.510   6.265   0.419  0.3490 -0.2030 -0.9482
14984TIP3    H166443   1.557   6.253   0.502  0.4834 -0.2767 -1.0333
14984TIP3    H266444   1.574   6.240   0.353  0.2498 -0.1179 -1.0748
14985TIP3   OH266445   4.304   3.195  11.480 -0.4149  0.2483  0.1013
14985TIP3    H166446   4.289   3.289  11.467  1.6069  0.4899 -0.8609
14985TIP3    H266447   4.272   3.155  11.399  0.5522  0.3473 -0.3402
14986TIP3   OH266448   4.986   4.502  11.121 -0.5229  0.3047  0.4099
14986TIP3    H166449   4.985   4.410  11.095 -3.6798  0.7097 -1.4521
14986TIP3    H266450   5.065   4.538  11.081  1.4372 -1.6911  2.1445
14987TIP3   OH266451   1.631   5.276   0.645 -0.2576  0.2085  0.1155
14987TIP3    H166452   1.596   5.234   0.724 -0.3396 -1.7615 -0.9196
14987TIP3    H266453   1.641   5.205   0.582  0.8829  1.5528 -1.2974
14988TIP3   OH266454   0.634   0.447  12.170  1.1874 -0.5604  0.4621
14988TIP3    H166455   0.570   0.409  12.230 -1.1772  2.3897  0.0645
14988TIP3    H266456   0.647   0.380  12.103 -1.9679 -1.1478  0.2931
14989TIP3   OH266457   1.531   3.137  10.449 -0.7689  0.5494  0.1112
14989TIP3    H166458   1.577   3.166  10.370 -1.4691 -1.1193 -0.9726
14989TIP3    H266459   1.440   3.129  10.422 -0.8524 -1.0812  0.7515
14990TIP3   OH266460   0.458   0.534   1.727 -0.8984 -0.5036 -0.4056
14990TIP3    H166461   0.421   0.480   1.797 -0.3513 -1.9374 -1.1756
14990TIP3    H266462   0.388   0.542   1.663 -0.9560 -0.3576 -0.3247
14991TIP3   OH266463   1.350   1.835   3.258 -0.3472 -0.2710 -0.2337
14991TIP3    H166464   1.399   1.833   3.176 -0.1293 -2.2351 -0.0970
14991TIP3    H266465   1.261   1.809   3.232 -0.8267  1.1593 -0.1378
14992TIP3   OH266466   5.210   1.778   2.848 -0.2393 -0.6865 -0.4608
14992TIP3    H166467   5.296   1.799   2.812  0.8229 -0.0675  2.1890
14992TIP3    H266468   5.149   1.832   2.798  1.3466  1.5340 -0.1754
14993TIP3   OH266469   6.778   1.246  11.184 -0.6142  0.3327 -0.5104
14993TIP3    H166470   6.853   1.306  11.182 -1.0459  1.0607  1.9625
14993TIP3    H266471   6.786   1.196  11.103  0.5032  2.8211 -2.0760
14994TIP3   OH266472   1.817   2.874   1.747 -0.3912 -0.0059 -0.1626
14994TIP3    H166473   1.842   2.931   1.674 -1.3001 -1.2033 -1.4510
14994TIP3    H266474   1.722   2.884   1.755 -0.1558  1.3474  1.9846
14995TIP3   OH266475   3.095   0.257   5.097 -0.2949  0.5570 -0.1025
14995TIP3    H166476   3.013   0.223   5.061  0.9118 -1.7289 -0.9393
14995TIP3    H266477   3.159   0.187   5.080  2.5729  3.4449 -2.3691
14996TIP3   OH266478   1.199   0.460  12.485 -0.2659  0.0865 -0.3634
14996TIP3    H166479   1.228   0.548  12.461  0.1330  0.7032  2.0647
14996TIP3    H266480   1.126   0.475  12.545  0.7005 -1.1546  1.1874
14997TIP3   OH266481   4.489   0.132  13.090  0.4554  0.1483  0.3682
14997TIP3    H166482   4.561   0.108  13.148  1.8937  0.3128 -1.2951
14997TIP3    H266483   4.500   0.226  13.076  1.7306 -0.3050 -2.1907
14998TIP3   OH266484   2.414   1.552   1.887 -0.1738 -0.3369 -0.1004
14998TIP3    H166485   2.335   1.603   1.904  0.2183  0.4379 -0.5525
14998TIP3    H266486   2.422   1.494   1.964 -0.7177  0.1573  0.3406
14999TIP3   OH266487   4.705   4.919  11.274  0.1184  0.1276 -0.2457
14999TIP3    H166488   4.703   4.831  11.237  1.4643  0.6797 -1.7523
14999TIP3    H266489   4.796   4.933  11.297  0.3119  1.8287 -1.8727
15000TIP3   OH266490   6.568   1.239  17.072 -0.0654 -0.1452 -0.0810
15000TIP3    H166491   6.636   1.184  17.031  1.4368  1.5396  0.0109
15000TIP3    H266492   6.612   1.278  17.148 -1.4915  0.1876  0.6035
15001TIP3   OH266493   0.609   6.328  10.687  0.4868  0.0360 -0.8070
15001TIP3    H166494   0.574   6.345  10.775  0.1994 -1.3009 -0.6468
15001TIP3    H266495   0.591   6.236  10.672  1.7536 -0.0730 -1.7353
15002TIP3   OH266496   2.397   5.782  14.674 -0.0686  0.5665  0.6611
15002TIP3    H166497   2.408   5.787  14.579  0.7998  1.1433  0.7772
15002TIP3    H266498   2.309   5.746  14.686 -0.0440  0.1169 -0.3589
15003TIP3   OH266499   1.619   2.336   5.253  0.1867 -0.6223  0.6473
15003TIP3    H166500   1.663   2.318   5.170 -1.5788 -1.1687 -0.2188
15003TIP3    H266501   1.657   2.272   5.314  1.5481 -0.1714  0.3259
15004TIP3   OH266502   1.534   3.035   2.753  0.3152 -0.0277 -0.2715
15004TIP3    H166503   1.538   2.960   2.813 -0.4095 -0.1098 -0.3148
15004TIP3    H266504   1.571   3.108   2.803  0.6624 -0.3217 -0.0896
15005TIP3   OH266505   5.917   6.762  13.939 -0.1678 -0.4966 -0.3693
15005TIP3    H166506   5.962   6.807  13.868 -0.4068  2.2225  1.0621
15005TIP3    H266507   5.986   6.723  13.991  0.2423  0.0341 -0.5075
15006TIP3   OH266508   2.348   2.914   6.353  0.0892 -0.1128 -0.4003
15006TIP3    H166509   2.416   2.965   6.398  0.1843 -0.4218 -0.1902
15006TIP3    H266510   2.371   2.922   6.260 -0.2186  0.6839 -0.4197
15007TIP3   OH266511   6.323   4.099  11.920  0.2974 -0.1762 -0.0117
15007TIP3    H166512   6.366   4.184  11.915 -0.5214  0.4424  2.3419
15007TIP3    H266513   6.233   4.118  11.944  0.0048 -1.6887  0.2211
15008TIP3   OH266514   1.997   2.278   4.517  0.0889  0.6192  0.0307
15008TIP3    H166515   1.924   2.336   4.494  2.8470  3.9924 -1.1621
15008TIP3    H266516   2.013   2.228   4.437  0.0561  1.0313 -0.2397
15009TIP3   OH266517   4.413   4.693   2.744 -0.2149  1.0902  0.2136
15009TIP3    H166518   4.451   4.680   2.657 -0.1507 -0.9012  0.4993
15009TIP3    H266519   4.336   4.747   2.729 -1.9445 -1.6397 -1.5627
15010TIP3   OH266520   5.779   6.516  17.127 -0.3551  0.5162  0.0043
15010TIP3    H166521   5.824   6.494  17.208 -1.0971 -0.2832  0.2143
15010TIP3    H266522   5.795   6.610  17.116  1.2142  0.2998  0.1397
15011TIP3   OH266523   4.249   4.049   4.336 -0.2468  0.2535  0.3256
15011TIP3    H166524   4.308   4.034   4.261  1.1488 -2.6434  1.8443
15011TIP3    H266525   4.262   4.141   4.358  0.0404  0.9358 -2.3432
15012TIP3   OH266526   5.734   0.395   1.538  0.4557 -0.1471  0.1830
15012TIP3    H166527   5.804   0.382   1.474 -0.9676  0.3462 -1.5839
15012TIP3    H266528   5.667   0.331   1.514 -0.0500 -0.0451  1.2787
15013TIP3   OH266529   4.133   0.324   1.150  0.3140 -0.3595  0.3097
15013TIP3    H166530   4.124   0.253   1.213 -0.3564 -0.4220  0.1526
15013TIP3    H266531   4.214   0.304   1.103  0.6816 -0.4525  0.9631
15014TIP3   OH266532   5.199   3.214  11.378  0.1603 -0.4707  0.2767
15014TIP3    H166533   5.175   3.124  11.357 -0.2470 -0.2439 -0.2813
15014TIP3    H266534   5.116   3.257  11.398  0.0837  0.2611 -1.4134
15015TIP3   OH266535   2.665   2.716   1.072 -0.4426 -0.1537  0.4317
15015TIP3    H166536   2.649   2.622   1.083  2.5984 -0.6847  1.1672
15015TIP3    H266537   2.662   2.751   1.161 -0.3436  0.2327  0.2837
15016TIP3   OH266538   1.598   6.353   6.561  0.0971  0.6115  0.1198
15016TIP3    H166539   1.671   6.335   6.501  0.6619 -1.7607  1.4050
15016TIP3    H266540   1.574   6.444   6.542  4.5329  2.1853  0.8164
15017TIP3   OH266541   4.075   0.740  16.723 -0.0519  0.2500  0.6012
15017TIP3    H166542   3.987   0.775  16.733  0.1489  1.4493 -1.2673
15017TIP3    H266543   4.073   0.694  16.638  1.4258  1.4189 -0.1147
15018TIP3   OH266544   5.006   4.332  16.980  0.0190  0.2254 -0.1327
15018TIP3    H166545   4.997   4.379  16.897 -1.3603 -0.5441 -0.4554
15018TIP3    H266546   4.919   4.295  16.996  0.9287 -1.9230  0.2663
15019TIP3   OH266547   4.097   1.169   5.484 -0.2692 -0.0192  0.1936
15019TIP3    H166548   4.112   1.103   5.552 -1.3538  0.0862  0.5637
15019TIP3    H266549   4.161   1.237   5.503 -2.3187  1.3582  2.9483
15020TIP3   OH266550   2.318   6.208   4.115 -0.7567  0.0927 -0.0906
15020TIP3    H166551   2.398   6.174   4.157 -0.1400 -0.1615 -1.4112
15020TIP3    H266552   2.253   6.210   4.185 -0.0099 -1.1516  0.6766
15021TIP3   OH266553   5.301   3.290   2.326  0.1508  0.0146 -0.7277
15021TIP3    H166554   5.220   3.336   2.349  0.9294  1.2432 -0.3597
15021TIP3    H266555   5.303   3.214   2.384  0.0133  0.7969  0.3132
15022TIP3   OH266556   5.886   5.915   2.775  0.0110  0.1976 -0.4012
15022TIP3    H166557   5.947   5.960   2.834 -0.2653 -0.9111  0.7739
15022TIP3    H266558   5.903   5.822   2.790 -1.5589 -0.1262 -0.4924
15023TIP3   OH266559   3.888   1.513  14.157  0.9013  0.7981  0.5274
15023TIP3    H166560   3.897   1.596  14.109 -0.2199  0.3834 -0.4494
15023TIP3    H266561   3.976   1.497  14.192  2.0782  0.6855 -2.1644
15024TIP3   OH266562   4.694   3.986  12.599  0.3738 -0.0607 -0.1737
15024TIP3    H166563   4.783   3.951  12.589 -0.0158 -0.4711 -2.7252
15024TIP3    H266564   4.639   3.927  12.547 -1.1360  1.2287 -0.0921
15025TIP3   OH266565   5.986   6.179   1.685 -0.6396 -0.0769  0.3780
15025TIP3    H166566   6.080   6.162   1.689 -0.4032  0.8480 -0.5638
15025TIP3    H266567   5.949   6.102   1.643 -0.1032  0.1260 -0.4957
15026TIP3   OH266568   6.312   6.580   2.841 -0.2489 -0.7510 -0.1604
15026TIP3    H166569   6.298   6.612   2.930  0.1027 -2.9941  0.7619
15026TIP3    H266570   6.233   6.606   2.794 -0.3985  0.5576  0.7552
15027TIP3   OH266571   6.097   3.715   4.001  0.2193  0.1575 -0.7888
15027TIP3    H166572   6.092   3.696   3.907 -2.0923  2.1987 -1.1726
15027TIP3    H266573   6.006   3.727   4.028  0.8344 -0.2744  1.7344
15028TIP3   OH266574   1.945   1.280  12.953  0.1108 -0.6117  0.1708
15028TIP3    H166575   2.018   1.234  12.912  1.6098  1.2852  0.5451
15028TIP3    H266576   1.952   1.370  12.920 -0.7130  0.1261  1.8889
15029TIP3   OH266577   3.922   3.326   0.664 -0.2191  0.9241 -0.3494
15029TIP3    H166578   3.888   3.238   0.682 -0.1011  0.7180 -1.0943
15029TIP3    H266579   3.966   3.318   0.580  1.4553  1.2557  0.4468
15030TIP3   OH266580   0.058   4.598   4.064 -0.5230  0.3035 -0.5533
15030TIP3    H166581  -0.016   4.537   4.060 -0.4303  0.1880 -0.5021
15030TIP3    H266582   0.125   4.551   4.114  0.6842 -0.7418 -3.0365
15031TIP3   OH266583   5.362   0.771   1.404 -0.0967 -0.2192 -0.0025
15031TIP3    H166584   5.330   0.756   1.493  0.1053  1.0628  0.3015
15031TIP3    H266585   5.441   0.718   1.398 -0.4353 -0.7815  0.3782
15032TIP3   OH266586   1.593   1.752  14.970 -0.1887  0.3841 -0.3337
15032TIP3    H166587   1.667   1.704  14.932 -1.2065 -0.7344 -0.9911
15032TIP3    H266588   1.632   1.805  15.039  1.3120  0.2944 -1.0611
15033TIP3   OH266589   0.590   4.320  14.864 -0.4744 -0.4706  0.0259
15033TIP3    H166590   0.657   4.288  14.926  0.4594  1.5683  0.1411
15033TIP3    H266591   0.507   4.291  14.902  0.1918 -0.9314  1.2091
15034TIP3   OH266592   2.779   5.921  14.600  0.0597  0.1751 -0.0652
15034TIP3    H166593   2.872   5.907  14.613  0.1500 -0.6169 -1.3541
15034TIP3    H266594   2.738   5.840  14.631 -0.2237  0.5846  0.6525
15035TIP3   OH266595   0.059   3.356  15.866 -0.7062  0.2323 -0.2717
15035TIP3    H166596  -0.035   3.343  15.855 -1.0970  0.8631  1.8644
15035TIP3    H266597   0.067   3.421  15.935  1.2827 -2.0483  1.8553
15036TIP3   OH266598   4.987   3.424   5.278  0.0402  0.1235 -0.2776
15036TIP3    H166599   5.049   3.367   5.324 -0.2778  0.1079  0.1396
15036TIP3    H266600   5.016   3.422   5.187  0.3581 -0.2774 -0.1734
15037TIP3   OH266601   2.034   6.028   0.612  0.1794 -0.4713 -0.9421
15037TIP3    H166602   2.002   6.118   0.607 -0.9592 -0.8011 -0.0578
15037TIP3    H266603   2.081   6.024   0.695  0.1525 -0.7027 -0.9367
15038TIP3   OH266604   4.357   0.504  16.944  0.1627 -0.4997  0.3158
15038TIP3    H166605   4.365   0.429  16.885  0.5589 -2.6546  2.8774
15038TIP3    H266606   4.448   0.527  16.966  0.0255  0.3763 -0.0062
15039TIP3   OH266607   4.498   2.346  13.446 -0.4604 -0.2106 -0.0316
15039TIP3    H166608   4.559   2.405  13.401 -1.3524  2.2295  1.7244
15039TIP3    H266609   4.493   2.269  13.389  1.2451  1.1273 -2.1717
15040TIP3   OH266610   1.056   0.833   2.635 -0.3732 -0.3889 -0.0071
15040TIP3    H166611   0.966   0.823   2.606 -0.9116 -0.0607  1.4586
15040TIP3    H266612   1.059   0.919   2.677  1.2663  0.7020 -2.1887
15041TIP3   OH266613   5.658   4.418   2.171  0.4597  0.4349 -0.4146
15041TIP3    H166614   5.672   4.435   2.264 -0.4961 -1.6086  0.1772
15041TIP3    H266615   5.638   4.503   2.133 -2.2844  0.9726  1.8768
15042TIP3   OH266616   4.896   3.032   5.443  0.5712  0.1788 -0.4386
15042TIP3    H166617   4.949   2.955   5.463  1.7977  1.4786  1.7690
15042TIP3    H266618   4.808   3.010   5.476  0.3053 -1.0376 -1.8368
15043TIP3   OH266619   2.939   3.373  13.655 -0.3986 -0.3804 -0.3895
15043TIP3    H166620   2.982   3.397  13.738 -0.1573 -3.2294  0.3990
15043TIP3    H266621   2.889   3.295  13.676 -1.5428 -0.3079 -2.6347
15044TIP3   OH266622   0.619   2.910   3.101 -0.1240  0.0143 -0.4118
15044TIP3    H166623   0.524   2.920   3.097  0.0767  1.8503 -1.6429
15044TIP3    H266624   0.654   2.998   3.088  1.7883 -0.9196 -2.3068
15045TIP3   OH266625   4.524   4.308   4.789 -0.1622  0.1763  0.1592
15045TIP3    H166626   4.436   4.339   4.808 -0.2357 -0.5873  1.1972
15045TIP3    H266627   4.555   4.272   4.873  1.2045  0.6034 -0.1316
15046TIP3   OH266628   4.035   4.316   4.069 -0.4853 -0.7695  0.4100
15046TIP3    H166629   4.118   4.355   4.043 -0.5127 -0.8888  0.1361
15046TIP3    H266630   4.036   4.319   4.164 -0.9044  0.7594  0.3815
15047TIP3   OH266631   5.574   4.583   4.295  0.2903  0.4725 -0.0500
15047TIP3    H166632   5.562   4.548   4.384 -0.9152  0.4857 -0.1892
15047TIP3    H266633   5.645   4.532   4.258  0.9430  0.5942  0.9891
15048TIP3   OH266634   2.064   1.829   4.695 -0.4762  0.0828  0.0626
15048TIP3    H166635   2.109   1.820   4.779  2.3765 -0.2223 -1.3719
15048TIP3    H266636   2.050   1.739   4.665 -1.7198  0.1841  0.2654
15049TIP3   OH266637   4.914   1.513   6.214 -0.4589 -0.3275 -0.2496
15049TIP3    H166638   4.834   1.524   6.265 -1.5600 -0.8530 -1.7881
15049TIP3    H266639   4.984   1.547   6.271 -1.8444  0.7775  0.8731
15050TIP3   OH266640   1.143   6.387   1.473 -0.7269 -0.0067  0.4383
15050TIP3    H166641   1.135   6.315   1.536 -1.3534 -0.4743 -0.1522
15050TIP3    H266642   1.054   6.420   1.463 -1.0152 -1.1986 -1.6012
15051TIP3   OH266643   0.108   1.606  15.571  0.0200 -0.0973 -0.1276
15051TIP3    H166644   0.149   1.690  15.591 -0.7944  0.6178 -1.3177
15051TIP3    H266645   0.180   1.543  15.574  0.6607  0.6466  0.6847
15052TIP3   OH266646   5.968   2.401   5.107  0.9005  0.0802  0.5203
15052TIP3    H166647   5.875   2.398   5.131  0.1379  0.5391 -2.0000
15052TIP3    H266648   5.981   2.322   5.054  1.4818  0.8815 -0.5644
15053TIP3   OH266649   0.931   3.440  12.158 -0.1393 -0.1510  0.2124
15053TIP3    H166650   0.922   3.496  12.235  1.9956  0.4992  0.0538
15053TIP3    H266651   0.843   3.437  12.121 -0.6955  1.6232  1.2309
15054TIP3   OH266652   2.258   3.196  11.555  0.0311  0.2002  0.1545
15054TIP3    H166653   2.194   3.243  11.608  1.7509  0.5967  2.0118
15054TIP3    H266654   2.215   3.114  11.531 -1.0444  0.2957  1.6324
15055TIP3   OH266655   4.295   4.389   4.026  0.4210  0.0012  0.3726
15055TIP3    H166656   4.308   4.480   4.000  0.2548 -0.1046 -0.0942
15055TIP3    H266657   4.344   4.338   3.962 -0.0430 -0.2697  0.2241
15056TIP3   OH266658   2.953   6.208   2.367  0.3299  0.0951 -0.8483
15056TIP3    H166659   3.039   6.181   2.401  0.2638  0.0201 -0.7386
15056TIP3    H266660   2.893   6.143   2.403  0.0687  0.7796 -0.0026
15057TIP3   OH266661   0.417   0.355  16.005  0.5070 -0.1104 -0.5450
15057TIP3    H166662   0.328   0.390  16.002  0.0960 -1.0489  0.2102
15057TIP3    H266663   0.406   0.262  16.027  1.5869 -0.6181 -1.9565
15058TIP3   OH266664   1.510   4.177  17.175  0.6077 -0.2610  0.2597
15058TIP3    H166665   1.506   4.201  17.268  0.0335 -0.8597  0.4003
15058TIP3    H266666   1.421   4.147  17.155 -0.3318  3.1821 -1.4205
15059TIP3   OH266667   1.913   2.478  11.311 -0.5212 -0.4878 -0.2366
15059TIP3    H166668   1.920   2.573  11.319 -0.1097 -0.5944  0.7510
15059TIP3    H266669   1.826   2.457  11.344 -1.2149 -0.3237 -1.8565
15060TIP3   OH266670   3.632   3.315  13.569 -0.0447 -0.0852 -0.1487
15060TIP3    H166671   3.669   3.236  13.609  0.2808  0.5321  0.8092
15060TIP3    H266672   3.705   3.378  13.570 -0.3988  0.3368 -0.5814
15061TIP3   OH266673   0.065   0.333   4.873  0.3316 -0.4817 -0.2024
15061TIP3    H166674   0.120   0.387   4.816 -3.3324  0.4516 -3.2353
15061TIP3    H266675   0.090   0.243   4.852  0.7664 -0.0930 -1.3988
15062TIP3   OH266676   3.766   0.544   6.034  0.6032  0.4246  0.0349
15062TIP3    H166677   3.824   0.480   5.991  1.2830 -0.1357  1.6887
15062TIP3    H266678   3.678   0.523   6.000  0.7417 -1.7220  0.8536
15063TIP3   OH266679   4.357   4.889  12.904  0.0804 -0.1038 -0.4086
15063TIP3    H166680   4.438   4.846  12.876  0.7384  0.8912 -0.0677
15063TIP3    H266681   4.382   4.980  12.920 -0.8822 -0.0106  0.6974
15064TIP3   OH266682   6.358   3.614  11.044 -0.4365 -0.0036  0.6084
15064TIP3    H166683   6.284   3.598  11.102  0.1473 -1.4386  0.9930
15064TIP3    H266684   6.353   3.545  10.979  0.1498  0.3328  0.1948
15065TIP3   OH266685   5.452   1.314  13.299 -0.2224 -0.0676  0.0024
15065TIP3    H166686   5.451   1.250  13.370 -1.0390  0.0782  0.1319
15065TIP3    H266687   5.372   1.297  13.250 -0.5335  0.9578  0.1367
15066TIP3   OH266688   3.904   3.406   1.919 -0.5437  0.0013 -0.2262
15066TIP3    H166689   3.874   3.345   1.852  1.0632 -0.0393 -0.9526
15066TIP3    H266690   3.992   3.431   1.891 -1.3044  3.0478 -0.1979
15067TIP3   OH266691   6.685   2.116   3.519 -0.0963  0.5163 -0.2109
15067TIP3    H166692   6.640   2.198   3.502 -2.4660 -0.4308  1.0068
15067TIP3    H266693   6.676   2.066   3.438  1.2080  1.3713 -0.8953
15068TIP3   OH266694   4.886   5.685   5.415  0.1703  0.2464 -0.0341
15068TIP3    H166695   4.959   5.629   5.442 -0.4178 -0.1722  0.7268
15068TIP3    H266696   4.903   5.702   5.323  0.9988 -0.2023  0.0174
15069TIP3   OH266697   3.427   5.834   5.817  0.3706  0.1864  0.6316
15069TIP3    H166698   3.406   5.862   5.905  2.0034 -1.3789  1.5942
15069TIP3    H266699   3.522   5.842   5.810  0.1150  2.4588 -1.8336
15070TIP3   OH266700   0.839   5.671   0.939  0.0074  0.0188  0.5655
15070TIP3    H166701   0.848   5.653   1.033 -0.0772 -1.4898  0.3026
15070TIP3    H266702   0.747   5.657   0.920 -0.3646  2.0481  0.5538
15071TIP3   OH266703   3.618   4.893   5.283 -0.2417 -0.5956 -0.8564
15071TIP3    H166704   3.644   4.823   5.342 -2.8975 -0.4840  0.5906
15071TIP3    H266705   3.563   4.850   5.217 -1.6713  0.0148 -0.1096
15072TIP3   OH266706   0.124   5.683  11.539  0.8350 -0.4737 -0.0550
15072TIP3    H166707   0.215   5.660  11.558  1.6503  1.4660 -1.3547
15072TIP3    H266708   0.112   5.664  11.446 -0.2046 -0.9960  0.1646
15073TIP3   OH266709   6.464   4.283   5.419 -0.1144  0.8711  0.7594
15073TIP3    H166710   6.487   4.200   5.375 -0.7233  0.4565  1.2193
15073TIP3    H266711   6.377   4.268   5.455 -0.1064  1.6185  1.1000
15074TIP3   OH266712   6.744   1.373  15.812  0.5260  0.3419  0.4429
15074TIP3    H166713   6.676   1.386  15.745  2.1399  1.1387 -1.1173
15074TIP3    H266714   6.695   1.367  15.894 -1.3291  2.8016 -0.3612
15075TIP3   OH266715   3.420   0.541   4.987  0.4021 -0.1072  0.7557
15075TIP3    H166716   3.339   0.512   5.029  0.1058  2.0158  1.8129
15075TIP3    H266717   3.393   0.565   4.899 -0.0030 -0.0480  0.8897
15076TIP3   OH266718   4.361   0.453   0.937 -0.0890 -0.2004 -0.6478
15076TIP3    H166719   4.311   0.416   0.864 -0.5506 -1.8168  0.4302
15076TIP3    H266720   4.452   0.440   0.912 -0.2317 -2.2985 -0.2475
15077TIP3   OH266721   0.246   1.639   5.787  0.5884 -0.2310 -0.0537
15077TIP3    H166722   0.249   1.724   5.744 -0.0465 -0.7972 -1.2696
15077TIP3    H266723   0.208   1.580   5.722  2.8466 -1.9029  0.0011
15078TIP3   OH266724   4.214   2.661   2.619 -0.1243  0.3431  0.1374
15078TIP3    H166725   4.151   2.729   2.594  1.5404  1.8487 -0.1009
15078TIP3    H266726   4.208   2.657   2.714  1.8204  3.0126  0.4766
15079TIP3   OH266727   0.796   6.518  11.701 -0.3113  0.0702  0.2861
15079TIP3    H166728   0.733   6.541  11.633 -1.7149 -0.5575  1.3250
15079TIP3    H266729   0.798   6.423  11.702 -1.0623  0.0424  1.7518
15080TIP3   OH266730   4.986   1.812  16.433 -0.2732 -0.3582 -0.1774
15080TIP3    H166731   5.069   1.785  16.393 -1.7012 -1.1404 -2.7542
15080TIP3    H266732   4.979   1.905  16.412  0.5532  0.0874  1.3016
15081TIP3   OH266733   2.110   4.751  14.065 -0.0312 -0.6510  0.7910
15081TIP3    H166734   2.194   4.716  14.035  0.2114 -0.2776  1.0332
15081TIP3    H266735   2.132   4.809  14.138 -0.3697  0.3923  0.0925
15082TIP3   OH266736   4.602   4.446   2.384  0.9797 -0.0141  0.1533
15082TIP3    H166737   4.679   4.487   2.345  0.0137 -0.3272 -2.2541
15082TIP3    H266738   4.637   4.369   2.430  2.2327  0.5692  0.2016
15083TIP3   OH266739   4.795   5.648  15.262 -0.0463  0.2005  0.4714
15083TIP3    H166740   4.877   5.692  15.284  1.2015 -0.3268 -2.6089
15083TIP3    H266741   4.808   5.558  15.291  1.6832 -0.5601 -2.2364
15084TIP3   OH266742   6.360   0.797  11.983  0.1559 -0.0746  0.3190
15084TIP3    H166743   6.378   0.756  11.898 -0.3138 -0.2780  0.3132
15084TIP3    H266744   6.265   0.804  11.986  0.2115  0.7121  0.4729
15085TIP3   OH266745   6.052   6.185   2.491 -0.1974  0.8894  0.1874
15085TIP3    H166746   6.021   6.257   2.435 -3.9734 -0.5731  0.1433
15085TIP3    H266747   6.088   6.121   2.430  0.3252  1.3777 -0.0358
15086TIP3   OH266748   1.721   3.669  16.420 -0.2031 -0.2268 -0.5760
15086TIP3    H166749   1.802   3.618  16.416 -0.0796 -0.0997  0.0724
15086TIP3    H266750   1.700   3.689  16.329  2.2982  2.6240 -0.6682
15087TIP3   OH266751   6.358   0.185   0.856  0.3778  0.1659  0.6829
15087TIP3    H166752   6.352   0.100   0.813  3.4185  1.3052 -2.4802
15087TIP3    H266753   6.442   0.182   0.903  1.3195  1.8047 -0.7616
15088TIP3   OH266754   3.938   3.385   3.785  0.6107 -0.6767  0.2746
15088TIP3    H166755   3.969   3.295   3.777  2.5590  0.0425 -1.1790
15088TIP3    H266756   3.983   3.419   3.863  1.1916 -0.4877 -0.1396
15089TIP3   OH266757   4.083   5.919  16.114  0.2284 -0.4111 -0.1069
15089TIP3    H166758   4.076   5.911  16.210  1.3983  0.6124  0.0846
15089TIP3    H266759   4.014   5.980  16.090  0.0625 -0.5108  0.1054
15090TIP3   OH266760   5.033   1.928   6.377 -0.6309  0.2264 -0.3107
15090TIP3    H166761   5.043   1.833   6.381 -1.8373  0.1288  2.0665
15090TIP3    H266762   5.123   1.961   6.375 -0.1259 -0.8912 -3.7561
15091TIP3   OH266763   2.910   0.758  16.967  0.0041 -0.1198 -0.2291
15091TIP3    H166764   2.926   0.833  16.910 -1.0242 -0.2815 -0.7444
15091TIP3    H266765   2.839   0.710  16.925 -1.4238  0.2356  1.6011
15092TIP3   OH266766   0.257   2.467  10.687  0.0407  0.0858 -0.4472
15092TIP3    H166767   0.324   2.522  10.646  0.4182  1.1153  1.4111
15092TIP3    H266768   0.243   2.395  10.626  2.4907  0.1077 -1.1251
15093TIP3   OH266769   4.931   3.991   4.650  0.3160 -0.1915 -0.5768
15093TIP3    H166770   4.927   4.068   4.706 -1.0419 -0.1239 -0.7293
15093TIP3    H266771   4.881   3.924   4.697  0.5776 -0.6512 -0.9420
15094TIP3   OH266772   1.704   5.233   3.726 -0.7610  0.3109  0.2173
15094TIP3    H166773   1.672   5.151   3.763  1.3769 -0.8438 -0.3643
15094TIP3    H266774   1.632   5.264   3.671 -1.7042 -0.9965  0.6649
15095TIP3   OH266775   3.595   6.130   1.921 -0.2694 -0.0099 -0.6022
15095TIP3    H166776   3.650   6.052   1.914  0.2564  0.3710 -0.7887
15095TIP3    H266777   3.637   6.195   1.863  0.8518  1.3039  1.5485
15096TIP3   OH266778   1.731   5.204   6.519 -0.1238  0.2899 -0.1125
15096TIP3    H166779   1.673   5.156   6.578  1.3760  0.4872  1.5728
15096TIP3    H266780   1.676   5.275   6.485 -1.1128 -0.0324  0.7537
15097TIP3   OH266781   0.949   1.412  14.936  0.0844  0.0742 -0.0803
15097TIP3    H166782   1.038   1.441  14.921  0.1535  0.2519  0.6291
15097TIP3    H266783   0.957   1.345  15.005 -0.2192 -0.6463 -0.7284
15098TIP3   OH266784   4.520   0.567   2.204 -0.6739 -0.4344 -0.0421
15098TIP3    H166785   4.477   0.583   2.288  0.1897 -0.6024  0.4431
15098TIP3    H266786   4.485   0.482   2.176  0.6602 -1.4577  1.2379
15099TIP3   OH266787   5.885   1.394   1.154  0.0888 -0.1060 -0.0475
15099TIP3    H166788   5.920   1.360   1.072 -0.8033  0.5458 -0.7165
15099TIP3    H266789   5.863   1.485   1.135 -1.3040 -0.2945  0.5340
15100TIP3   OH266790   5.044   2.111   4.817  0.2029  0.0493  0.2533
15100TIP3    H166791   4.991   2.146   4.745  0.4436 -1.6308 -0.8001
15100TIP3    H266792   5.057   2.186   4.875 -1.0246  1.1706 -0.8299
15101TIP3   OH266793   6.657   5.426   1.790 -0.3174 -0.1555  0.2933
15101TIP3    H166794   6.709   5.402   1.713 -0.3365  0.3503  0.1204
15101TIP3    H266795   6.568   5.433   1.758 -0.3310  0.0189  0.3681
15102TIP3   OH266796   5.243   3.369   5.402  0.6446 -0.6940  0.0045
15102TIP3    H166797   5.285   3.303   5.345 -2.0505 -1.0278 -1.8046
15102TIP3    H266798   5.176   3.320   5.450  0.4456  0.2536  0.7202
15103TIP3   OH266799   1.215   6.207  16.858  0.3525 -0.2290 -0.1691
15103TIP3    H166800   1.265   6.268  16.912  0.1883 -0.1337 -0.1242
15103TIP3    H266801   1.266   6.127  16.859  0.0228 -0.4471  0.6870
15104TIP3   OH266802   4.591   3.486  12.682  0.1918 -0.5263  0.4155
15104TIP3    H166803   4.559   3.485  12.592  0.5379 -1.1000  0.2926
15104TIP3    H266804   4.568   3.400  12.717 -0.4064 -0.1203  1.0489
15105TIP3   OH266805   2.970   2.867   4.273 -0.2623  0.3688 -0.2364
15105TIP3    H166806   3.013   2.783   4.289  0.0069  0.6127  0.3360
15105TIP3    H266807   2.901   2.847   4.210 -0.3141 -0.3182  0.0312
15106TIP3   OH266808   5.088   2.503  15.082  0.3762 -0.6788  0.1607
15106TIP3    H166809   5.026   2.431  15.071  1.4913 -1.6782  0.2097
15106TIP3    H266810   5.081   2.553  15.002 -0.0637 -1.1284 -0.0876
15107TIP3   OH266811   2.282   1.066   4.532 -0.3287 -0.2271 -0.6199
15107TIP3    H166812   2.226   1.108   4.467 -1.9059  0.0074  0.8269
15107TIP3    H266813   2.250   0.976   4.538 -2.0293  0.4240  1.6611
15108TIP3   OH266814   1.500   3.171  10.905  0.1863 -0.4144 -0.3461
15108TIP3    H166815   1.595   3.174  10.919  0.3533 -2.0337 -0.9091
15108TIP3    H266816   1.487   3.098  10.844 -1.4090 -0.0759 -0.4600
15109TIP3   OH266817   6.656   0.753  13.417  0.5366  0.5250 -0.4007
15109TIP3    H166818   6.691   0.750  13.329 -0.3416 -1.4468 -0.7413
15109TIP3    H266819   6.571   0.796  13.407  2.0294  3.9806  0.2031
15110TIP3   OH266820   0.239   2.726   5.610 -0.0967  0.1423  0.4340
15110TIP3    H166821   0.203   2.789   5.547  0.4860  0.2749  0.2319
15110TIP3    H266822   0.211   2.641   5.577  0.3858  0.1952 -0.1259
15111TIP3   OH266823   5.923   0.152   2.501 -0.0476  0.3803  0.1787
15111TIP3    H166824   5.982   0.210   2.453  1.2045 -0.2186  0.9352
15111TIP3    H266825   5.973   0.071   2.512 -1.2602 -0.3687  0.2986
15112TIP3   OH266826   3.269   4.546  14.512  0.0018  0.0433  0.0165
15112TIP3    H166827   3.290   4.524  14.421 -0.4083  0.6912 -0.2440
15112TIP3    H266828   3.320   4.625  14.530  0.7430 -0.5554  0.6385
15113TIP3   OH266829   4.571   3.540  12.206 -0.4342 -0.2700  0.0607
15113TIP3    H166830   4.562   3.480  12.279 -0.8042  0.1935  0.4033
15113TIP3    H266831   4.616   3.489  12.138  1.9992 -0.0499  1.3877
15114TIP3   OH266832   2.744   4.432   1.683  0.1916 -0.1802 -0.2950
15114TIP3    H166833   2.698   4.427   1.767 -0.7923 -0.1217 -0.8227
15114TIP3    H266834   2.768   4.341   1.664  0.8568 -0.1327  0.2805
15115TIP3   OH266835   0.024   4.818   3.840 -0.2606 -0.2315 -0.2532
15115TIP3    H166836   0.046   4.840   3.931 -0.1583  1.1959 -0.5926
15115TIP3    H266837  -0.068   4.842   3.831 -0.2156 -0.1816 -0.5798
15116TIP3   OH266838   1.820   0.924   1.890  0.3899  0.2355 -0.4418
15116TIP3    H166839   1.728   0.910   1.865  0.2272 -1.2810  0.8887
15116TIP3    H266840   1.847   1.000   1.838 -0.9242 -0.6730 -2.5885
15117TIP3   OH266841   4.196   2.883  13.051 -0.6265 -0.7662 -0.1460
15117TIP3    H166842   4.212   2.804  13.103  1.6050 -0.1304  0.2532
15117TIP3    H266843   4.144   2.939  13.108  1.1927 -0.3663  1.2301
15118TIP3   OH266844   5.742   2.697  11.495 -0.0058 -0.2920  0.3566
15118TIP3    H166845   5.687   2.622  11.467 -0.9125  0.8815 -1.1920
15118TIP3    H266846   5.797   2.715  11.419 -1.6685  2.2437 -0.3542
15119TIP3   OH266847   2.004   0.489  11.834  0.4603  0.3429 -0.4753
15119TIP3    H166848   2.044   0.569  11.803 -0.2108  1.4934  1.4437
15119TIP3    H266849   2.067   0.452  11.895 -0.5964  1.2762  1.2668
15120TIP3   OH266850   6.018   6.153   1.379  0.0692  0.1397 -0.0452
15120TIP3    H166851   6.086   6.220   1.385  0.8353 -0.6572  0.5427
15120TIP3    H266852   5.951   6.192   1.324  1.0536  0.9137 -0.7405
15121TIP3   OH266853   3.129   0.021  11.527 -0.1798  0.3318 -0.0206
15121TIP3    H166854   3.205  -0.027  11.493 -0.4373 -0.0969 -0.0083
15121TIP3    H266855   3.085  -0.042  11.585 -0.1336  0.8246  0.5487
15122TIP3   OH266856   5.339   2.918  11.129  0.2340  0.1273  0.1621
15122TIP3    H166857   5.372   2.842  11.177 -0.1293 -0.5029 -0.5721
15122TIP3    H266858   5.257   2.941  11.173  0.4510  0.2281  0.5168
15123TIP3   OH266859   2.925   0.919   3.477 -0.5700 -0.0737  0.7012
15123TIP3    H166860   2.988   0.863   3.431  1.0606  0.2952  2.4076
15123TIP3    H266861   2.916   0.996   3.421  0.2206 -0.2916  0.2587
15124TIP3   OH266862   3.521   2.912  12.973 -0.3270 -0.3886 -0.3963
15124TIP3    H166863   3.614   2.934  12.970 -0.6201  0.8317 -1.5692
15124TIP3    H266864   3.483   2.957  12.897 -1.7067 -1.6701 -0.5134
15125TIP3   OH266865   2.817   5.231  16.480 -0.0464 -0.2122 -0.9189
15125TIP3    H166866   2.728   5.200  16.467 -0.6403  2.0080 -2.7918
15125TIP3    H266867   2.814   5.278  16.564 -0.5170 -0.5186 -0.7622
15126TIP3   OH266868   6.611   6.051   3.707 -0.6674  0.5698 -0.3642
15126TIP3    H166869   6.528   6.091   3.681 -1.3508  0.0114  0.8844
15126TIP3    H266870   6.621   6.073   3.799 -1.0877 -2.0799  0.3855
15127TIP3   OH266871   5.535   0.559   2.858  0.3635 -0.5155  0.2080
15127TIP3    H166872   5.477   0.487   2.836 -0.9084  1.0670 -2.1852
15127TIP3    H266873   5.518   0.577   2.950 -1.5390 -1.3614  0.0758
15128TIP3   OH266874   3.530   5.228   3.577  0.1494 -0.7368  0.0256
15128TIP3    H166875   3.606   5.243   3.520 -0.5681  0.0203 -0.7567
15128TIP3    H266876   3.456   5.266   3.529 -0.6817 -1.1927  0.9115
15129TIP3   OH266877   3.724   0.963  12.270 -0.1838  0.2119 -0.5047
15129TIP3    H166878   3.702   0.895  12.334 -0.8827  0.2110 -0.7427
15129TIP3    H266879   3.641   0.985  12.228  0.5400 -1.2353 -2.8777
15130TIP3   OH266880   3.672   1.488   2.678 -0.1561  0.0105 -0.5289
15130TIP3    H166881   3.737   1.515   2.613  0.4252  1.1336  0.4648
15130TIP3    H266882   3.721   1.487   2.760 -1.4286  1.0316  0.2738
15131TIP3   OH266883   2.617   6.127   5.581 -0.7296 -0.4183  0.3855
15131TIP3    H166884   2.661   6.195   5.631  0.6063  0.2848 -1.6001
15131TIP3    H266885   2.617   6.051   5.639  3.7970 -0.6771  0.4067
15132TIP3   OH266886   6.797   1.463   1.908  0.3784  0.0542 -0.2171
15132TIP3    H166887   6.716   1.448   1.956 -1.5415  2.4626 -2.4267
15132TIP3    H266888   6.791   1.404   1.833  1.0289 -0.2168 -0.0656
15133TIP3   OH266889   0.318   6.364   5.716  0.4125  0.3047 -0.3248
15133TIP3    H166890   0.402   6.333   5.749  0.9781  0.6307 -1.4078
15133TIP3    H266891   0.309   6.323   5.630 -1.0246 -0.5277  0.1878
15134TIP3   OH266892   3.001   4.849  12.077 -0.7178  0.4631  0.4267
15134TIP3    H166893   2.927   4.789  12.069 -0.0775 -0.2435 -0.3610
15134TIP3    H266894   3.078   4.794  12.066 -0.0874  1.3292  0.3744
15135TIP3   OH266895   5.251   4.728  11.358 -0.3947  0.6102  0.5821
15135TIP3    H166896   5.214   4.703  11.274  2.2526  4.0882 -1.8742
15135TIP3    H266897   5.284   4.646  11.395 -2.8931 -1.2418 -0.9533
15136TIP3   OH266898   4.358   1.853   3.958 -0.7781  0.1205 -0.6246
15136TIP3    H166899   4.430   1.878   4.016 -1.0163 -1.5999  0.4844
15136TIP3    H266900   4.284   1.906   3.985 -0.4645  0.4481 -0.4116
15137TIP3   OH266901   2.829   2.820   2.056 -0.1501 -0.1256 -0.4839
15137TIP3    H166902   2.816   2.861   1.971  2.6307  3.4369  0.5607
15137TIP3    H266903   2.922   2.797   2.059 -0.2061 -0.3284  1.5223
15138TIP3   OH266904   2.077   1.739   3.415 -0.4619  0.7738 -0.0663
15138TIP3    H166905   2.118   1.795   3.350  0.5113 -0.0498 -0.1853
15138TIP3    H266906   2.014   1.686   3.366  1.7846 -1.4050 -0.8331
15139TIP3   OH266907   3.656   1.574  12.752 -0.3909 -0.1652  0.7243
15139TIP3    H166908   3.719   1.507  12.778 -0.5678  0.4255  2.8864
15139TIP3    H266909   3.675   1.648  12.810 -1.7299  0.7820  0.0033
15140TIP3   OH266910   0.574   6.301   2.704  0.7003 -0.0612  0.2011
15140TIP3    H166911   0.554   6.225   2.758  0.9415  0.2722  0.7637
15140TIP3    H266912   0.656   6.279   2.660  0.4024 -0.4117 -0.1801
15141TIP3   OH266913   1.086   4.654  15.149  0.0360  0.1232 -0.7460
15141TIP3    H166914   1.108   4.711  15.075  2.1993  1.1456  0.5714
15141TIP3    H266915   1.098   4.565  15.115  2.0212  0.5833 -1.4115
15142TIP3   OH266916   2.882   0.040  13.545 -0.1107  0.0862 -0.3596
15142TIP3    H166917   2.899   0.131  13.568 -0.8704  0.1735 -0.1264
15142TIP3    H266918   2.952   0.017  13.484  0.7082  0.4991  0.3896
15143TIP3   OH266919   4.867   5.779   5.162  0.2722 -0.4893  0.4467
15143TIP3    H166920   4.925   5.741   5.096 -0.9223 -0.4428 -0.6707
15143TIP3    H266921   4.903   5.867   5.178 -0.5032  0.2774 -1.6361
15144TIP3   OH266922   0.969   1.242   4.113 -0.0451  0.2412 -0.5168
15144TIP3    H166923   1.022   1.198   4.179  0.7262  1.0891 -0.5331
15144TIP3    H266924   0.899   1.284   4.161 -0.8675 -1.0851 -0.5178
15145TIP3   OH266925   0.916   1.392  16.015  0.2900  0.3120  0.4445
15145TIP3    H166926   1.008   1.419  16.023 -0.2210  2.3554  0.0811
15145TIP3    H266927   0.871   1.470  15.982 -1.5479 -0.7136  0.3923
15146TIP3   OH266928   4.333   3.860   0.714 -0.1111  0.3571  0.1877
15146TIP3    H166929   4.297   3.884   0.629 -1.8668 -2.4634  0.0103
15146TIP3    H266930   4.427   3.876   0.706 -0.2591  0.2675 -2.2288
15147TIP3   OH266931   1.843   4.210   5.330  0.6034  0.2434 -0.2969
15147TIP3    H166932   1.838   4.301   5.301 -1.1284 -0.4877 -2.6415
15147TIP3    H266933   1.886   4.165   5.257 -0.5533 -1.1408 -0.1618
15148TIP3   OH266934   2.605   0.881   1.117 -0.4901  0.2300 -0.0706
15148TIP3    H166935   2.571   0.961   1.076 -0.3711  0.8679  1.0417
15148TIP3    H266936   2.564   0.879   1.203 -1.1468 -1.3742 -0.3933
15149TIP3   OH266937   1.193   4.633  13.085  0.0175  0.1951  0.3399
15149TIP3    H166938   1.160   4.721  13.064 -0.0799  0.2237  0.6088
15149TIP3    H266939   1.262   4.648  13.149 -1.2333 -0.0348  1.8059
15150TIP3   OH266940   4.957   0.794  14.792  0.0157 -0.0795  0.0706
15150TIP3    H166941   4.959   0.750  14.707  1.6246  0.6324 -0.3008
15150TIP3    H266942   4.950   0.887  14.770 -1.8141 -0.0265  0.8018
15151TIP3   OH266943   4.619   1.731   5.576  0.0267  0.5366  0.3514
15151TIP3    H166944   4.615   1.770   5.488  3.3261 -0.2204 -0.2696
15151TIP3    H266945   4.634   1.805   5.634 -3.5661  1.2344  0.6208
15152TIP3   OH266946   2.814   0.315  12.570  0.0703  0.3480  0.2171
15152TIP3    H166947   2.763   0.234  12.568  0.1040  0.3253 -1.1228
15152TIP3    H266948   2.902   0.287  12.595  0.3124 -0.2077 -1.1516
15153TIP3   OH266949   4.107   2.668   2.166  0.2017 -0.5422 -0.2174
15153TIP3    H166950   4.130   2.575   2.168  1.8676 -0.1514  0.4624
15153TIP3    H266951   4.166   2.706   2.101  0.2677  0.2090  0.2625
15154TIP3   OH266952   4.473   6.467   1.489 -0.7070  0.1876  0.2147
15154TIP3    H166953   4.450   6.524   1.563  2.2846 -0.4727  1.8115
15154TIP3    H266954   4.466   6.379   1.524  1.3533 -0.1169  0.0250
15155TIP3   OH266955   0.713   1.418  15.291 -0.5874  0.7844  0.7580
15155TIP3    H166956   0.748   1.397  15.204  0.4556 -1.4285  1.6473
15155TIP3    H266957   0.774   1.482  15.326 -0.4395  0.9248  0.2537
15156TIP3   OH266958   4.586   0.743   1.954 -0.3478 -0.6695  0.5461
15156TIP3    H166959   4.528   0.707   2.021 -2.0522  0.5093 -0.2460
15156TIP3    H266960   4.628   0.818   1.998 -0.8941 -0.3530  0.5368
15157TIP3   OH266961   4.581   2.879   1.907  0.2199 -0.0987 -0.0175
15157TIP3    H166962   4.556   2.942   1.975  1.0319  0.7068 -0.4446
15157TIP3    H266963   4.511   2.814   1.909 -1.9747  2.0478 -1.1356
15158TIP3   OH266964   1.239   5.655   6.167 -0.2533  0.2443  0.4787
15158TIP3    H166965   1.161   5.618   6.208 -0.1941  1.2972  1.6344
15158TIP3    H266966   1.209   5.738   6.129  0.2059  0.4578  0.5736
15159TIP3   OH266967   5.849   0.978   4.586  0.5353  0.0075 -0.4790
15159TIP3    H166968   5.772   0.927   4.561  0.4233 -1.0897  1.8143
15159TIP3    H266969   5.820   1.069   4.581  0.0108 -0.2215 -2.3864
15160TIP3   OH266970   3.660   2.293   5.838  0.0878 -0.1452  0.0859
15160TIP3    H166971   3.588   2.245   5.878 -0.6091  0.1006 -0.8468
15160TIP3    H266972   3.634   2.385   5.845 -0.2303 -0.1236 -1.2742
15161TIP3   OH266973   5.603   2.413  16.584  0.5034 -0.6441 -0.6241
15161TIP3    H166974   5.542   2.447  16.650 -0.3439 -1.1693 -1.1071
15161TIP3    H266975   5.668   2.483  16.572  0.0275 -0.0921 -0.0480
15162TIP3   OH266976   4.890   4.464  16.031 -0.2270 -0.6084  0.1404
15162TIP3    H166977   4.948   4.429  15.964 -1.4961 -1.5079 -0.5282
15162TIP3    H266978   4.911   4.557  16.035  0.6897 -0.7692 -0.6560
15163TIP3   OH266979   5.506   3.605   1.200  0.5204 -0.0188 -0.3035
15163TIP3    H166980   5.529   3.646   1.284  0.1052 -0.6365  0.1210
15163TIP3    H266981   5.504   3.678   1.138 -4.0856  1.4549  1.1395
15164TIP3   OH266982   2.035   0.289  10.859 -0.0614 -0.3680  0.3600
15164TIP3    H166983   2.105   0.309  10.798 -0.1392 -1.1380  0.0125
15164TIP3    H266984   1.967   0.354  10.840 -0.7761 -1.5921 -1.5140
15165TIP3   OH266985   3.498   2.554  14.640  0.0970 -0.5572  0.4515
15165TIP3    H166986   3.493   2.497  14.564  0.9029  1.3263 -1.0900
15165TIP3    H266987   3.574   2.523  14.689  0.2950 -1.0233 -0.1392
15166TIP3   OH266988   4.377   2.529   3.879  0.0005 -0.1877  0.3477
15166TIP3    H166989   4.330   2.583   3.816 -2.0385 -1.9380  0.2389
15166TIP3    H266990   4.311   2.507   3.945  0.8253 -2.1426  0.5985
15167TIP3   OH266991   0.042   5.937  15.613 -0.1863  0.3831  0.3785
15167TIP3    H166992   0.109   5.998  15.644  0.2535  0.2102 -0.2054
15167TIP3    H266993   0.009   5.977  15.532  1.0354 -0.7538 -0.7332
15168TIP3   OH266994   4.530   3.005  15.616 -0.2509  0.0141  0.3532
15168TIP3    H166995   4.537   3.100  15.617  2.0234 -0.0781  0.5052
15168TIP3    H266996   4.459   2.985  15.676  0.4852  1.5837  1.8474
15169TIP3   OH266997   3.180   6.469  13.747  0.5070 -0.1807  0.0165
15169TIP3    H166998   3.203   6.387  13.792  3.3070  1.1102  1.1447
15169TIP3    H266999   3.168   6.533  13.817  2.4667  1.3028 -0.9265
15170TIP3   OH267000   0.659   2.979  15.089  0.3124 -0.2845  0.2750
15170TIP3    H167001   0.597   2.938  15.029 -0.2554  2.5931 -1.3110
15170TIP3    H267002   0.745   2.960  15.051  0.0066  0.6971 -0.9800
15171TIP3   OH267003   3.469   5.971  16.403  0.0582  1.0834  0.1472
15171TIP3    H167004   3.549   6.024  16.396  0.3524  0.4376 -2.4995
15171TIP3    H267005   3.435   5.968  16.314 -2.3069  0.3444  1.0132
15172TIP3   OH267006   6.274   2.671   2.026 -0.2393  0.5787 -0.2462
15172TIP3    H167007   6.291   2.727   2.101  0.1334 -0.8570  0.7888
15172TIP3    H267008   6.360   2.641   1.998 -0.4269  0.5559 -0.8150
15173TIP3   OH267009   5.395   2.884  16.056 -0.1473  0.6428 -0.1056
15173TIP3    H167010   5.423   2.886  15.964  0.3983  1.3978  0.0677
15173TIP3    H267011   5.462   2.934  16.102  0.0871 -0.5175  0.8530
15174TIP3   OH267012   6.713   3.373   5.915 -0.0572 -0.6394 -0.0829
15174TIP3    H167013   6.759   3.437   5.861  0.2846 -0.0937  0.8313
15174TIP3    H267014   6.631   3.357   5.868  0.7897 -1.2004 -1.4470
15175TIP3   OH267015   6.111   3.298   2.745 -0.0005 -0.5726  0.2229
15175TIP3    H167016   6.035   3.283   2.689 -0.4705  1.4074  0.2466
15175TIP3    H267017   6.082   3.268   2.832 -0.1759 -1.2986 -0.0806
15176TIP3   OH267018   2.606   3.028  13.973  0.7140  0.4060  0.2911
15176TIP3    H167019   2.569   3.102  13.925  0.2208  0.5421  0.8704
15176TIP3    H267020   2.534   2.965  13.980  1.1973 -0.2488 -0.4151
15177TIP3   OH267021   0.314   3.171   2.056 -0.7077 -0.2507 -0.5353
15177TIP3    H167022   0.339   3.079   2.064 -0.3131 -0.0546  0.9440
15177TIP3    H267023   0.330   3.193   1.964  1.0713 -1.1541 -0.4859
15178TIP3   OH267024   4.152   4.588   2.592  0.1910 -0.3779 -0.3987
15178TIP3    H167025   4.165   4.507   2.640 -0.1588  0.3695  1.0211
15178TIP3    H267026   4.205   4.579   2.513  1.0462 -1.5162  0.2819
15179TIP3   OH267027   4.719   0.705  16.428  0.0838  0.2703  0.1872
15179TIP3    H167028   4.715   0.635  16.493  0.1683  0.2354  0.1546
15179TIP3    H267029   4.707   0.661  16.344  1.7675  0.0752  0.0186
15180TIP3   OH267030   6.815   3.178  11.903  0.0414 -0.1301  0.0320
15180TIP3    H167031   6.734   3.139  11.937  0.2989 -0.5535  0.1597
15180TIP3    H267032   6.877   3.171  11.976  0.3497 -0.2893 -0.2476
15181TIP3   OH267033   6.466   0.965  12.468 -1.1366  0.0269 -0.4946
15181TIP3    H167034   6.456   1.059  12.454 -2.5209  0.0494  0.4061
15181TIP3    H267035   6.551   0.943  12.429  1.3861  2.4358  3.0095
15182TIP3   OH267036   0.716   3.607   1.868  0.1593  0.5413 -0.2817
15182TIP3    H167037   0.732   3.690   1.822  1.1221  0.8165  0.5122
15182TIP3    H267038   0.798   3.590   1.915  0.0922 -1.0359 -0.6851
15183TIP3   OH267039   3.676   3.445   3.461 -0.7751 -0.3993  0.1116
15183TIP3    H167040   3.761   3.405   3.479  0.0600  0.7058 -1.2265
15183TIP3    H267041   3.612   3.375   3.477  0.2801 -0.9856  2.0257
15184TIP3   OH267042   5.619   3.410  11.287  0.3338 -0.0766 -0.5408
15184TIP3    H167043   5.655   3.423  11.199 -2.6633 -1.0427 -2.0721
15184TIP3    H267044   5.685   3.359  11.333  1.7172 -0.1212 -2.4484
15185TIP3   OH267045   2.085   4.189  14.346 -0.3026 -0.7819  0.2783
15185TIP3    H167046   2.099   4.096  14.365  1.5011 -1.0096 -1.7227
15185TIP3    H267047   2.125   4.201  14.259 -1.0974  1.7247  0.2011
15186TIP3   OH267048   3.881   4.766  11.956 -0.0426  0.4174 -0.1246
15186TIP3    H167049   3.968   4.726  11.961 -0.6943 -1.0361  0.1887
15186TIP3    H267050   3.825   4.709  12.009 -1.4682  0.4936 -1.4624
15187TIP3   OH267051   0.858   0.337  10.172  0.2716 -0.5786  0.1461
15187TIP3    H167052   0.769   0.309  10.154  0.8870 -2.1153 -0.6885
15187TIP3    H267053   0.900   0.341  10.086  1.1835 -0.5153  0.5849
15188TIP3   OH267054   4.725   0.244  16.926  0.0176 -0.5435 -0.1268
15188TIP3    H167055   4.741   0.261  16.833  0.7049 -0.7361 -0.0557
15188TIP3    H267056   4.713   0.331  16.965  1.2782 -0.3434 -0.1396
15189TIP3   OH267057   3.103   6.511   2.532  0.7574 -0.0176 -0.8542
15189TIP3    H167058   3.024   6.524   2.480  2.1913  1.5110 -2.7880
15189TIP3    H267059   3.165   6.469   2.473  1.7076 -0.3424  0.3288
15190TIP3   OH267060   5.447   5.966   2.704  0.4222 -0.4035  0.2401
15190TIP3    H167061   5.425   5.979   2.611 -3.1872  0.1634  1.0566
15190TIP3    H267062   5.496   5.884   2.705  1.7345  0.2081 -2.2497
15191TIP3   OH267063   3.363   2.370   5.855 -0.3195 -0.3034 -0.0668
15191TIP3    H167064   3.323   2.433   5.915 -1.5810 -0.7737 -0.3814
15191TIP3    H267065   3.395   2.300   5.912  1.6862  0.8811  0.3478
15192TIP3   OH267066   1.560   6.624   4.756 -0.5332 -0.5963  0.3803
15192TIP3    H167067   1.559   6.719   4.760  2.7800 -0.4625  0.7573
15192TIP3    H267068   1.482   6.597   4.806 -1.6934  1.8462  0.0478
15193TIP3   OH267069   1.462   6.503  16.123  0.7303  0.1443 -0.0965
15193TIP3    H167070   1.392   6.468  16.068  1.2356 -1.4973  0.2471
15193TIP3    H267071   1.542   6.462  16.090  1.2300  0.2854  0.8843
15194TIP3   OH267072   0.461   4.885  15.422 -0.2780  0.7941  0.0514
15194TIP3    H167073   0.464   4.954  15.356  0.8346  0.9749  0.2682
15194TIP3    H267074   0.387   4.908  15.478 -2.1329 -0.1066 -1.8974
15195TIP3   OH267075   1.928   6.513  10.897  0.8255 -0.4135 -0.1369
15195TIP3    H167076   1.995   6.515  10.828 -2.6269  2.1670 -3.9057
15195TIP3    H267077   1.962   6.571  10.965  2.3766  1.1137 -2.0864
15196TIP3   OH267078   4.978   5.431  15.896 -0.0453 -0.1215 -0.0450
15196TIP3    H167079   4.948   5.424  15.987  1.0427 -1.2682  0.2535
15196TIP3    H267080   4.978   5.525  15.878  1.4917  0.2988  1.7782
15197TIP3   OH267081   0.693   5.502  17.148 -0.3401  0.3417  0.1553
15197TIP3    H167082   0.690   5.451  17.067  0.1317 -1.2256  1.0695
15197TIP3    H267083   0.742   5.581  17.125  0.4186 -0.4089 -0.9090
15198TIP3   OH267084   6.163   4.812   1.654 -0.2454 -0.2512  1.0222
15198TIP3    H167085   6.088   4.770   1.695  0.2437 -1.3581  0.8248
15198TIP3    H267086   6.239   4.764   1.687  0.1629 -1.2543 -1.2142
15199TIP3   OH267087   1.720   2.995  16.352  0.0920  0.4654  0.1131
15199TIP3    H167088   1.634   3.035  16.340  0.7759  1.9037 -0.1884
15199TIP3    H267089   1.754   2.984  16.263 -0.4776 -1.7571  0.1242
15200TIP3   OH267090   1.420   1.855  13.540  0.8718 -0.2132 -0.5829
15200TIP3    H167091   1.337   1.880  13.580 -0.0129 -0.5512 -2.1409
15200TIP3    H267092   1.414   1.887  13.450  2.6706  0.2330 -0.5852
15201TIP3   OH267093   0.716   5.725  15.808 -0.1790  0.2069 -0.1811
15201TIP3    H167094   0.787   5.661  15.809  0.3793  0.6884 -2.4436
15201TIP3    H267095   0.736   5.782  15.733 -0.6636  3.0360  1.6932
15202TIP3   OH267096   3.548   4.125  14.834 -0.2152 -0.0163  0.2113
15202TIP3    H167097   3.465   4.099  14.793 -0.0985  0.3091 -0.2475
15202TIP3    H267098   3.609   4.135  14.760  1.3107 -3.8176  0.7722
15203TIP3   OH267099   5.638   1.168  16.968  0.2859  0.6838 -0.1958
15203TIP3    H167100   5.627   1.256  16.931  0.4928  1.3313  1.2182
15203TIP3    H267101   5.549   1.131  16.966  0.1508  1.0154 -0.5792
15204TIP3   OH267102   0.195   3.711   1.922  0.4166  0.6263  0.1468
15204TIP3    H167103   0.280   3.668   1.924  1.0760  1.9254  1.3642
15204TIP3    H267104   0.143   3.657   1.863  0.7037 -2.7176  2.6720
15205TIP3   OH267105   4.761   2.518  16.179 -0.1660 -0.2761  0.2024
15205TIP3    H167106   4.796   2.551  16.096 -1.3641  0.4891 -0.0265
15205TIP3    H267107   4.764   2.594  16.238 -2.4785  0.1708 -0.1752
15206TIP3   OH267108   1.543   2.266  14.310  0.4898 -0.2408  0.1763
15206TIP3    H167109   1.519   2.306  14.394  2.4728 -3.2972  2.4202
15206TIP3    H267110   1.480   2.195  14.298  0.6831 -0.3036 -0.5236
15207TIP3   OH267111   6.125   5.828  15.245  0.3710 -0.3883 -0.4264
15207TIP3    H167112   6.089   5.902  15.294 -0.2976 -0.1651 -1.2423
15207TIP3    H267113   6.205   5.863  15.205  1.1551 -0.6903  0.8209
15208TIP3   OH267114   6.297   1.167   2.769  0.5713  0.1924 -0.5794
15208TIP3    H167115   6.361   1.098   2.787  1.9308  1.5730  0.0618
15208TIP3    H267116   6.317   1.195   2.679  2.4391  2.1307  0.3459
15209TIP3   OH267117   1.325   2.494  11.135 -0.2550  0.3090 -0.3297
15209TIP3    H167118   1.345   2.401  11.128  1.3374  0.7460 -3.3059
15209TIP3    H267119   1.250   2.507  11.076 -1.9737  0.6450  1.7842
15210TIP3   OH267120   2.335   2.095  16.950 -0.3014 -0.2538 -0.2910
15210TIP3    H167121   2.249   2.127  16.977  0.6139  1.7801  0.4138
15210TIP3    H267122   2.342   2.118  16.857  0.1404  1.2746  0.0835
15211TIP3   OH267123   5.756   6.627   1.549 -0.0615 -0.4677 -0.8671
15211TIP3    H167124   5.801   6.692   1.495  0.6042 -0.0780  0.1079
15211TIP3    H267125   5.680   6.673   1.584 -0.5063 -0.7272 -1.4861
15212TIP3   OH267126   0.026   2.863   0.005  0.0679 -0.2081 -0.4089
15212TIP3    H167127   0.110   2.907  -0.006 -0.6061  0.8433 -1.6565
15212TIP3    H267128  -0.014   2.905   0.081 -0.9221  2.0608 -2.0588
15213TIP3   OH267129   4.861   0.339  11.410  0.3577 -0.0944  0.0537
15213TIP3    H167130   4.825   0.255  11.439 -2.1675  1.4238  1.5748
15213TIP3    H267131   4.788   0.384  11.367  0.9433  2.2713  1.3697
15214TIP3   OH267132   1.584   0.147   3.220 -0.1900 -0.2677 -0.5361
15214TIP3    H167133   1.607   0.068   3.171  0.0079 -0.6553  0.1710
15214TIP3    H267134   1.669   0.186   3.243 -0.2390 -0.8400  0.6942
15215TIP3   OH267135   3.447   4.692   3.297  0.1612  0.2277 -0.2461
15215TIP3    H167136   3.469   4.643   3.376 -1.9391 -0.4576 -0.0221
15215TIP3    H267137   3.353   4.709   3.305  0.3816  2.2633 -1.4632
15216TIP3   OH267138   2.785   5.201  12.986 -0.1725 -0.2795 -0.4044
15216TIP3    H167139   2.704   5.154  12.966 -0.6630  1.1721 -2.0722
15216TIP3    H267140   2.854   5.137  12.968 -0.8910 -1.6208  1.2679
15217TIP3   OH267141   2.561   1.722   5.129 -0.6798 -0.1443  0.3423
15217TIP3    H167142   2.531   1.750   5.215 -0.4678 -1.3784  0.8361
15217TIP3    H267143   2.532   1.630   5.122  0.9093 -0.6388 -0.1188
15218TIP3   OH267144   2.345   0.566  11.561 -0.4184  0.0753  0.1689
15218TIP3    H167145   2.438   0.579  11.546 -0.3378 -0.5569  0.1160
15218TIP3    H267146   2.338   0.546  11.655 -0.7511  2.3730  0.7035
15219TIP3   OH267147   5.863   0.623  12.453 -0.1907  0.1888  0.1999
15219TIP3    H167148   5.916   0.590  12.381 -1.1674  0.5584 -0.7080
15219TIP3    H267149   5.779   0.644  12.414 -0.5869  0.8632  1.3546
15220TIP3   OH267150   2.613   2.175   2.019 -0.1449  0.5755  0.2352
15220TIP3    H167151   2.626   2.123   1.939  3.8902  0.8115  0.5160
15220TIP3    H267152   2.616   2.266   1.990 -3.0493  0.7554  0.2482
15221TIP3   OH267153   3.339   6.454  12.133  0.3280 -0.4180 -0.3336
15221TIP3    H167154   3.318   6.427  12.044 -0.6286 -0.7202 -0.0310
15221TIP3    H267155   3.369   6.545  12.125 -2.6003  0.6362 -0.6800
15222TIP3   OH267156   6.529   2.038  12.932  0.1929 -0.1939  0.8721
15222TIP3    H167157   6.546   2.016  13.024  0.8918 -1.6416  0.4138
15222TIP3    H267158   6.613   2.071  12.900  0.0527 -0.0550  0.6497
15223TIP3   OH267159   6.480   3.203  15.443  0.1103  0.5368  0.1490
15223TIP3    H167160   6.429   3.201  15.362 -1.2057  0.7842  0.9367
15223TIP3    H267161   6.430   3.148  15.504  1.6651 -0.5698  0.4846
15224TIP3   OH267162   0.692   1.570   2.119  0.5330 -0.2041 -0.2134
15224TIP3    H167163   0.787   1.558   2.130  0.3217 -1.1205  0.7682
15224TIP3    H267164   0.682   1.664   2.106  1.6080 -0.1283 -0.6588
15225TIP3   OH267165   4.721   4.095  16.065  0.0424 -0.6267  0.0493
15225TIP3    H167166   4.759   4.111  15.978 -0.5528 -0.8353 -0.2537
15225TIP3    H267167   4.726   4.000  16.076 -0.0099 -0.6129  0.1870
15226TIP3   OH267168   6.687   1.180   5.327 -0.3331  0.0657 -0.5436
15226TIP3    H167169   6.691   1.158   5.234 -0.1674  0.3508 -0.6062
15226TIP3    H267170   6.603   1.225   5.337  0.1384  1.0405 -0.7860
15227TIP3   OH267171   1.661   2.135   1.240  0.2389 -0.2136  0.4822
15227TIP3    H167172   1.634   2.144   1.331 -0.8787 -1.1734  0.2685
15227TIP3    H267173   1.743   2.087   1.243  0.8011  0.7490  1.0236
15228TIP3   OH267174   3.276   5.850  14.690  0.2124 -0.3777  0.2741
15228TIP3    H167175   3.313   5.833  14.777  0.4443 -1.8311 -0.0831
15228TIP3    H267176   3.204   5.787  14.682  0.8147 -0.9565 -0.9561
15229TIP3   OH267177   2.869   0.850  14.925 -0.7574  0.3126  0.5096
15229TIP3    H167178   2.820   0.797  14.863  1.8013  0.5243 -1.9057
15229TIP3    H267179   2.921   0.787  14.976  1.4453  0.2683 -1.6066
15230TIP3   OH267180   1.056   2.705   3.311 -0.0042  0.1239  0.0372
15230TIP3    H167181   1.063   2.611   3.292 -1.1735 -0.3160  1.5993
15230TIP3    H267182   1.005   2.740   3.238 -0.3036 -0.6247 -0.1246
15231TIP3   OH267183   4.310   5.935   1.839 -0.0781  0.1113  0.2555
15231TIP3    H167184   4.215   5.937   1.854 -0.7147 -3.2712 -2.1771
15231TIP3    H267185   4.333   6.027   1.825 -3.0003  1.0444  0.7182
15232TIP3   OH267186   5.152   6.179   4.405  0.1059  0.0722  0.2581
15232TIP3    H167187   5.190   6.152   4.322  0.0979 -0.4184  0.4074
15232TIP3    H267188   5.116   6.098   4.442  1.2849  0.0052  1.3575
15233TIP3   OH267189   0.386   4.757  14.034 -0.4020  0.1729  0.0913
15233TIP3    H167190   0.316   4.821  14.050 -1.4256 -1.1305  0.9852
15233TIP3    H267191   0.357   4.707  13.958  0.0406  0.2609 -0.1434
15234TIP3   OH267192   2.611   6.013  16.813  0.6119  0.6993  0.1457
15234TIP3    H167193   2.558   5.997  16.735 -0.8662 -0.0773  1.2506
15234TIP3    H267194   2.559   6.074  16.865  2.1650  2.2320 -0.0044
15235TIP3   OH267195   5.023   2.389  13.367  0.2016  0.1862  0.1834
15235TIP3    H167196   4.995   2.343  13.288  0.7293 -0.9156  0.6134
15235TIP3    H267197   5.112   2.357  13.383  0.0825  0.3462  1.2492
15236TIP3   OH267198   3.563   3.749  13.934  0.8436 -0.4723 -0.2154
15236TIP3    H167199   3.625   3.819  13.951  0.0920  0.2268 -0.3017
15236TIP3    H267200   3.538   3.717  14.021 -2.3114  2.5033  0.2071
15237TIP3   OH267201   3.225   3.437  14.717 -0.0637 -0.1287 -0.1629
15237TIP3    H167202   3.161   3.388  14.666  0.7492 -0.5053 -0.8546
15237TIP3    H267203   3.247   3.512  14.662  1.0227 -0.6829 -0.5237
15238TIP3   OH267204   5.855   0.265  13.994  0.0440  0.3968 -0.0069
15238TIP3    H167205   5.779   0.276  14.050 -1.2080  0.5060 -1.6718
15238TIP3    H267206   5.872   0.171  13.994 -0.3550  0.3267  0.0176
15239TIP3   OH267207   5.754   1.160   1.710  1.1117 -0.4371  0.3128
15239TIP3    H167208   5.693   1.185   1.641 -0.0294  0.1969  1.4928
15239TIP3    H267209   5.840   1.159   1.669  0.4494 -0.1609 -1.1128
15240TIP3   OH267210   6.575   5.143  11.437  0.1607  0.3916 -0.1984
15240TIP3    H167211   6.537   5.105  11.516 -1.6580 -0.2387 -1.3048
15240TIP3    H267212   6.499   5.166  11.383  1.3430  0.3164 -1.9884
15241TIP3   OH267213   1.774   3.767   4.031 -0.1315 -0.2205 -0.0416
15241TIP3    H167214   1.785   3.862   4.030 -0.1850 -0.2005 -2.0591
15241TIP3    H267215   1.772   3.742   3.939 -1.1700 -2.0711  0.4435
15242TIP3   OH267216   5.564   1.217  14.244  0.2974  0.3144 -0.0497
15242TIP3    H167217   5.532   1.131  14.270  1.8047 -0.3202 -0.1898
15242TIP3    H267218   5.623   1.244  14.314 -0.8976  1.7100  0.4793
15243TIP3   OH267219   4.968   1.793  15.086 -0.8307  0.4456 -0.3489
15243TIP3    H167220   5.007   1.810  15.172 -2.5525 -0.4825  0.6878
15243TIP3    H267221   5.030   1.830  15.023  0.1902  1.7036  1.3094
15244TIP3   OH267222   1.755   2.552  14.347 -0.2010  0.0452 -0.1204
15244TIP3    H167223   1.775   2.643  14.366 -0.1622  0.4563 -1.9485
15244TIP3    H267224   1.688   2.528  14.411  1.4344  0.5898  1.9303
15245TIP3   OH267225   5.292   2.993   3.717 -0.1521  0.0714  0.6577
15245TIP3    H167226   5.199   3.017   3.719 -0.0902  0.2837  1.0269
15245TIP3    H267227   5.302   2.930   3.789  0.1573  0.6737  1.1574
15246TIP3   OH267228   6.606   0.392   5.720  0.1481  0.5311  0.5619
15246TIP3    H167229   6.679   0.393   5.782  0.6201  1.8628  0.0387
15246TIP3    H267230   6.644   0.425   5.638 -0.5108 -0.9812 -0.3961
15247TIP3   OH267231   3.496   6.419  15.596 -0.2372  0.4079 -0.5663
15247TIP3    H167232   3.502   6.416  15.501  0.1506  0.8366 -0.5592
15247TIP3    H267233   3.573   6.469  15.624  1.1835 -2.0368  0.1770
15248TIP3   OH267234   0.692   0.721   0.035 -0.2302  0.0909 -0.4971
15248TIP3    H167235   0.715   0.632   0.007 -0.2090  0.2029 -0.8312
15248TIP3    H267236   0.772   0.771   0.023 -0.3148  0.2141 -0.5477
15249TIP3   OH267237   4.028   5.375  11.520  0.4281 -0.0918  0.4962
15249TIP3    H167238   3.998   5.292  11.482 -0.9676  0.3590  0.5625
15249TIP3    H267239   3.949   5.415  11.556  0.9412  1.6281 -0.1933
15250TIP3   OH267240   6.466   4.155   3.535  0.4399 -0.0293  0.4815
15250TIP3    H167241   6.374   4.168   3.514 -0.3570 -0.6146  3.1461
15250TIP3    H267242   6.510   4.144   3.451 -2.1888 -1.4547 -0.8072
15251TIP3   OH267243   6.277   0.791   0.753 -0.0664 -0.1523 -0.3528
15251TIP3    H167244   6.221   0.853   0.799 -0.3562 -0.9587  0.4036
15251TIP3    H267245   6.225   0.711   0.747  0.5445 -0.5308 -0.7225
15252TIP3   OH267246   0.327   3.139  10.663  0.6613 -0.2555  0.0055
15252TIP3    H167247   0.265   3.174  10.727  0.8294 -2.4066  1.4922
15252TIP3    H267248   0.352   3.213  10.609 -0.6095  1.3651  1.5436
15253TIP3   OH267249   3.428   5.897  12.033 -0.2506  0.2499  0.0277
15253TIP3    H167250   3.469   5.984  12.026 -1.6612  0.8204 -1.7815
15253TIP3    H267251   3.475   5.844  11.969  0.1685 -0.1600  0.6655
15254TIP3   OH267252   3.003   6.579  15.432 -0.1864 -0.0750  0.4339
15254TIP3    H167253   2.908   6.574  15.423 -0.1405  0.0175 -0.1283
15254TIP3    H267254   3.018   6.663  15.474 -0.3440 -0.0124  0.3686
15255TIP3   OH267255   4.503   6.065   5.592 -0.9966 -0.0788 -0.2556
15255TIP3    H167256   4.595   6.059   5.564 -1.1455  0.6448 -0.9248
15255TIP3    H267257   4.486   6.158   5.600 -1.2711 -0.2307  1.2887
15256TIP3   OH267258   5.234   4.122   6.401 -0.5176 -0.1797 -0.1237
15256TIP3    H167259   5.202   4.113   6.490  2.9288 -1.2661  1.1775
15256TIP3    H267260   5.251   4.216   6.390 -0.2313 -0.1350  0.6750
15257TIP3   OH267261   4.229   5.377   0.245 -0.8203  0.2710 -0.4681
15257TIP3    H167262   4.306   5.387   0.188 -1.0718  1.1727 -0.6752
15257TIP3    H267263   4.265   5.357   0.331 -0.3759  0.1668 -0.6768
15258TIP3   OH267264   5.485   3.022   6.752  0.0660 -0.0023  0.4286
15258TIP3    H167265   5.523   3.107   6.773  1.0968 -0.7317  1.6688
15258TIP3    H267266   5.544   2.986   6.686  0.8687 -0.6180  1.4536
15259TIP3   OH267267   1.518   6.228  12.855  0.9900 -0.1126 -0.4291
15259TIP3    H167268   1.450   6.294  12.867  0.3498 -0.9722  0.9870
15259TIP3    H267269   1.599   6.278  12.844  0.4760  0.9201  0.3146
15260TIP3   OH267270   3.177   2.497   5.360 -0.2651 -0.3161 -0.2744
15260TIP3    H167271   3.107   2.433   5.376  0.0121 -0.6043 -0.2076
15260TIP3    H267272   3.213   2.516   5.446  0.5660 -1.1167 -0.4317
15261TIP3   OH267273   3.259   1.378  11.895 -0.6952 -0.2768  0.1468
15261TIP3    H167274   3.169   1.402  11.877 -0.2677  0.7814 -0.6569
15261TIP3    H267275   3.310   1.456  11.874  0.5030 -1.1326 -0.2582
15262TIP3   OH267276   3.759   0.820   2.890  0.3537  0.1539 -0.1444
15262TIP3    H167277   3.739   0.822   2.797 -0.5164 -0.9366 -0.0018
15262TIP3    H267278   3.828   0.754   2.899  0.1566 -0.0307  0.0258
15263TIP3   OH267279   5.098   0.781  10.837  0.3003  0.0156 -0.3632
15263TIP3    H167280   5.193   0.796  10.831  0.2929  0.5457  0.7610
15263TIP3    H267281   5.066   0.797  10.748  1.2696 -0.2440 -0.7751
15264TIP3   OH267282   5.838   1.395   5.347 -0.3655  0.2165 -0.0732
15264TIP3    H167283   5.761   1.447   5.368 -0.1713 -0.1966  1.8595
15264TIP3    H267284   5.804   1.320   5.298 -0.8941  1.1016 -1.0922
15265TIP3   OH267285   0.962   6.640   4.714  0.0991  0.0209  0.1037
15265TIP3    H167286   0.975   6.644   4.619  1.0579  0.8189  0.2566
15265TIP3    H267287   1.022   6.706   4.749  0.1264 -0.6211  1.3026
15266TIP3   OH267288   5.340   5.997   6.180 -0.8170 -0.1087  0.1951
15266TIP3    H167289   5.252   5.960   6.179 -0.2262 -1.5752 -0.5988
15266TIP3    H267290   5.335   6.070   6.242 -1.7910 -2.2161  2.7822
15267TIP3   OH267291   5.320   3.912  13.590 -0.0741 -0.5864  0.2418
15267TIP3    H167292   5.281   3.995  13.562  1.5746 -0.2705 -1.3150
15267TIP3    H267293   5.288   3.848  13.527  0.5019 -0.6650  0.0232
15268TIP3   OH267294   4.869   2.481   2.459 -0.1354 -0.2936 -0.1060
15268TIP3    H167295   4.872   2.443   2.547 -0.9454 -0.8248 -0.2957
15268TIP3    H267296   4.961   2.493   2.434  0.1013 -0.0605  0.8376
15269TIP3   OH267297   0.751   5.528  11.499  0.6598  0.0473 -0.2736
15269TIP3    H167298   0.738   5.495  11.588  1.0093  0.6006 -0.0123
15269TIP3    H267299   0.719   5.458  11.443  0.7897 -0.4690  0.2828
15270TIP3   OH267300   5.367   6.824   3.421  0.6778  0.3272  0.3846
15270TIP3    H167301   5.304   6.872   3.474  1.1822  2.2344 -0.6543
15270TIP3    H267302   5.452   6.859   3.446  1.0211  0.3785 -0.7972
15271TIP3   OH267303   3.087   3.731   0.027 -0.3345 -0.0855  0.9425
15271TIP3    H167304   3.070   3.637   0.037  1.2375 -0.6138 -0.7370
15271TIP3    H267305   3.016   3.762  -0.029 -1.5880  0.0490  2.5366
15272TIP3   OH267306   1.107   3.750  11.928  0.2532 -0.5844 -0.2861
15272TIP3    H167307   1.125   3.668  11.883 -0.4670  0.6130 -2.9530
15272TIP3    H267308   1.012   3.750  11.940  0.2553 -0.1588 -0.2564
15273TIP3   OH267309   5.754   3.055  12.934  0.3433 -0.1940  0.0600
15273TIP3    H167310   5.775   3.133  12.881  0.1332  0.0649  0.3521
15273TIP3    H267311   5.660   3.045  12.925  0.3804 -0.4581 -0.0309
15274TIP3   OH267312   3.495   5.069  15.649 -0.6816  0.0840  0.6579
15274TIP3    H167313   3.508   4.987  15.602 -0.7605  0.6804 -0.4350
15274TIP3    H267314   3.505   5.045  15.742 -1.7225 -1.3449  0.4312
15275TIP3   OH267315   2.204   6.481  14.880  0.7311 -0.1893 -0.4173
15275TIP3    H167316   2.253   6.417  14.932 -0.0505 -1.1467 -0.8309
15275TIP3    H267317   2.250   6.564  14.895  0.2884 -0.3338  2.1486
15276TIP3   OH267318   2.659   5.275  14.988 -0.0749 -0.0070  0.3806
15276TIP3    H167319   2.602   5.207  15.023  0.0818  0.8938  2.5210
15276TIP3    H267320   2.743   5.260  15.031 -0.0619  1.5474  0.9666
15277TIP3   OH267321   3.016   3.054   1.327 -0.3806  0.1046 -0.3270
15277TIP3    H167322   3.102   3.026   1.358 -0.5005 -0.2315 -0.2910
15277TIP3    H267323   2.989   3.122   1.389 -0.4825 -0.3435  0.1277
15278TIP3   OH267324   1.697   3.306  11.684 -0.4314 -0.1281  0.3741
15278TIP3    H167325   1.787   3.275  11.696  1.0399  3.8262  0.9685
15278TIP3    H267326   1.670   3.335  11.770 -1.6202  0.3571 -0.1438
15279TIP3   OH267327   3.169   3.991   0.191  0.4356 -0.0035  0.9822
15279TIP3    H167328   3.150   3.930   0.120  1.1194  0.1114  0.6897
15279TIP3    H267329   3.128   3.953   0.269 -0.9776  0.2496  0.3886
15280TIP3   OH267330   0.176   0.711  12.658  0.1122  0.5711  0.2304
15280TIP3    H167331   0.223   0.668  12.586  0.3003  1.2266 -0.0481
15280TIP3    H267332   0.196   0.804  12.647 -1.9255  1.0022 -0.4293
15281TIP3   OH267333   2.060   3.872  14.385  0.3511 -0.0054 -0.1374
15281TIP3    H167334   2.054   3.861  14.480 -0.3050  2.8775  0.2540
15281TIP3    H267335   1.970   3.865  14.355  0.4583 -0.1356 -0.4222
15282TIP3   OH267336   4.404   3.409  10.737  0.3952 -0.2401 -0.0190
15282TIP3    H167337   4.365   3.388  10.652  3.0216  2.8252 -2.2134
15282TIP3    H267338   4.381   3.501  10.752  0.2313 -0.6121  2.5617
15283TIP3   OH267339   6.406   4.274   4.450  0.3730 -0.4823 -0.1097
15283TIP3    H167340   6.478   4.314   4.402 -0.4689  0.2742 -0.7757
15283TIP3    H267341   6.412   4.312   4.538  0.3090  0.1954 -0.3934
15284TIP3   OH267342   4.371   6.365   2.659  0.4414  0.1215 -0.2991
15284TIP3    H167343   4.382   6.274   2.689  0.9768  0.1215 -0.4955
15284TIP3    H267344   4.456   6.406   2.674  0.0367  0.7585  0.3274
15285TIP3   OH267345   1.909   5.858  16.754 -0.0413 -0.3160 -0.3367
15285TIP3    H167346   1.850   5.926  16.721  0.4877  0.9399  1.2318
15285TIP3    H267347   1.912   5.872  16.848  0.5714 -2.1437 -0.0494
15286TIP3   OH267348   1.155   5.477   2.721  0.5402 -0.2561 -0.1212
15286TIP3    H167349   1.074   5.435   2.691 -0.0353 -0.0156  1.0397
15286TIP3    H267350   1.131   5.521   2.803  1.7781  0.0584  0.0995
15287TIP3   OH267351   6.132   0.886  10.401  0.3022  0.1502  0.0358
15287TIP3    H167352   6.099   0.823  10.464 -0.8411  2.5988  2.0328
15287TIP3    H267353   6.226   0.869  10.397  0.1204 -1.2367  0.9746
15288TIP3   OH267354   4.140   5.377  15.095 -0.3066  0.4271 -0.1655
15288TIP3    H167355   4.085   5.313  15.048 -0.9422  2.2617 -2.0790
15288TIP3    H267356   4.184   5.325  15.163 -0.7573 -2.0378 -1.6204
15289TIP3   OH267357   2.774   6.309   4.293 -0.5269  0.3745 -0.3533
15289TIP3    H167358   2.805   6.324   4.383  1.6884  1.7707 -1.2819
15289TIP3    H267359   2.734   6.392   4.267  1.9074  1.1870 -1.7615
15290TIP3   OH267360   4.777   4.348   0.135  0.3982  0.3786 -0.1150
15290TIP3    H167361   4.841   4.418   0.125 -1.7585  2.5391  0.0263
15290TIP3    H267362   4.794   4.312   0.222 -0.1332  2.6903  1.0321
15291TIP3   OH267363   6.420   0.725   5.013 -0.2314 -0.2688 -0.0112
15291TIP3    H167364   6.382   0.668   5.080  1.7362 -0.5044  0.9803
15291TIP3    H267365   6.346   0.748   4.957 -1.8069 -0.7133  1.7645
15292TIP3   OH267366   2.611   4.675  14.074  0.1818 -0.4721  0.4180
15292TIP3    H167367   2.668   4.668  13.998  0.5477 -0.9268  0.7304
15292TIP3    H267368   2.658   4.732  14.135  0.8945 -1.8412  1.1914
15293TIP3   OH267369   0.474   4.515  11.285  0.5841  0.0428  0.1280
15293TIP3    H167370   0.405   4.575  11.313 -0.6227 -0.8096 -0.9032
15293TIP3    H267371   0.474   4.446  11.351  2.2058  1.2752  1.5043
15294TIP3   OH267372   3.104   5.000   2.109  0.3947  0.0968  0.4983
15294TIP3    H167373   3.058   4.984   2.026 -1.0721 -0.0146  1.2931
15294TIP3    H267374   3.092   5.094   2.125  2.5344  0.5944 -0.4409
15295TIP3   OH267375   2.179   3.291   2.326  0.0396 -0.1257  0.0642
15295TIP3    H167376   2.197   3.201   2.300  0.8167  0.1684 -0.4451
15295TIP3    H267377   2.098   3.286   2.376  0.7084 -1.2927  1.1029
15296TIP3   OH267378   2.870   4.677   3.809  0.5391  0.3384 -0.0304
15296TIP3    H167379   2.876   4.680   3.905 -1.1049  0.0422  0.0931
15296TIP3    H267380   2.825   4.758   3.786  2.2683  1.1680 -0.7111
15297TIP3   OH267381   1.374   0.183  16.156 -0.0853 -0.0819  0.1626
15297TIP3    H167382   1.347   0.225  16.074  0.1224  0.4307  0.3532
15297TIP3    H267383   1.356   0.090  16.142  0.5650 -0.0856 -0.7159
15298TIP3   OH267384   6.283   1.448  14.269  0.6597 -0.3018 -0.1517
15298TIP3    H167385   6.327   1.532  14.266  0.8132 -0.2166  2.2926
15298TIP3    H267386   6.229   1.452  14.348 -0.8698 -1.7826 -1.0440
15299TIP3   OH267387   1.151   2.735  10.409 -0.0057  0.2827 -0.4212
15299TIP3    H167388   1.192   2.772  10.487  0.5075 -1.8124  0.3681
15299TIP3    H267389   1.219   2.739  10.342  0.1552  0.4015 -0.2523
15300TIP3   OH267390   3.056   1.805   6.271 -1.1040  0.3382  0.1997
15300TIP3    H167391   3.138   1.848   6.294  0.4972 -2.1625 -0.4092
15300TIP3    H267392   3.063   1.718   6.309 -3.1413 -0.2217 -0.5486
15301TIP3   OH267393   5.561   5.212   1.900  0.3331 -0.6864  0.4259
15301TIP3    H167394   5.595   5.164   1.975 -0.4605 -1.1233  0.5127
15301TIP3    H267395   5.474   5.240   1.927  0.7578  0.7719  0.3578
15302TIP3   OH267396   0.929   4.646  11.115 -0.2869  0.0408 -0.3725
15302TIP3    H167397   0.873   4.572  11.090 -2.4272  0.8050  1.8098
15302TIP3    H267398   1.014   4.606  11.136 -1.0828 -1.6699 -0.2256
15303TIP3   OH267399   1.905   0.299  15.079 -0.6318  0.5532 -0.0062
15303TIP3    H167400   1.819   0.340  15.086 -0.5300  0.7077  0.4079
15303TIP3    H267401   1.886   0.208  15.058 -1.0434 -0.0272  2.4924
15304TIP3   OH267402   6.428   6.274  17.066  0.2497  0.0280 -0.0661
15304TIP3    H167403   6.411   6.180  17.070 -0.7842  0.2350  1.1596
15304TIP3    H267404   6.351   6.314  17.108 -0.0727  1.5142 -1.9191
15305TIP3   OH267405   2.070   4.368  16.412  0.2238  0.3798  0.7756
15305TIP3    H167406   2.043   4.346  16.501 -2.0570 -2.6769 -0.5035
15305TIP3    H267407   2.010   4.437  16.385 -1.2380 -0.8680  0.6537
15306TIP3   OH267408   5.200   1.137  11.788  0.0162  0.5126 -0.1345
15306TIP3    H167409   5.146   1.088  11.851  0.4807 -0.3597 -0.3924
15306TIP3    H267410   5.178   1.229  11.804 -0.6756  0.2423  0.5598
15307TIP3   OH267411   4.621   2.562   3.020 -0.1527 -0.0488 -0.0922
15307TIP3    H167412   4.714   2.585   3.015 -0.2152  0.6974  1.5347
15307TIP3    H267413   4.578   2.642   3.049 -0.6322 -1.5631  4.0602
15308TIP3   OH267414   5.584   4.612  11.223 -0.0267 -0.5272  0.4442
15308TIP3    H167415   5.607   4.692  11.271  0.5077 -0.9449  0.8990
15308TIP3    H267416   5.632   4.543  11.268 -1.7255 -1.3628  1.0785
15309TIP3   OH267417   4.535   6.264  11.538  0.4638 -0.7239  0.0317
15309TIP3    H167418   4.558   6.355  11.559 -2.7486  0.1444  0.3112
15309TIP3    H267419   4.580   6.247  11.455  1.2276  1.0744  0.0251
15310TIP3   OH267420   6.008   0.516  14.015  0.2361 -0.1503  0.2928
15310TIP3    H167421   5.987   0.539  13.924  0.0015  0.8236  0.5746
15310TIP3    H267422   5.988   0.423  14.021 -1.6593  0.1840 -0.1475
15311TIP3   OH267423   6.021   2.882  12.841 -0.1202 -0.2548  0.0733
15311TIP3    H167424   5.954   2.950  12.835 -0.3931 -0.5048  0.3117
15311TIP3    H267425   6.097   2.920  12.795  0.7908  1.5300  2.7592
15312TIP3   OH267426   1.053   6.390  13.160 -0.0398 -0.1473  0.1576
15312TIP3    H167427   1.111   6.322  13.125  0.5296 -0.0332  0.8825
15312TIP3    H267428   0.968   6.345  13.170 -0.7273  0.2234 -2.9230
15313TIP3   OH267429   4.712   5.538  12.518  0.2024  0.4384  0.5190
15313TIP3    H167430   4.672   5.456  12.547 -1.4175  0.8644 -0.3410
15313TIP3    H267431   4.712   5.594  12.595  2.8952 -0.8489  1.5869
15314TIP3   OH267432   2.652   5.432   3.675 -0.7201 -0.4338  0.4659
15314TIP3    H167433   2.637   5.354   3.729  1.9774 -0.8710  0.7261
15314TIP3    H267434   2.641   5.505   3.736 -0.9408 -0.7366  0.7969
15315TIP3   OH267435   5.824   1.177  12.875 -0.3993  0.5746 -0.3808
15315TIP3    H167436   5.821   1.142  12.786  1.6543  0.0459 -0.3087
15315TIP3    H267437   5.894   1.243  12.872  0.6271 -0.3634  1.0842
15316TIP3   OH267438   5.339   6.802   1.203  0.4563  0.2418  0.2695
15316TIP3    H167439   5.247   6.825   1.220  1.1795  2.7178  1.3026
15316TIP3    H267440   5.344   6.708   1.218 -2.2299 -0.2864 -1.4016
15317TIP3   OH267441   2.565   1.881   4.473 -0.5145  0.1457  0.4367
15317TIP3    H167442   2.506   1.827   4.527 -0.1465  0.5743  1.2820
15317TIP3    H267443   2.508   1.950   4.439 -0.7178 -0.0424  0.3838
15318TIP3   OH267444   1.942   4.023   0.687  0.5929 -0.8963  0.7236
15318TIP3    H167445   1.866   3.966   0.688  2.0304 -2.9348  0.5632
15318TIP3    H267446   1.927   4.083   0.615 -0.5401 -1.7123  0.2562
15319TIP3   OH267447   6.092   1.229   4.781 -0.4085 -0.1006  0.6151
15319TIP3    H167448   5.997   1.242   4.790 -0.3247  0.6928  0.3954
15319TIP3    H267449   6.111   1.255   4.691  0.4546  2.6488  1.4744
15320TIP3   OH267450   3.690   0.016   4.126  0.1119 -0.0484 -0.7486
15320TIP3    H167451   3.617   0.064   4.086 -0.1084 -0.8618 -1.3332
15320TIP3    H267452   3.650  -0.058   4.170  0.5193 -0.0882 -0.4385
15321TIP3   OH267453   4.241   6.568  14.945  0.0884 -0.0011  0.3369
15321TIP3    H167454   4.208   6.536  15.028  1.6226 -0.4330  0.8203
15321TIP3    H267455   4.169   6.618  14.908 -0.0153  1.9344  2.8676
15322TIP3   OH267456   1.518   6.690   6.510  0.8112 -0.2311  0.1384
15322TIP3    H167457   1.446   6.675   6.448  0.1866 -0.5044  0.9124
15322TIP3    H267458   1.478   6.740   6.581  1.4788 -0.0593  0.3941
15323TIP3   OH267459   3.468   1.804   5.085  0.3006 -0.6286 -0.2802
15323TIP3    H167460   3.491   1.764   5.001 -0.0718 -0.8474 -0.2772
15323TIP3    H267461   3.414   1.739   5.129  0.4910 -0.5153  0.1330
15324TIP3   OH267462   1.700   4.965  16.326  0.2548 -0.8672 -0.1997
15324TIP3    H167463   1.678   4.873  16.309 -0.3219 -0.8473  0.3942
15324TIP3    H267464   1.626   5.014  16.291  0.6801 -0.6113 -0.7429
15325TIP3   OH267465   2.152   6.642   0.231 -0.0776  0.2266  0.6766
15325TIP3    H167466   2.155   6.734   0.257 -1.8899  0.4329  0.2697
15325TIP3    H267467   2.100   6.600   0.300  0.3264 -0.4090  0.5992
15326TIP3   OH267468   1.668   1.145  16.338 -0.1674  0.5129  0.6624
15326TIP3    H167469   1.579   1.135  16.371  0.3775 -1.4750  1.6737
15326TIP3    H267470   1.657   1.165  16.245 -1.6626  1.7509  1.0630
15327TIP3   OH267471   0.402   5.095  13.750  0.6190  0.2143  0.1066
15327TIP3    H167472   0.467   5.142  13.802  0.0050 -0.4208  1.4852
15327TIP3    H267473   0.334   5.160  13.732  0.6344  0.3300  0.4582
15328TIP3   OH267474   2.024   3.190   1.774  0.0209 -0.2859 -0.1492
15328TIP3    H167475   1.955   3.256   1.770  1.0992  1.0090  1.1412
15328TIP3    H267476   2.104   3.237   1.750  0.8379 -1.0839  0.8846
15329TIP3   OH267477   5.552   1.529  11.281  0.2217  0.3075  0.5200
15329TIP3    H167478   5.505   1.479  11.215  0.7263  0.0579  0.3469
15329TIP3    H267479   5.542   1.479  11.362 -0.7722  0.8390  0.7388
15330TIP3   OH267480   2.582   4.009  14.861  0.7396 -0.2382  0.0437
15330TIP3    H167481   2.617   4.083  14.811 -0.8232  0.2992 -0.3039
15330TIP3    H267482   2.646   3.940  14.849  0.8704  0.1845 -1.9393
15331TIP3   OH267483   1.259   3.714   4.512  0.4073  0.4252  0.4109
15331TIP3    H167484   1.293   3.781   4.572  1.8088  0.0036  0.1138
15331TIP3    H267485   1.303   3.731   4.429  0.8266 -0.8717  0.3413
15332TIP3   OH267486   5.233   0.862  13.046 -0.0014  0.5148  0.1138
15332TIP3    H167487   5.188   0.916  12.982  0.3218  2.3407  1.3533
15332TIP3    H267488   5.165   0.808  13.085 -0.5810  1.0251 -0.1898
15333TIP3   OH267489   2.879   0.133  11.568  0.4539  0.1294  0.1141
15333TIP3    H167490   2.940   0.080  11.516 -1.1319 -1.3807 -0.2584
15333TIP3    H267491   2.886   0.098  11.656 -1.9827 -2.1591 -0.4677
15334TIP3   OH267492   6.496   2.952   5.431  0.0341  0.2925 -0.1422
15334TIP3    H167493   6.478   3.032   5.480 -0.4723  1.4142 -2.0688
15334TIP3    H267494   6.575   2.916   5.472  1.2517  2.6652 -0.2562
15335TIP3   OH267495   3.408   3.735  17.022  0.2599 -0.1375  0.0497
15335TIP3    H167496   3.437   3.827  17.027  0.4265 -0.2529  1.8208
15335TIP3    H267497   3.360   3.730  16.940  2.0936  0.9917 -1.1722
15336TIP3   OH267498   1.358   2.840   4.506 -0.0400  0.1748 -0.3527
15336TIP3    H167499   1.440   2.857   4.460  0.8670 -0.6446  0.8740
15336TIP3    H267500   1.385   2.825   4.597 -1.3800 -1.5998 -0.2059
15337TIP3   OH267501   2.085   3.400  16.166 -0.0980 -0.3508  0.4027
15337TIP3    H167502   2.158   3.411  16.105  0.7625 -0.9447  1.2802
15337TIP3    H267503   2.038   3.323  16.135 -1.0264  0.6564 -0.7920
15338TIP3   OH267504   1.958   1.334  15.363  0.7827  0.1239  0.1764
15338TIP3    H167505   1.920   1.263  15.312  1.2081 -0.2411  0.3585
15338TIP3    H267506   1.890   1.402  15.364  0.0750 -0.5782  0.6427
15339TIP3   OH267507   1.141   2.816  13.110 -0.1040 -0.4323  0.0100
15339TIP3    H167508   1.076   2.851  13.171  1.1855  1.7113  0.2538
15339TIP3    H267509   1.155   2.726  13.138 -3.3005 -1.1690 -0.3881
15340TIP3   OH267510   3.117   4.793  15.157 -0.1763 -0.3188  0.2280
15340TIP3    H167511   3.092   4.742  15.080 -0.5667 -1.1734  0.9061
15340TIP3    H267512   3.081   4.880  15.141 -0.5250 -0.5737 -0.4107
15341TIP3   OH267513   4.455   4.420   5.495  0.1172 -0.0240 -0.0866
15341TIP3    H167514   4.463   4.454   5.584  0.5949 -0.4231  0.0229
15341TIP3    H267515   4.422   4.495   5.444 -3.0874 -0.5523  0.9557
15342TIP3   OH267516   5.681   6.074   3.779 -0.7718  0.4730 -0.6128
15342TIP3    H167517   5.652   5.990   3.744  1.0699 -1.9048  2.9150
15342TIP3    H267518   5.772   6.082   3.750 -0.1149 -0.1494  1.1630
15343TIP3   OH267519   0.988   0.742  14.441  0.2216  0.1060 -0.3559
15343TIP3    H167520   1.072   0.698  14.457 -0.8626 -2.7783 -1.9135
15343TIP3    H267521   0.999   0.784  14.356  0.6485  1.3753  0.2985
15344TIP3   OH267522   6.626   3.002   6.364 -0.0278 -0.3547 -0.4584
15344TIP3    H167523   6.691   2.990   6.433  1.3413 -1.0196 -1.7963
15344TIP3    H267524   6.637   3.093   6.336  1.5566 -0.8935 -1.7838
15345TIP3   OH267525   5.218   1.939  16.750 -0.2891 -0.1408 -0.3688
15345TIP3    H167526   5.233   1.871  16.684  1.6611 -2.1859  1.9649
15345TIP3    H267527   5.306   1.960  16.782 -0.9381  2.8389 -0.3098
15346TIP3   OH267528   0.291   5.233  14.557 -0.0449 -0.8932  0.7231
15346TIP3    H167529   0.348   5.205  14.485  0.4059 -0.0761  0.7475
15346TIP3    H267530   0.351   5.249  14.630  0.4140  4.0073 -0.3765
15347TIP3   OH267531   4.512   1.709  14.108  0.0533 -0.1826  0.2468
15347TIP3    H167532   4.558   1.630  14.079  0.5168  0.5656 -1.2141
15347TIP3    H267533   4.580   1.760  14.153 -0.2959 -0.6951  1.3672
15348TIP3   OH267534   3.329   0.900  12.484 -0.8352  0.3009 -0.0444
15348TIP3    H167535   3.271   0.836  12.442 -1.6921  0.1883  1.2507
15348TIP3    H267536   3.307   0.983  12.443  0.5021 -0.2021 -1.9719
15349TIP3   OH267537   4.615   6.333  15.943 -0.4098  0.0007 -0.5442
15349TIP3    H167538   4.621   6.248  15.899 -0.6111 -0.7862  0.8877
15349TIP3    H267539   4.702   6.346  15.982 -0.5376  0.1972 -0.3196
15350TIP3   OH267540   2.731   3.340  11.892  0.2463 -0.4616 -0.5953
15350TIP3    H167541   2.755   3.353  11.984  0.7481 -3.5252 -0.1662
15350TIP3    H267542   2.641   3.372  11.886  0.3447  0.1785  0.8488
15351TIP3   OH267543   2.857   2.735   0.398 -0.1288  0.0485 -0.1555
15351TIP3    H167544   2.796   2.661   0.389 -1.1624  0.7037  1.1349
15351TIP3    H267545   2.944   2.695   0.394 -0.6667 -1.2875  0.8430
15352TIP3   OH267546   6.249   2.690   0.673  0.8630 -0.2040  0.5559
15352TIP3    H167547   6.294   2.706   0.756 -0.8332 -1.7612  1.8684
15352TIP3    H267548   6.157   2.680   0.697 -0.4687  3.4539 -2.0575
15353TIP3   OH267549   1.647   1.929   3.871 -0.0138  0.0126 -0.3238
15353TIP3    H167550   1.665   1.858   3.933  1.9409 -0.4866 -1.3670
15353TIP3    H267551   1.708   1.999   3.897  1.1007 -0.3486 -1.8692
15354TIP3   OH267552   3.286   2.957  13.138 -0.1963 -0.0258  0.1251
15354TIP3    H167553   3.204   2.929  13.096  0.4379  0.7465 -1.7211
15354TIP3    H267554   3.353   2.944  13.071  0.8750  1.2938  0.8977
15355TIP3   OH267555   4.139   2.052  12.837 -0.2589  0.5316 -0.1414
15355TIP3    H167556   4.161   2.081  12.926 -0.8968 -0.5951  0.4016
15355TIP3    H267557   4.121   1.959  12.846  1.5729 -0.0474 -1.8170
15356TIP3   OH267558   6.718   5.285   3.676  0.1697  0.0962 -0.1261
15356TIP3    H167559   6.727   5.378   3.652 -1.2326  1.1723  3.0023
15356TIP3    H267560   6.625   5.266   3.662  0.3315 -0.6715 -0.1690
15357TIP3   OH267561   5.306   2.718   4.293 -0.1571 -0.1998  0.1170
15357TIP3    H167562   5.233   2.759   4.247 -0.8281 -1.0131  0.4363
15357TIP3    H267563   5.373   2.786   4.297 -0.3631  0.1281 -1.4071
15358TIP3   OH267564   0.333   3.186  13.478 -0.1434 -0.4587  0.0402
15358TIP3    H167565   0.344   3.091  13.466 -1.0214 -0.6396  0.6241
15358TIP3    H267566   0.244   3.204  13.450  0.3562  0.3892 -1.0902
15359TIP3   OH267567   1.159   2.105  14.252  0.3467 -0.1316  0.7478
15359TIP3    H167568   1.125   2.040  14.190  1.2768  1.0438 -1.0445
15359TIP3    H267569   1.139   2.190  14.212 -0.8424  0.7684  3.0369
15360TIP3   OH267570   4.116   4.568   2.922 -0.0999  0.2925  0.3049
15360TIP3    H167571   4.154   4.596   2.838 -0.2639 -0.2912  0.0270
15360TIP3    H267572   4.022   4.569   2.906 -0.1059 -0.7001  0.1789
15361TIP3   OH267573   0.921   3.218  12.776 -0.3724  0.0048  0.5000
15361TIP3    H167574   1.011   3.245  12.792 -0.0572  0.5419 -1.8200
15361TIP3    H267575   0.904   3.244  12.686 -0.8802 -5.2417 -1.2557
15362TIP3   OH267576   4.327   5.357  12.817 -0.3082  0.5836 -0.0762
15362TIP3    H167577   4.288   5.443  12.835 -3.7032 -1.3140  2.8132
15362TIP3    H267578   4.273   5.320  12.748 -1.2678 -0.5476  1.2251
15363TIP3   OH267579   2.672   3.496  13.148 -0.3334 -0.0434  0.0096
15363TIP3    H167580   2.654   3.481  13.240  0.3917 -1.7861 -0.0862
15363TIP3    H267581   2.622   3.429  13.102  0.0180  0.2227 -0.7868
15364TIP3   OH267582   5.446   4.439   4.955 -0.2482 -0.3312  0.1366
15364TIP3    H167583   5.476   4.526   4.980  1.8487 -0.6180 -1.1134
15364TIP3    H267584   5.498   4.379   5.007 -0.5138 -0.8585 -0.1914
15365TIP3   OH267585   1.253   4.822  12.026 -0.2466 -0.2646 -0.0051
15365TIP3    H167586   1.188   4.862  11.968 -1.9286  0.8406  2.4431
15365TIP3    H267587   1.337   4.843  11.986 -1.2574  1.8042 -1.2106
15366TIP3   OH267588   3.056   4.428  12.376 -0.4269 -0.4311 -0.4235
15366TIP3    H167589   2.988   4.362  12.360 -3.0419  1.6356  1.1606
15366TIP3    H267590   3.088   4.409  12.464  1.3038 -1.5187 -1.2409
15367TIP3   OH267591   0.961   2.233  12.015 -0.6115 -0.5173 -0.8107
15367TIP3    H167592   0.981   2.322  11.987 -1.0444 -0.3500 -0.6070
15367TIP3    H267593   1.041   2.202  12.058 -0.5644 -0.1075 -0.5972
15368TIP3   OH267594   2.163   5.726  16.779  0.5779  0.8125  0.2753
15368TIP3    H167595   2.087   5.781  16.759 -0.7035 -1.2016 -0.6812
15368TIP3    H267596   2.136   5.674  16.855 -0.4702 -2.4396 -2.1563
15369TIP3   OH267597   0.141   6.043   2.833 -0.8300 -0.2079  0.0237
15369TIP3    H167598   0.188   6.076   2.909 -0.8300 -0.9640  0.3608
15369TIP3    H267599   0.188   5.963   2.809 -0.1540  0.5773 -1.4475
15370TIP3   OH267600   3.915   6.579  12.762 -0.3207  0.1376 -0.0670
15370TIP3    H167601   3.928   6.670  12.736  1.2679  0.5968  2.0148
15370TIP3    H267602   3.993   6.534  12.731  0.0696  0.0424  0.9929
15371TIP3   OH267603   3.477   1.270   5.866 -0.5032 -0.2976 -0.1344
15371TIP3    H167604   3.486   1.238   5.956 -2.7574 -0.3841  0.0986
15371TIP3    H267605   3.470   1.365   5.875  1.7335 -0.0453 -0.4722
15372TIP3   OH267606   6.823   4.542  16.794 -0.0548 -0.3436 -0.5379
15372TIP3    H167607   6.866   4.627  16.791 -0.5984 -0.0458 -0.2396
15372TIP3    H267608   6.799   4.524  16.704 -0.8056  0.2919 -0.4855
15373TIP3   OH267609   0.948   3.434  16.527 -0.0922  0.4265  0.4414
15373TIP3    H167610   0.862   3.414  16.563 -0.4448  0.4203 -0.3974
15373TIP3    H267611   0.936   3.514  16.476 -0.1948 -0.8872 -1.7424
15374TIP3   OH267612   4.370   5.106  11.948  0.0821 -0.4633  0.3480
15374TIP3    H167613   4.427   5.062  12.012  0.9393 -0.6313 -0.4979
15374TIP3    H267614   4.422   5.107  11.868 -0.6655  0.4455 -0.1405
15375TIP3   OH267615   1.269   6.808   3.685  0.4478 -0.4107  0.4572
15375TIP3    H167616   1.337   6.844   3.628 -0.9349 -0.0891 -1.0635
15375TIP3    H267617   1.191   6.805   3.630 -1.0851  0.3371  2.4639
15376TIP3   OH267618   5.578   5.235  11.233 -0.3984  0.1203 -0.2273
15376TIP3    H167619   5.503   5.179  11.211  0.0320 -1.1770  1.4176
15376TIP3    H267620   5.644   5.214  11.167 -0.6860 -0.3998 -0.3557
15377TIP3   OH267621   0.111   6.104   0.042 -0.0904 -0.1470  0.1611
15377TIP3    H167622   0.034   6.130   0.093 -1.4079  3.6400 -3.2119
15377TIP3    H267623   0.185   6.143   0.089 -0.9125  0.7721  0.7453
15378TIP3   OH267624   2.138   2.974   2.441 -0.4665  1.1021  0.2243
15378TIP3    H167625   2.111   2.931   2.360 -1.2934  1.0711  0.5073
15378TIP3    H267626   2.064   2.962   2.500  1.0351 -1.0395  1.8465
15379TIP3   OH267627   1.802   6.564  15.983 -0.0649  0.3026 -0.1002
15379TIP3    H167628   1.770   6.474  15.974  0.0614  0.2891 -0.4568
15379TIP3    H267629   1.831   6.570  16.074 -0.5548  0.1442  0.0726
15380TIP3   OH267630   1.499   1.993   1.846 -0.0084 -0.3102  0.3367
15380TIP3    H167631   1.484   2.050   1.921  0.6563  0.2414  0.0480
15380TIP3    H267632   1.429   2.016   1.784 -0.2510 -0.4143  0.5663
15381TIP3   OH267633   5.188   5.297  16.454  0.8994 -0.0040 -0.2211
15381TIP3    H167634   5.124   5.364  16.429 -0.0889 -0.5872  0.6839
15381TIP3    H267635   5.234   5.336  16.529 -0.4087 -0.7164  1.0029
15382TIP3   OH267636   6.726   2.884  15.249 -0.1759  0.2200 -0.2360
15382TIP3    H167637   6.729   2.805  15.195  0.3171  0.5151 -0.6426
15382TIP3    H267638   6.813   2.890  15.289 -0.2984  0.4097  0.0074
15383TIP3   OH267639   6.287   5.776  13.636  0.1794 -0.9767  0.0152
15383TIP3    H167640   6.204   5.788  13.588 -0.3206  0.4807  1.1540
15383TIP3    H267641   6.271   5.701  13.693 -0.0617 -1.2246 -0.3702
15384TIP3   OH267642   1.530   2.854  11.032  0.0252  0.2247  0.8446
15384TIP3    H167643   1.579   2.771  11.029  0.0831  0.2654  0.6270
15384TIP3    H267644   1.513   2.874  10.940 -1.7619 -0.5912  0.9582
15385TIP3   OH267645   2.836   5.429  15.323  0.4076 -0.3360 -0.3102
15385TIP3    H167646   2.851   5.521  15.301  1.8847 -0.5394 -0.2055
15385TIP3    H267647   2.923   5.391  15.332 -0.1775 -1.6139  0.2566
15386TIP3   OH267648   1.079   5.135  16.560  0.5828 -0.5511  0.1216
15386TIP3    H167649   1.150   5.144  16.496 -2.6411 -2.0403 -4.1298
15386TIP3    H267650   1.019   5.207  16.539  0.0866 -0.1156  2.6966
15387TIP3   OH267651   5.723   1.664   3.232  0.3525  0.1323 -0.1749
15387TIP3    H167652   5.741   1.571   3.248 -0.4073 -0.0748 -0.4767
15387TIP3    H267653   5.628   1.668   3.218  0.6049  0.6745 -2.0457
15388TIP3   OH267654   6.736   3.358  13.366 -0.0671 -0.5581  0.5504
15388TIP3    H167655   6.814   3.309  13.341  0.1652 -1.3355  2.6260
15388TIP3    H267656   6.666   3.293  13.367 -0.1773 -0.4311  1.3396
15389TIP3   OH267657   5.249   2.095   1.210  0.1182 -0.0600 -0.3241
15389TIP3    H167658   5.216   2.127   1.294  0.3251  1.2399 -0.7155
15389TIP3    H267659   5.343   2.113   1.213  0.6063 -2.2967  0.1457
15390TIP3   OH267660   2.473   5.803   4.079 -0.3369 -0.3116  0.5119
15390TIP3    H167661   2.555   5.840   4.049 -0.5174 -0.8339 -0.6720
15390TIP3    H267662   2.437   5.758   4.003 -0.7512 -1.8047  1.5299
15391TIP3   OH267663   0.527   4.022  13.492 -0.6336 -0.1057 -0.0242
15391TIP3    H167664   0.566   4.026  13.579  0.8075 -0.1090 -0.6378
15391TIP3    H267665   0.449   3.969  13.503 -1.1491  0.9120  1.4922
15392TIP3   OH267666   5.906   5.053  12.347  0.2539  0.6751  0.2991
15392TIP3    H167667   5.941   5.036  12.260 -0.5169  0.2354  0.0651
15392TIP3    H267668   5.906   4.968  12.391 -1.6889  0.3777 -0.1623
15393TIP3   OH267669   5.108   4.958  14.530 -0.2529 -0.3705  0.0712
15393TIP3    H167670   5.085   4.946  14.622 -0.6559  0.3504  0.0744
15393TIP3    H267671   5.097   4.871  14.491 -0.0927 -0.6760  0.6979
15394TIP3   OH267672   0.404   4.103  15.638  0.1369 -0.0332  0.4438
15394TIP3    H167673   0.347   4.110  15.715  1.6374  0.5860  1.5720
15394TIP3    H267674   0.427   4.010  15.634 -2.3388 -0.6566 -1.1476
15395TIP3   OH267675   6.081   0.685  11.692  0.4026 -0.3868  0.0254
15395TIP3    H167676   6.036   0.768  11.677  0.3783  0.2010  2.8417
15395TIP3    H267677   6.028   0.641  11.759  1.3253 -1.9448 -0.2177
15396TIP3   OH267678   4.259   5.763  12.330  0.2555  0.7058 -0.4257
15396TIP3    H167679   4.271   5.675  12.295 -0.9949  0.7594 -1.0277
15396TIP3    H267680   4.277   5.821  12.255  1.3386  0.9890  0.0351
15397TIP3   OH267681   6.059   3.974  16.118 -0.2670 -0.1792 -0.0125
15397TIP3    H167682   6.143   3.965  16.164  0.2714 -1.8053 -1.2208
15397TIP3    H267683   6.083   4.004  16.031 -0.7751 -2.1288 -0.8541
15398TIP3   OH267684   4.532   3.692   4.824  0.0769  0.2412  0.0326
15398TIP3    H167685   4.504   3.768   4.773 -0.2769  0.0497 -0.0683
15398TIP3    H267686   4.569   3.729   4.904 -0.2199  0.5184  0.0465
15399TIP3   OH267687   3.988   4.139   2.367 -0.2714 -0.2517  0.2215
15399TIP3    H167688   4.054   4.208   2.364 -0.9605  0.5878  2.3568
15399TIP3    H267689   4.007   4.092   2.448 -1.1754 -1.1607 -0.0781
15400TIP3   OH267690   2.360   0.613  13.842  0.3740 -0.1259 -0.2188
15400TIP3    H167691   2.436   0.664  13.871 -1.8063  2.8008  0.8424
15400TIP3    H267692   2.313   0.593  13.923 -0.1809 -1.6557 -0.8854
15401TIP3   OH267693   5.374   1.795   1.163 -0.3122  0.3579  0.4504
15401TIP3    H167694   5.289   1.829   1.133  0.5674  1.4071 -0.9427
15401TIP3    H267695   5.399   1.732   1.096 -0.0942 -0.1571  1.0045
15402TIP3   OH267696   5.415   3.799   2.762 -0.8737  0.2041 -0.2595
15402TIP3    H167697   5.352   3.744   2.810 -2.9765  0.4794 -2.5024
15402TIP3    H267698   5.459   3.849   2.830 -1.1387 -1.9478  1.6266
15403TIP3   OH267699   2.032   0.264   2.972  0.3158  0.4332  0.0350
15403TIP3    H167700   2.096   0.200   2.941 -0.9070 -1.2540  0.8668
15403TIP3    H267701   2.071   0.299   3.053  0.8913  0.6292 -0.3162
15404TIP3   OH267702   0.172   1.130  11.036  0.8092  0.3625 -0.0195
15404TIP3    H167703   0.256   1.089  11.017  0.4693 -0.2070 -0.3237
15404TIP3    H267704   0.110   1.083  10.981  0.2669  0.6668  0.3270
15405TIP3   OH267705   5.938   3.174   0.413 -0.2922 -0.4949  0.8837
15405TIP3    H167706   6.006   3.123   0.456  0.6416  0.5172  0.6404
15405TIP3    H267707   5.980   3.257   0.390 -0.9601 -0.7094 -1.3541
15406TIP3   OH267708   0.269   5.011  15.002 -0.1366  0.0701 -0.4757
15406TIP3    H167709   0.261   4.916  15.004 -0.7206  0.0353 -2.4434
15406TIP3    H267710   0.360   5.027  14.977  0.3334  0.0760  1.1661
15407TIP3   OH267711   2.179   4.359   4.017  0.2188  0.1424  0.9570
15407TIP3    H167712   2.232   4.280   4.025  0.2391  0.2950  2.5956
15407TIP3    H267713   2.144   4.355   3.928  1.1359 -1.1185  0.6267
15408TIP3   OH267714   1.781   0.955   0.839  0.1725  0.4632 -0.6686
15408TIP3    H167715   1.794   1.046   0.864  1.9940  0.7692 -2.4733
15408TIP3    H267716   1.869   0.918   0.837 -0.6092 -1.8132  1.4449
15409TIP3   OH267717   5.840   1.690   2.105 -0.0974 -0.6597 -0.0362
15409TIP3    H167718   5.814   1.609   2.060 -2.9776 -0.7856  1.5924
15409TIP3    H267719   5.804   1.760   2.050  0.7420 -0.5593 -0.4675
15410TIP3   OH267720   5.154   0.229  16.423 -0.5829 -0.4362  0.8472
15410TIP3    H167721   5.071   0.214  16.379 -0.3889 -1.3300  0.7743
15410TIP3    H267722   5.148   0.319  16.456 -1.7253 -0.6339  1.1863
15411TIP3   OH267723   0.275   0.286  16.648  0.4309 -0.9360  0.1364
15411TIP3    H167724   0.238   0.310  16.733 -1.9208 -0.0093 -1.0560
15411TIP3    H267725   0.351   0.343  16.637  0.2675 -0.4828  1.2637
15412TIP3   OH267726   5.149   6.294   2.734  0.3675 -0.2239 -0.0961
15412TIP3    H167727   5.230   6.289   2.682  0.1013 -1.2455 -0.4453
15412TIP3    H267728   5.088   6.236   2.688 -0.5883  0.5686  0.1336
15413TIP3   OH267729   2.637   2.896   4.333  0.0993 -0.2751 -0.7574
15413TIP3    H167730   2.698   2.824   4.318  0.4286  0.3798 -2.9889
15413TIP3    H267731   2.680   2.952   4.398  0.5266 -1.2888 -0.1501
15414TIP3   OH267732   3.331   4.167   4.283 -0.1365  0.3277 -0.2206
15414TIP3    H167733   3.391   4.098   4.254 -0.5044  0.1574 -0.5855
15414TIP3    H267734   3.353   4.181   4.375 -0.4006 -0.6465  0.0099
15415TIP3   OH267735   0.267   5.259  16.880 -0.3054  0.4951  0.4885
15415TIP3    H167736   0.237   5.170  16.896 -1.4464  0.4212 -1.6486
15415TIP3    H267737   0.362   5.252  16.871 -0.6050 -1.3921 -3.7568
15416TIP3   OH267738   1.222   4.122   1.592  0.5827  0.3839  0.1107
15416TIP3    H167739   1.190   4.107   1.503  0.0813 -0.1409  0.3690
15416TIP3    H267740   1.272   4.043   1.612  0.2855  0.2837  0.4696
15417TIP3   OH267741   1.366   3.539   5.357 -0.1573 -0.3156  0.1545
15417TIP3    H167742   1.374   3.623   5.403  0.2813 -0.4640  0.3639
15417TIP3    H267743   1.272   3.521   5.356 -0.1605 -0.4171  1.2028
15418TIP3   OH267744   6.272   4.922  14.584  0.3742 -1.2089 -0.0903
15418TIP3    H167745   6.211   4.993  14.565  0.3432 -1.2242 -0.0495
15418TIP3    H267746   6.358   4.958  14.563  0.5650 -0.4764  1.7523
15419TIP3   OH267747   0.218   3.428   4.835  0.4175 -0.0466  0.1045
15419TIP3    H167748   0.302   3.474   4.837  0.5677 -0.3407  0.6421
15419TIP3    H267749   0.214   3.391   4.746  0.4941  0.6231 -0.1830
15420TIP3   OH267750   6.703   2.984   0.551  0.3625  0.4321  0.2987
15420TIP3    H167751   6.757   3.053   0.515  0.1913  0.2448 -0.3286
15420TIP3    H267752   6.758   2.942   0.617  1.3406 -0.3545 -0.9668
15421TIP3   OH267753   6.211   0.901  12.430  0.2787  0.0016 -0.1064
15421TIP3    H167754   6.200   0.819  12.381 -0.4803  0.0950 -0.0980
15421TIP3    H267755   6.303   0.923  12.418  0.4108 -0.6683 -0.4046
15422TIP3   OH267756   5.371   4.951   0.261  0.1309 -0.2432  0.1257
15422TIP3    H167757   5.392   4.858   0.255 -0.9939 -0.4777 -0.3241
15422TIP3    H267758   5.283   4.959   0.224 -0.4960  0.7375  1.7192
15423TIP3   OH267759   6.068   1.664  16.463 -0.1814 -0.4806  0.0360
15423TIP3    H167760   5.982   1.636  16.494 -0.3045  0.4127  0.5371
15423TIP3    H267761   6.050   1.708  16.380 -0.2819  0.1464  0.3820
15424TIP3   OH267762   3.312   4.532  13.699  0.3023 -0.3234  0.0362
15424TIP3    H167763   3.241   4.489  13.651  0.4452 -0.9438  0.3791
15424TIP3    H267764   3.305   4.624  13.674 -1.1832 -0.2228  0.7376
15425TIP3   OH267765   3.596   3.875  16.116 -0.1887 -0.3636  0.4043
15425TIP3    H167766   3.686   3.894  16.140 -0.3888 -0.7245  1.5166
15425TIP3    H267767   3.601   3.836  16.029  0.5694  1.0774 -0.2310
15426TIP3   OH267768   2.400   2.461  12.182 -0.1109  0.5122 -0.5729
15426TIP3    H167769   2.347   2.449  12.260  0.0469  0.2842 -0.5023
15426TIP3    H267770   2.478   2.509  12.212 -0.6586  1.6009 -0.8210
15427TIP3   OH267771   3.345   2.203  16.050  0.3819 -0.0643 -0.3284
15427TIP3    H167772   3.254   2.227  16.072  0.7934  0.0659  1.3857
15427TIP3    H267773   3.385   2.182  16.135  2.0294  0.1015 -1.0354
15428TIP3   OH267774   3.087   4.391   0.398 -0.3779  0.3931  0.3279
15428TIP3    H167775   3.176   4.368   0.369 -0.4414  2.0262 -1.2652
15428TIP3    H267776   3.099   4.471   0.449 -0.7790 -0.2607  1.4880
15429TIP3   OH267777   2.242   5.991  11.719  0.1337  0.1766  0.7630
15429TIP3    H167778   2.282   5.905  11.726 -1.2083 -0.7772 -2.0481
15429TIP3    H267779   2.149   5.975  11.730 -0.0523  1.4338  1.1492
15430TIP3   OH267780   0.734   5.341   2.800 -0.4915 -0.4601 -0.3780
15430TIP3    H167781   0.662   5.298   2.754 -0.5544 -0.8971  0.1257
15430TIP3    H267782   0.739   5.297   2.884  1.6910 -1.8563 -1.1565
15431TIP3   OH267783   3.987   5.023   6.032 -0.3512 -0.1404 -0.1935
15431TIP3    H167784   3.937   5.064   6.103 -0.1215  2.3117 -1.3494
15431TIP3    H267785   4.063   5.080   6.020  0.5943 -1.5455 -1.1829
15432TIP3   OH267786   4.288   1.072  15.002 -0.0467  0.2277 -0.0624
15432TIP3    H167787   4.222   1.138  14.981 -1.0447 -0.8110 -0.2862
15432TIP3    H267788   4.254   1.028  15.080  1.4006  1.0170  1.0761
15433TIP3   OH267789   0.087   6.076   4.480  0.1416  0.1463  0.3496
15433TIP3    H167790   0.089   6.106   4.571  0.1282  0.5630  0.2101
15433TIP3    H267791   0.027   6.135   4.436 -0.2907 -0.4034  0.1866
15434TIP3   OH267792   4.496   1.310   3.372  0.6242 -0.0472  0.2470
15434TIP3    H167793   4.490   1.255   3.293  0.2302 -0.6903  0.7164
15434TIP3    H267794   4.582   1.290   3.409  0.8201  0.2743 -0.0270
15435TIP3   OH267795   5.208   3.574  16.371  0.5356  0.0454  0.2615
15435TIP3    H167796   5.206   3.593  16.277 -0.1455  0.5882  0.3728
15435TIP3    H267797   5.219   3.660  16.412 -1.7563  0.1760  0.7488
15436TIP3   OH267798   1.888   0.583  12.875 -0.2591 -0.2021  0.7625
15436TIP3    H167799   1.848   0.633  12.945 -0.0391  1.1937 -0.0745
15436TIP3    H267800   1.828   0.509  12.861 -1.0973  0.3404  1.3868
15437TIP3   OH267801   0.375   3.133   0.354  0.3952  0.5322  0.3369
15437TIP3    H167802   0.308   3.178   0.302 -1.2038 -0.2390  1.6309
15437TIP3    H267803   0.407   3.199   0.415 -0.0855  0.5946  0.5236
15438TIP3   OH267804   5.547   0.374   1.778  0.3187  0.0511  0.1094
15438TIP3    H167805   5.490   0.357   1.704 -0.6661 -0.0463  0.8743
15438TIP3    H267806   5.492   0.418   1.843  1.7088  2.2438 -0.0726
15439TIP3   OH267807   4.927   3.286   2.828 -0.0913 -0.3689 -0.4093
15439TIP3    H167808   4.849   3.233   2.818  0.1115 -1.0337  1.2450
15439TIP3    H267809   5.000   3.224   2.818  0.1748 -0.1443  0.1028
15440TIP3   OH267810   3.558   5.456  11.467 -0.2716 -0.2146  0.0511
15440TIP3    H167811   3.562   5.488  11.377  0.6988  1.3315  0.6030
15440TIP3    H267812   3.644   5.476  11.504 -0.9170 -0.0684  1.5694
15441TIP3   OH267813   6.649   1.519  16.197 -0.2278  0.1946  0.3252
15441TIP3    H167814   6.681   1.444  16.248 -0.2934  0.4624  0.7689
15441TIP3    H267815   6.706   1.523  16.121 -0.6481 -0.7230 -0.0557
15442TIP3   OH267816   5.621   2.859   5.061  0.5137 -0.3822 -0.9262
15442TIP3    H167817   5.589   2.776   5.096  0.3909 -0.1566 -0.4949
15442TIP3    H267818   5.563   2.878   4.988 -0.6861  0.2742  0.1616
15443TIP3   OH267819   1.436   2.463  16.749 -0.0479  0.2196  0.2294
15443TIP3    H167820   1.489   2.482  16.671  1.3453  0.2128  1.1329
15443TIP3    H267821   1.392   2.545  16.769  0.9213  0.7151  0.3952
15444TIP3   OH267822   2.688   2.253  14.579  0.0824  0.2907  0.2791
15444TIP3    H167823   2.619   2.312  14.611 -1.6797 -1.3506 -0.2632
15444TIP3    H267824   2.716   2.291  14.496 -1.2755  0.2422 -0.2282
15445TIP3   OH267825   2.272   6.264   0.036 -0.1507 -0.1769 -0.5426
15445TIP3    H167826   2.307   6.227   0.117 -0.7083  1.6564  0.5820
15445TIP3    H267827   2.331   6.232  -0.032  1.2633 -0.4893  0.7760
15446TIP3   OH267828   6.219   4.558  17.163  0.0936  0.0050 -0.8073
15446TIP3    H167829   6.126   4.571  17.182 -0.1134 -0.1053 -1.7017
15446TIP3    H267830   6.258   4.645  17.175 -0.4494  0.4588 -2.1404
15447TIP3   OH267831   6.622   3.751  11.827 -0.5689  0.3006  0.0530
15447TIP3    H167832   6.539   3.715  11.796 -0.7215  0.5897  0.1182
15447TIP3    H267833   6.597   3.813  11.896 -0.1192 -2.2429  2.6873
15448TIP3   OH267834   4.439   4.554   5.723 -0.3925  0.3697 -0.3264
15448TIP3    H167835   4.470   4.493   5.790 -1.3644 -0.8915 -0.9760
15448TIP3    H267836   4.375   4.609   5.768 -0.0609  0.4159  0.0914
15449TIP3   OH267837   6.728   6.281  13.199 -0.4373  0.1160  0.2560
15449TIP3    H167838   6.777   6.237  13.129 -0.6571  0.5893 -0.2031
15449TIP3    H267839   6.636   6.259  13.180 -0.4834  0.1056  0.4948
15450TIP3   OH267840   6.000   0.977   0.797 -0.4931 -0.1762  0.3260
15450TIP3    H167841   6.015   1.069   0.819  1.3200 -0.5455  0.8189
15450TIP3    H267842   5.996   0.975   0.702 -0.0048  0.3618  0.2898
15451TIP3   OH267843   6.226   2.549  16.408 -0.1782  0.0669 -0.1206
15451TIP3    H167844   6.299   2.610  16.409  1.3180 -1.6570  0.5210
15451TIP3    H267845   6.255   2.478  16.350 -0.5041 -1.5744  1.6206
15452TIP3   OH267846   1.270   4.492  11.476  0.4695 -0.3775 -0.1239
15452TIP3    H167847   1.299   4.447  11.397  0.9658 -0.3608  0.0429
15452TIP3    H267848   1.308   4.580  11.469 -0.6629  0.1000 -0.5498
15453TIP3   OH267849   4.016   6.771   1.362  0.5160 -0.0994  0.3628
15453TIP3    H167850   3.939   6.717   1.378  0.8275 -0.2811  1.3239
15453TIP3    H267851   3.981   6.857   1.339 -0.0104  0.0964  1.7501
15454TIP3   OH267852   1.187   3.392  12.055  0.2375 -0.6478 -0.4705
15454TIP3    H167853   1.215   3.431  11.972  1.0370  1.7569  0.8345
15454TIP3    H267854   1.100   3.429  12.070 -0.9810 -2.9829 -1.3386
15455TIP3   OH267855   5.246   6.528  15.856  0.2754  0.2545  0.0308
15455TIP3    H167856   5.153   6.550  15.845  0.1191 -0.5149 -0.2573
15455TIP3    H267857   5.263   6.461  15.790  0.4540 -1.2073  1.4942
15456TIP3   OH267858   5.749   3.642   3.762 -0.6249 -0.0891  0.1278
15456TIP3    H167859   5.721   3.569   3.818 -0.3075 -0.1563  0.2011
15456TIP3    H267860   5.707   3.625   3.678  0.0564 -0.7802 -0.0923
15457TIP3   OH267861   3.829   5.510  12.168  0.0700  0.0034 -0.2956
15457TIP3    H167862   3.778   5.577  12.122  2.2699  1.6556 -0.5430
15457TIP3    H267863   3.765   5.459  12.216 -1.8011  1.8826 -0.6563
15458TIP3   OH267864   3.809   2.457  12.324  0.0762 -0.5330  0.0482
15458TIP3    H167865   3.747   2.499  12.266 -0.2604 -0.7003  0.2854
15458TIP3    H267866   3.895   2.474  12.285 -0.1232 -0.3581 -0.3098
15459TIP3   OH267867   1.939   2.290   3.129  0.2124  0.5144 -0.0929
15459TIP3    H167868   2.002   2.348   3.171 -0.2502  0.6502  0.4228
15459TIP3    H267869   1.980   2.204   3.133  1.3115  0.9102 -1.6671
15460TIP3   OH267870   3.928   0.970  12.823  0.5497  0.3800  0.2054
15460TIP3    H167871   3.869   0.929  12.759 -0.4592 -0.3108  1.4983
15460TIP3    H267872   3.885   1.053  12.844  1.2709  0.9540 -0.5437
15461TIP3   OH267873   4.434   2.259  11.043 -0.5349  0.1308 -0.1318
15461TIP3    H167874   4.347   2.220  11.037 -1.7508  2.1924  2.1718
15461TIP3    H267875   4.449   2.299  10.958 -1.0855 -1.6307 -1.0949
15462TIP3   OH267876   2.941   1.157   1.075 -0.2431  0.0616  0.0900
15462TIP3    H167877   3.008   1.224   1.066  0.5966 -0.8828 -1.0252
15462TIP3    H267878   2.893   1.181   1.154 -0.7614  2.6329 -0.9237
15463TIP3   OH267879   5.973   2.781  13.904 -0.2570  0.6452 -0.2080
15463TIP3    H167880   5.941   2.739  13.824 -3.7423  2.1092  0.2222
15463TIP3    H267881   5.922   2.739  13.974 -0.1216  2.0796  0.7816
15464TIP3   OH267882   4.725   5.296   4.522  0.3493  0.7541  0.4876
15464TIP3    H167883   4.795   5.343   4.477  0.7199 -0.2366 -0.0033
15464TIP3    H267884   4.649   5.305   4.464  1.1563 -1.6181 -1.0782
15465TIP3   OH267885   4.227   3.880  11.329 -0.2813  0.6817  0.2706
15465TIP3    H167886   4.304   3.846  11.374 -0.2887  1.1119  0.6142
15465TIP3    H267887   4.153   3.854  11.383 -0.5148 -0.8623 -0.7221
15466TIP3   OH267888   4.710   4.006   4.346 -0.3392  0.4931 -0.3779
15466TIP3    H167889   4.668   3.945   4.407 -1.4250 -0.0592 -1.6242
15466TIP3    H267890   4.718   4.088   4.395 -1.8977  0.2960  0.2644
15467TIP3   OH267891   0.981   5.253  11.718  0.4668  0.3200 -0.1082
15467TIP3    H167892   1.033   5.305  11.657 -0.2668  1.3971  0.1678
15467TIP3    H267893   1.040   5.182  11.745  1.0669  0.2981 -1.4280
15468TIP3   OH267894   3.984   4.761  15.126  0.3294 -0.2210  0.1880
15468TIP3    H167895   3.931   4.737  15.202 -2.8408  1.8988 -1.1092
15468TIP3    H267896   4.054   4.696  15.123 -1.1336 -2.1350  3.1746
15469TIP3   OH267897   4.602   2.778   3.286  0.2209 -0.1818  0.2312
15469TIP3    H167898   4.582   2.862   3.243 -1.1090 -0.3366  0.5002
15469TIP3    H267899   4.527   2.722   3.264  1.0894 -1.3051  0.0660
15470TIP3   OH267900   5.293   4.472  12.845  0.0823  0.2522  0.3600
15470TIP3    H167901   5.284   4.406  12.915  0.0435 -0.9705 -0.7648
15470TIP3    H267902   5.211   4.466  12.796 -0.0299  1.3446  0.4006
15471TIP3   OH267903   1.820   5.258   3.031  0.1893 -0.8674  0.8339
15471TIP3    H167904   1.739   5.308   3.020  1.2270  0.2681 -3.5062
15471TIP3    H267905   1.879   5.318   3.077  0.2192  0.5689 -0.9597
15472TIP3   OH267906   5.214   3.645   2.927 -0.0437 -0.2972 -0.2571
15472TIP3    H167907   5.192   3.575   2.866 -0.8730 -0.6884  0.4800
15472TIP3    H267908   5.298   3.619   2.965 -0.2781 -0.8267 -0.0924
15473TIP3   OH267909   1.394   1.334  15.732 -0.0242 -0.4251 -0.0177
15473TIP3    H167910   1.394   1.367  15.642 -1.0209 -1.9976 -0.6434
15473TIP3    H267911   1.345   1.399  15.782  0.4694  0.4224 -0.6261
15474TIP3   OH267912   2.224   2.247  13.603 -0.1518  0.2690 -0.0978
15474TIP3    H167913   2.202   2.329  13.559 -0.2923  1.0340  1.3649
15474TIP3    H267914   2.212   2.265  13.696  2.3664 -0.5823  0.4859
15475TIP3   OH267915   0.482   5.290  11.093  0.5311 -0.1420 -0.0326
15475TIP3    H167916   0.547   5.357  11.074 -1.3794  1.1157 -2.8575
15475TIP3    H267917   0.398   5.332  11.075 -0.8997 -2.6328  0.2800
15476TIP3   OH267918   4.372   2.287   6.264  0.4692 -0.3180  0.2241
15476TIP3    H167919   4.309   2.220   6.291  1.0258 -1.3836 -1.0119
15476TIP3    H267920   4.322   2.369   6.266 -1.7175 -1.3729 -2.8864
15477TIP3   OH267921   3.223   2.069   4.739 -0.5814  0.3662 -0.1550
15477TIP3    H167922   3.178   2.070   4.655 -0.2639  1.1718 -0.3193
15477TIP3    H267923   3.164   2.020   4.797 -1.6847  1.4012 -0.3599
15478TIP3   OH267924   2.242   1.776  12.465  0.3059 -0.1498 -0.8088
15478TIP3    H167925   2.288   1.812  12.540  0.0754  0.9840 -1.1833
15478TIP3    H267926   2.307   1.722  12.421  1.0962  0.8654 -0.9479
15479TIP3   OH267927   4.736   2.415  11.974  0.2099  0.6945  0.0013
15479TIP3    H167928   4.734   2.509  11.956  1.6530  0.7324 -0.1108
15479TIP3    H267929   4.784   2.377  11.900  1.5847  0.1793  1.1083
15480TIP3   OH267930   1.185   3.005  11.644  0.2976  0.3579 -0.3674
15480TIP3    H167931   1.220   3.093  11.656  0.0632  0.3005  0.7625
15480TIP3    H267932   1.209   2.983  11.553 -0.2237  1.8272 -0.8877
15481TIP3   OH267933   1.419   2.538  13.425 -0.3700 -0.2767  0.2696
15481TIP3    H167934   1.397   2.630  13.413  0.9081  0.0142  0.0871
15481TIP3    H267935   1.505   2.538  13.465 -0.4126 -1.3962  0.3991
15482TIP3   OH267936   1.065   3.864  14.172  0.1287  0.0690 -0.0119
15482TIP3    H167937   1.126   3.790  14.171 -0.8022 -0.8137  2.3396
15482TIP3    H267938   0.978   3.824  14.179 -0.5553  1.3686 -0.6559
15483TIP3   OH267939   1.497   5.629  16.550 -0.0796 -0.3923  0.0900
15483TIP3    H167940   1.574   5.609  16.603 -0.3202 -0.8000  0.2905
15483TIP3    H267941   1.483   5.722  16.563 -1.1178 -0.7715  2.0767
15484TIP3   OH267942   3.083   0.563  14.336  0.5117  0.2624  0.1535
15484TIP3    H167943   3.109   0.513  14.414 -0.1279 -0.7908 -0.2821
15484TIP3    H267944   3.068   0.652  14.369  1.2547  0.0802  1.0331
15485TIP3   OH267945   0.165   1.613  12.767  0.1172  0.0287 -0.5659
15485TIP3    H167946   0.073   1.586  12.767  0.1255 -0.0002  0.0534
15485TIP3    H267947   0.212   1.540  12.808  0.5111 -0.2632 -1.5117
15486TIP3   OH267948   0.971   0.931   4.261  0.1547  0.1894  1.0336
15486TIP3    H167949   1.053   0.964   4.299  0.9316 -0.8983  0.3744
15486TIP3    H267950   1.000   0.871   4.192 -1.2195  0.6239  0.0561
15487TIP3   OH267951   2.685   5.490  15.537  0.1310  0.1591 -0.3558
15487TIP3    H167952   2.732   5.495  15.453  1.4287  1.6276  0.3878
15487TIP3    H267953   2.717   5.409  15.577  1.3570  0.6472 -0.2866
15488TIP3   OH267954   3.900   3.211  13.270 -0.0376  0.1400  0.2387
15488TIP3    H167955   3.944   3.195  13.353 -0.0732 -0.1071  0.2132
15488TIP3    H267956   3.888   3.306  13.266  4.1734  0.7974 -1.6145
15489TIP3   OH267957   2.638   3.516   0.839 -0.2066 -0.1289 -0.3347
15489TIP3    H167958   2.584   3.439   0.819  2.1232 -1.5288 -1.7609
15489TIP3    H267959   2.631   3.571   0.761 -0.5315  0.2936 -0.0115
15490TIP3   OH267960   5.369   4.151   3.654  0.1961 -0.3762  0.3906
15490TIP3    H167961   5.315   4.120   3.582 -1.0311 -0.0358  1.1256
15490TIP3    H267962   5.400   4.237   3.626 -1.0415  0.1615  0.6308
15491TIP3   OH267963   0.280   6.520  13.756  0.7509 -0.3353 -0.6268
15491TIP3    H167964   0.258   6.603  13.798 -1.7628 -1.2473  0.0459
15491TIP3    H267965   0.370   6.531  13.728  0.5371  2.5896 -0.5034
15492TIP3   OH267966   4.417   6.081   0.736  0.6871  0.4945 -0.0056
15492TIP3    H167967   4.457   6.154   0.784 -0.9593  1.7896 -0.5069
15492TIP3    H267968   4.362   6.037   0.801  0.1187  0.9447 -0.1744
15493TIP3   OH267969   4.468   5.656   1.565 -0.1558  0.3105  0.5728
15493TIP3    H167970   4.538   5.720   1.560  0.8452 -0.8220 -1.1622
15493TIP3    H267971   4.508   5.580   1.609 -1.5214  1.0238  3.2594
15494TIP3   OH267972   3.879   2.398  14.474  0.2243  0.0034  0.8815
15494TIP3    H167973   3.946   2.450  14.429  0.3155 -0.2044  0.7733
15494TIP3    H267974   3.887   2.311  14.435 -0.1472 -0.0077  0.8288
15495TIP3   OH267975   1.920   5.088  11.893  0.2846  0.5714 -0.2532
15495TIP3    H167976   1.859   5.078  11.820 -1.2802 -1.0357  1.1704
15495TIP3    H267977   1.954   5.177  11.884  0.7093  0.1961 -3.2942
15496TIP3   OH267978   2.447   5.094   4.228  0.0360  0.2295 -0.3115
15496TIP3    H167979   2.399   5.026   4.181 -0.3086 -0.6106  1.2063
15496TIP3    H267980   2.379   5.155   4.258  0.4162  1.8365 -2.4786
15497TIP3   OH267981   6.435   6.102  15.015 -0.3636  0.0664 -0.6214
15497TIP3    H167982   6.493   6.078  14.942  0.3059  3.5168 -1.4339
15497TIP3    H267983   6.494   6.117  15.089 -0.3798  1.5430 -0.8685
15498TIP3   OH267984   5.632   6.829   1.182 -0.3329 -0.1670  0.2534
15498TIP3    H167985   5.537   6.832   1.195 -0.7613 -0.0435 -2.3564
15498TIP3    H267986   5.650   6.739   1.155  0.1406  0.0612 -0.2020
15499TIP3   OH267987   2.171   5.131  10.439  0.0110 -0.2587 -0.2303
15499TIP3    H167988   2.218   5.051  10.416 -0.6961 -0.4223 -1.1266
15499TIP3    H267989   2.115   5.149  10.364 -1.3006 -0.0012  0.7702
15500TIP3   OH267990   6.244   6.107   0.234 -0.0727  0.0230 -0.3838
15500TIP3    H167991   6.239   6.021   0.275  0.5755  0.3956  0.4965
15500TIP3    H267992   6.197   6.165   0.293 -0.2819  0.3309 -0.8436
15501TIP3   OH267993   3.769   2.734  11.458  0.6337  0.3868  0.0088
15501TIP3    H167994   3.812   2.744  11.543  1.2583  2.7206 -0.5138
15501TIP3    H267995   3.837   2.698  11.401  0.3973 -0.5895  0.3264
15502TIP3   OH267996   0.371   0.433  17.088 -0.4351  0.3705 -0.4110
15502TIP3    H167997   0.440   0.433  17.155  0.0070  0.8525 -0.8483
15502TIP3    H267998   0.344   0.525  17.081  2.0054  1.0507 -3.3319
15503TIP3   OH267999   2.351   6.111   1.456 -0.1165  0.3914  0.9113
15503TIP3    H168000   2.354   6.020   1.428  1.5249  0.8838 -0.7148
15503TIP3    H268001   2.265   6.142   1.427  0.7915  0.3585 -2.1649
15504TIP3   OH268002   2.763   2.800   4.633 -0.6701 -0.2236 -0.6815
15504TIP3    H168003   2.773   2.885   4.590 -1.5237  0.5279  0.5321
15504TIP3    H268004   2.772   2.736   4.563  0.1759  0.8630 -1.5869
15505TIP3   OH268005   5.436   4.487  16.691  0.2507 -0.0809 -0.2246
15505TIP3    H168006   5.433   4.466  16.598 -2.5506 -0.7845 -0.0773
15505TIP3    H268007   5.443   4.402  16.735 -1.4303 -0.0128  0.2250
15506TIP3   OH268008   5.170   4.510  17.098  0.3314  0.3127 -0.5854
15506TIP3    H168009   5.120   4.436  17.064 -0.0876  0.5409 -0.4763
15506TIP3    H268010   5.113   4.586  17.083 -0.2045  0.3281  1.3284
15507TIP3   OH268011   2.660   5.612  15.009 -0.1027 -0.5238 -0.2912
15507TIP3    H168012   2.573   5.627  15.046 -0.9698 -0.6065 -2.1607
15507TIP3    H268013   2.669   5.516  15.011 -1.0181 -0.6925 -2.0237
15508TIP3   OH268014   3.898   3.403   6.637  0.1549 -0.2097 -0.2203
15508TIP3    H168015   3.964   3.450   6.585  0.1136 -1.4942 -1.5102
15508TIP3    H268016   3.947   3.371   6.713  0.6929  0.0519 -0.4444
15509TIP3   OH268017   0.754   5.140  13.273 -0.0463  0.3775 -0.3727
15509TIP3    H168018   0.824   5.185  13.321  0.2481  0.3369 -0.7619
15509TIP3    H268019   0.744   5.056  13.320 -1.3062  1.2426  0.9883
15510TIP3   OH268020   5.989   1.432  11.884 -0.5584 -0.0918 -0.2926
15510TIP3    H168021   5.982   1.401  11.794 -0.1530 -2.6994  0.5182
15510TIP3    H268022   5.923   1.383  11.932  0.9914 -0.7194  1.3044
15511TIP3   OH268023   4.092   2.330  12.425  0.5234  0.5656 -0.2531
15511TIP3    H168024   4.016   2.276  12.448  0.4252  1.0771  0.6860
15511TIP3    H268025   4.142   2.337  12.506  0.9485  1.2237 -0.5638
15512TIP3   OH268026   1.314   1.770  16.501 -0.4813  0.5604  0.5675
15512TIP3    H168027   1.290   1.858  16.534  0.3352  0.4809  1.4099
15512TIP3    H268028   1.400   1.753  16.539  0.6234  0.5147 -1.7837
15513TIP3   OH268029   2.929   3.716  16.305 -0.5105  0.1680 -0.3613
15513TIP3    H168030   2.985   3.793  16.296  0.1529  0.0038  1.7962
15513TIP3    H268031   2.986   3.642  16.282 -0.3946  0.1335  0.0403
15514TIP3   OH268032   5.724   2.652   6.097 -0.5415 -0.4876 -1.0419
15514TIP3    H168033   5.806   2.662   6.146  0.5810  0.4818 -2.9873
15514TIP3    H268034   5.697   2.741   6.076 -1.4453 -0.8383 -1.4383
15515TIP3   OH268035   4.318   0.162  14.909 -0.1463 -0.2574  0.5667
15515TIP3    H168036   4.222   0.160  14.912 -0.1900 -2.2917 -0.4729
15515TIP3    H268037   4.345   0.090  14.966  0.8290  0.8081  1.4986
15516TIP3   OH268038   6.148   6.343   3.193  0.0791 -0.2331  0.2290
15516TIP3    H168039   6.059   6.358   3.222 -0.0267  0.4055 -0.3884
15516TIP3    H268040   6.193   6.427   3.207  0.8978 -0.8705  1.6058
15517TIP3   OH268041   6.095   1.343  10.662  0.1126 -0.1079  0.0430
15517TIP3    H168042   6.074   1.277  10.595 -0.5501  0.3009 -0.1598
15517TIP3    H268043   6.010   1.378  10.688  0.3323 -0.4851  1.3410
15518TIP3   OH268044   4.230   2.669   0.320  0.4272 -0.1323  0.0645
15518TIP3    H168045   4.166   2.638   0.256  0.7458  0.7386 -0.7075
15518TIP3    H268046   4.298   2.710   0.267  0.8642  0.3136  0.9521
15519TIP3   OH268047   0.898   3.050  16.221 -0.4966  0.3172  0.1184
15519TIP3    H168048   0.886   3.018  16.131  0.6751  4.9430 -2.0106
15519TIP3    H268049   0.825   3.111  16.234  0.5551  1.3355  1.4541
15520TIP3   OH268050   0.234   4.075  13.212  0.4781  0.5958 -0.2950
15520TIP3    H168051   0.230   4.128  13.292  2.7183 -0.2051  0.4371
15520TIP3    H268052   0.179   3.999  13.232  1.5832  0.0510  0.8092
15521TIP3   OH268053   2.688   6.586  16.772 -0.1072  0.5998 -0.0503
15521TIP3    H168054   2.781   6.609  16.780 -0.2262  0.4839  2.5035
15521TIP3    H268055   2.688   6.491  16.766 -0.0787  0.4942  1.3198
15522TIP3   OH268056   6.048   1.881   0.622  0.8721  0.0190  0.6013
15522TIP3    H168057   6.032   1.972   0.599 -0.3576 -0.7045 -1.6563
15522TIP3    H268058   6.102   1.886   0.702 -1.4769  2.6699  2.2084
15523TIP3   OH268059   1.844   3.284   4.730  0.0793  0.3145  0.6014
15523TIP3    H168060   1.820   3.275   4.823  0.3051 -0.2757  0.6058
15523TIP3    H268061   1.929   3.327   4.732 -0.0723  0.6152  0.6547
15524TIP3   OH268062   6.103   3.413   0.404  0.5776 -0.3501 -0.1371
15524TIP3    H168063   6.081   3.495   0.449  0.7240 -0.7684  0.7121
15524TIP3    H268064   6.071   3.426   0.314  0.2554  0.4873  0.0879
15525TIP3   OH268065   4.260   0.896  11.598  0.3485 -0.7509 -0.3673
15525TIP3    H168066   4.165   0.904  11.592  0.3646 -0.6456 -0.4890
15525TIP3    H268067   4.287   0.870  11.510  0.5198  0.0743 -0.5624
15526TIP3   OH268068   5.769   6.246   1.319  0.0436  0.2758  0.1717
15526TIP3    H168069   5.743   6.156   1.296  1.6819 -0.3318  0.5972
15526TIP3    H268070   5.690   6.284   1.357 -0.4215 -1.3033  0.8776
15527TIP3   OH268071   5.626   0.121  16.117  0.3910  0.2983 -0.1169
15527TIP3    H168072   5.624   0.026  16.110 -0.2733  0.2200  0.9277
15527TIP3    H268073   5.658   0.138  16.206  0.7701  1.0577 -0.3876
15528TIP3   OH268074   6.139   2.229   0.895 -0.2069  0.6708 -0.2921
15528TIP3    H168075   6.228   2.218   0.930 -0.2642 -1.2196 -0.6638
15528TIP3    H268076   6.152   2.250   0.803 -0.1481  1.0319 -0.2046
15529TIP3   OH268077   6.478   2.271  14.161  0.0397  0.1019  0.2259
15529TIP3    H168078   6.452   2.275  14.069  0.8543  0.9110  0.0130
15529TIP3    H268079   6.540   2.198  14.165  0.4171  0.4086  0.0194
15530TIP3   OH268080   6.691   5.279  16.901  0.4899  0.3397 -0.0951
15530TIP3    H168081   6.620   5.271  16.966  1.7568  0.0294  1.3107
15530TIP3    H268082   6.745   5.201  16.916  1.7116  1.1048 -0.4035
15531TIP3   OH268083   0.287   3.422   5.200 -0.0202  0.1177  1.0763
15531TIP3    H168084   0.329   3.387   5.121  0.7221 -0.5365  1.7506
15531TIP3    H268085   0.198   3.389   5.196  0.5376 -1.5345  1.4791
15532TIP3   OH268086   0.878   1.357   2.387  0.4882  0.0313  0.3324
15532TIP3    H168087   0.952   1.407   2.420  1.0438 -1.0639  0.7915
15532TIP3    H268088   0.801   1.411   2.408  1.1475  1.3141 -0.4000
15533TIP3   OH268089   0.972   1.976   3.832  0.3460 -0.1836 -0.6610
15533TIP3    H168090   1.044   2.032   3.861 -1.8425  3.2466 -1.3371
15533TIP3    H268091   0.925   1.954   3.912 -0.0147  0.8568 -0.5724
15534TIP3   OH268092   0.568   5.981   3.586  0.0332 -0.2995  0.0373
15534TIP3    H168093   0.519   5.901   3.609  0.2529 -0.3920  0.1814
15534TIP3    H268094   0.658   5.962   3.611 -0.4349  1.3391  3.5804
15535TIP3   OH268095   5.877   4.828   2.216  0.3519  0.5320 -0.0114
15535TIP3    H168096   5.958   4.790   2.182 -0.5040 -0.2527 -1.2354
15535TIP3    H268097   5.907   4.893   2.280  1.8933 -1.3638  1.3122
15536TIP3   OH268098   0.969   1.999   2.166 -0.1803 -0.7331  0.0239
15536TIP3    H168099   0.936   2.079   2.206  0.3674 -0.7305  0.4870
15536TIP3    H268100   1.064   2.001   2.182  0.0832 -0.6788 -1.3749
15537TIP3   OH268101   3.328   0.702  13.750 -0.2537  0.1903 -0.5069
15537TIP3    H168102   3.298   0.787  13.717 -1.7563 -0.1164  0.0134
15537TIP3    H268103   3.254   0.668  13.799  0.5005 -1.2251 -0.3135
15538TIP3   OH268104   4.756   1.346   5.417  0.3516  0.5624  0.1613
15538TIP3    H168105   4.791   1.384   5.337  1.1266  1.1509  0.7575
15538TIP3    H268106   4.813   1.379   5.486 -1.3462  1.5488  1.1770
15539TIP3   OH268107   2.984   6.434   1.956 -0.4161  0.1608 -0.5380
15539TIP3    H168108   3.054   6.392   1.906  0.1423  0.1557  0.2244
15539TIP3    H268109   3.029   6.493   2.015 -1.1630  1.3344 -1.1082
15540TIP3   OH268110   1.843   2.595   3.695  0.4454  0.0922 -0.3448
15540TIP3    H168111   1.801   2.509   3.687  0.7170  0.0069 -0.8702
15540TIP3    H268112   1.873   2.599   3.785  0.1382 -0.2293 -0.2263
15541TIP3   OH268113   4.972   0.245  12.840  0.0598  0.2735 -0.6457
15541TIP3    H168114   5.032   0.171  12.852  0.5922  0.7632 -0.2746
15541TIP3    H268115   4.928   0.226  12.757 -0.5914 -1.0075 -0.0496
15542TIP3   OH268116   1.834   0.989   4.067  0.2943  0.3361 -0.0982
15542TIP3    H168117   1.788   1.068   4.038  0.7797  0.6784  0.0507
15542TIP3    H268118   1.764   0.930   4.095  0.0028  1.7437  2.4555
15543TIP3   OH268119   3.676   2.796   3.558 -0.0919 -0.3462  0.0527
15543TIP3    H168120   3.649   2.708   3.584 -2.1796  0.3448  0.4126
15543TIP3    H268121   3.597   2.836   3.522  1.3110  0.7169 -2.0659
15544TIP3   OH268122   2.596   3.317   4.986 -0.3194  0.3888 -0.1644
15544TIP3    H168123   2.637   3.397   5.019  0.7639 -0.2056 -0.0447
15544TIP3    H268124   2.583   3.262   5.064  0.1464 -0.0865 -0.4203
15545TIP3   OH268125   0.343   2.664   1.468  0.0064  0.2181  0.2556
15545TIP3    H168126   0.355   2.627   1.381 -0.8611 -1.7005  0.9048
15545TIP3    H268127   0.426   2.708   1.487  1.7295 -2.6329 -0.0185
15546TIP3   OH268128   4.981   0.608  11.057  0.3173  0.1027  0.4719
15546TIP3    H168129   4.962   0.655  10.976  1.1911  0.9353  0.7273
15546TIP3    H268130   4.919   0.644  11.120  0.4816  0.3872  0.4772
15547TIP3   OH268131   5.861   3.424   3.220  1.0017  0.4671 -0.7025
15547TIP3    H168132   5.871   3.466   3.305  1.9275 -0.2976 -0.4049
15547TIP3    H268133   5.926   3.467   3.164  0.4190  0.9454 -1.0171
15548TIP3   OH268134   2.182   2.866   4.174 -0.1457 -0.3452 -0.4900
15548TIP3    H168135   2.251   2.929   4.190  0.0345 -0.9809  1.4485
15548TIP3    H268136   2.122   2.875   4.248 -1.6011 -0.5377 -1.5871
15549TIP3   OH268137   0.196   2.733  14.080  0.3557 -0.4602  0.2919
15549TIP3    H168138   0.142   2.807  14.109  1.2804  0.1999  0.3842
15549TIP3    H268139   0.286   2.767  14.082  0.7248 -1.3593 -0.3964
15550TIP3   OH268140   0.472   2.410  11.511 -0.7396  0.0471  1.2483
15550TIP3    H168141   0.534   2.468  11.554 -0.6588  1.5935 -0.8287
15550TIP3    H268142   0.525   2.357  11.453 -1.2552  1.0345 -0.1701
15551TIP3   OH268143   0.435   1.685  12.359 -0.4496 -0.4410 -0.0349
15551TIP3    H168144   0.424   1.724  12.446 -2.1727 -1.4596  0.2766
15551TIP3    H268145   0.500   1.739  12.315  0.4427  0.1192  1.8814
15552TIP3   OH268146   0.196   0.200  13.851 -0.3288  0.2228 -0.3935
15552TIP3    H168147   0.110   0.215  13.891 -1.4528 -0.9007 -2.1865
15552TIP3    H268148   0.196   0.106  13.830  2.1297 -0.2212  1.1836
15553TIP3   OH268149   4.489   6.834   1.222 -0.3031  0.2399 -0.7265
15553TIP3    H168150   4.513   6.749   1.186  0.2194 -0.2475  0.6695
15553TIP3    H268151   4.500   6.896   1.150  1.4228 -0.5607 -1.1925
15554TIP3   OH268152   1.611   0.685  13.700 -0.4617 -0.2353  0.0285
15554TIP3    H168153   1.526   0.699  13.657 -0.2388  2.4903  0.2640
15554TIP3    H268154   1.631   0.593  13.686 -2.0620 -0.2731 -2.6367
15555TIP3   OH268155   0.811   2.691  12.225  0.0853 -0.1994  0.3078
15555TIP3    H168156   0.874   2.708  12.295  0.7015 -2.5929  0.4125
15555TIP3    H268157   0.850   2.733  12.148  1.0672 -0.3793  0.6877
15556TIP3   OH268158   6.285   0.385   1.854  0.2933  0.2960  0.1356
15556TIP3    H168159   6.296   0.363   1.762  0.3425  2.0933 -0.3139
15556TIP3    H268160   6.361   0.439   1.875 -0.5125  1.2039  0.7871
15557TIP3   OH268161   6.420   2.577  11.832 -0.2024  0.3104 -0.5474
15557TIP3    H168162   6.339   2.628  11.822 -0.4113  0.2365  0.6293
15557TIP3    H268163   6.402   2.494  11.789 -0.4251  0.6337 -1.0885
15558TIP3   OH268164   6.701   6.378   4.729  0.4542 -0.0482  0.0618
15558TIP3    H168165   6.742   6.299   4.766  0.4577  0.5581  1.4353
15558TIP3    H268166   6.726   6.448   4.790 -1.3872  0.6088  0.1133
15559TIP3   OH268167   4.397   0.068   6.099  0.1215 -0.0229 -0.1791
15559TIP3    H168168   4.441   0.064   6.184  2.7098  1.7066 -1.3265
15559TIP3    H268169   4.323   0.127   6.113  1.4137  1.4879  0.5732
15560TIP3   OH268170   6.842   4.634  15.043  0.0710 -0.2711  0.9147
15560TIP3    H168171   6.783   4.644  15.119 -0.0702 -0.0703  0.7804
15560TIP3    H268172   6.821   4.709  14.987  1.5733  0.7177  1.6036
15561TIP3   OH268173   4.467   1.541  12.594 -0.5196 -0.2438 -0.1636
15561TIP3    H168174   4.499   1.457  12.627 -0.0541 -0.1351 -0.3369
15561TIP3    H268175   4.510   1.552  12.509 -0.9569 -0.0587 -0.3699
15562TIP3   OH268176   3.523   4.705   5.841 -0.1960 -0.2476 -0.4919
15562TIP3    H168177   3.603   4.675   5.798 -0.4103  2.3162 -2.9815
15562TIP3    H268178   3.544   4.794   5.872 -1.9064  0.3119 -0.8262
15563TIP3   OH268179   4.931   2.304  12.530  0.2850 -0.0705 -0.2576
15563TIP3    H168180   4.927   2.331  12.622  0.6005 -0.6417 -0.0707
15563TIP3    H268181   5.024   2.306  12.509  0.1161  1.8138 -1.1116
15564TIP3   OH268182   5.713   2.384  10.855  0.5897  0.4443  0.4132
15564TIP3    H168183   5.676   2.451  10.913  0.4171 -0.2133  1.0756
15564TIP3    H268184   5.780   2.341  10.908 -0.7211 -1.2982  0.7267
15565TIP3   OH268185   6.801   3.448  15.473 -0.2642  0.5358  0.8642
15565TIP3    H168186   6.860   3.504  15.524  0.4653 -0.6372  1.3470
15565TIP3    H268187   6.854   3.416  15.401 -1.1751  1.8344 -0.4391
15566TIP3   OH268188   1.778   2.248   4.973 -0.3970  0.1070 -0.0075
15566TIP3    H168189   1.772   2.253   4.877 -1.2333  0.0346  0.0255
15566TIP3    H268190   1.814   2.161   4.990  1.6816  0.8683 -0.2859
15567TIP3   OH268191   3.281   2.210  14.856 -0.3686  0.2387  0.0134
15567TIP3    H168192   3.263   2.290  14.808 -0.2741  0.5709  0.5288
15567TIP3    H268193   3.345   2.235  14.922  0.6716 -0.5424 -0.6562
15568TIP3   OH268194   0.650   5.495  14.026 -0.5757 -0.0444 -0.7312
15568TIP3    H168195   0.633   5.588  14.012  0.6553  0.3828  0.4074
15568TIP3    H268196   0.733   5.492  14.074 -1.0509 -1.6883  0.0896
15569TIP3   OH268197   4.513   4.208   0.775  0.3943 -0.6431  0.0321
15569TIP3    H168198   4.541   4.131   0.725 -1.4705 -0.9145 -0.6959
15569TIP3    H268199   4.418   4.211   0.763  0.1310  0.4652  1.9455
15570TIP3   OH268200   3.750   1.579   0.270  0.4835  0.1238 -0.3644
15570TIP3    H168201   3.727   1.625   0.350  4.4624  0.5233  0.7530
15570TIP3    H268202   3.732   1.642   0.200 -0.5391  0.7628  0.4443
15571TIP3   OH268203   2.494   2.070  12.802 -0.2748 -0.0617  0.1096
15571TIP3    H168204   2.546   2.143  12.770 -2.8721  1.6498 -0.5174
15571TIP3    H268205   2.458   2.101  12.886  0.1796 -1.4425  0.8535
15572TIP3   OH268206   0.309   0.134  12.933  0.7945 -0.0083 -0.0909
15572TIP3    H168207   0.290   0.148  13.025  1.1436  1.2487 -0.2006
15572TIP3    H268208   0.224   0.138  12.889  0.7121  0.1361  0.0845
15573TIP3   OH268209   4.722   0.075  13.253  0.7383  0.2034  0.0659
15573TIP3    H168210   4.787   0.040  13.315  0.7755  2.3781  1.3668
15573TIP3    H268211   4.667   0.133  13.307  0.7241  2.1455 -1.8949
15574TIP3   OH268212   4.810   1.089   5.460 -0.3730  0.3140 -0.2483
15574TIP3    H168213   4.818   1.184   5.467 -2.7275  0.5482  0.0351
15574TIP3    H268214   4.777   1.061   5.545 -0.7091 -0.6281 -0.6686
15575TIP3   OH268215   6.726   0.334  13.757  0.2710  1.0357  0.2743
15575TIP3    H168216   6.671   0.394  13.807 -1.4847 -0.1599 -0.1241
15575TIP3    H268217   6.732   0.372  13.670  0.1691  1.2251  0.3506
15576TIP3   OH268218   4.487   3.004   0.538  0.1729  0.9457 -0.3821
15576TIP3    H168219   4.517   3.082   0.585 -0.0712  2.2027 -2.1881
15576TIP3    H268220   4.553   2.938   0.556  0.0029  1.2932  1.8106
15577TIP3   OH268221   1.117   0.502  13.593 -0.3132 -0.3548  0.2254
15577TIP3    H168222   1.076   0.511  13.507 -0.6638 -0.6368  0.3628
15577TIP3    H268223   1.047   0.471  13.650  0.0148 -0.5486  0.5275
15578TIP3   OH268224   5.888   4.793  12.482  0.3231 -0.9259  0.3500
15578TIP3    H168225   5.944   4.726  12.520  1.9496  1.1014  1.7070
15578TIP3    H268226   5.818   4.805  12.546  0.1661 -1.1354  0.2197
15579TIP3   OH268227   1.673   5.934  10.593 -0.2850 -0.1643  0.4248
15579TIP3    H168228   1.596   5.916  10.539 -0.6863  1.5524  0.3657
15579TIP3    H268229   1.724   5.853  10.589 -0.1887 -0.0626 -2.6922
15580TIP3   OH268230   4.943   4.976  11.386  0.2104  0.1694 -0.1918
15580TIP3    H168231   4.962   5.007  11.475 -0.9587 -0.9943  0.4967
15580TIP3    H268232   5.025   4.991  11.338  0.7901  1.0395  1.0064
15581TIP3   OH268233   0.000   3.884  17.036 -0.5476 -0.3280  0.4270
15581TIP3    H168234   0.066   3.928  17.089  0.2458 -0.4836 -0.3864
15581TIP3    H268235   0.043   3.870  16.952 -1.2839 -1.3208  0.1897
15582TIP3   OH268236   4.743   1.774   5.104  0.3991  0.0325 -0.2808
15582TIP3    H168237   4.758   1.867   5.087  1.4561 -0.2576 -1.0512
15582TIP3    H268238   4.677   1.749   5.039  0.4456  0.1483 -0.3743
15583TIP3   OH268239   2.456   1.177   5.969  0.0015  0.9179 -1.2887
15583TIP3    H168240   2.431   1.100   6.019 -1.3293  2.2066  0.1632
15583TIP3    H268241   2.548   1.191   5.990 -0.3544  1.0226  0.3100
15584TIP3   OH268242   0.409   4.349  15.524 -0.0494  0.3725 -0.0725
15584TIP3    H168243   0.399   4.284  15.593 -1.0875  2.4559  1.9004
15584TIP3    H268244   0.497   4.384  15.537 -0.4094  1.0865  0.5674
15585TIP3   OH268245   3.778   0.765   4.287 -0.2709  0.3684 -0.1897
15585TIP3    H168246   3.684   0.753   4.274 -0.2445 -0.0902  0.0298
15585TIP3    H268247   3.792   0.859   4.276 -0.7998  0.4797  0.0654
15586TIP3   OH268248   2.946   1.089  13.235 -0.8117  0.0750  0.6499
15586TIP3    H168249   2.938   1.106  13.329 -0.3126 -0.2369  0.7472
15586TIP3    H268250   3.027   1.133  13.209  0.2099 -1.6338  0.7965
15587TIP3   OH268251   2.030   5.716  11.135  0.0765  0.5080  0.1955
15587TIP3    H168252   2.112   5.762  11.153  0.4827  0.8608 -2.1946
15587TIP3    H268253   1.962   5.782  11.152  0.5497  1.4600 -1.3485
15588TIP3   OH268254   1.716   3.786  15.365  0.0658  0.3311 -0.0814
15588TIP3    H168255   1.763   3.705  15.384  0.0448 -0.0243 -1.4077
15588TIP3    H268256   1.763   3.854  15.413  0.7704 -0.3011  0.1334
15589TIP3   OH268257   4.908   0.765  16.943 -0.3758  0.4858  0.7483
15589TIP3    H168258   4.833   0.706  16.940 -0.9479  1.2080  0.5025
15589TIP3    H268259   4.975   0.723  16.889 -1.0045  0.3672  0.0443
15590TIP3   OH268260   0.858   1.291   4.810  0.6585 -0.5863 -0.4608
15590TIP3    H168261   0.912   1.364   4.838  0.8484 -0.6822 -0.5756
15590TIP3    H268262   0.843   1.240   4.890  0.0467 -0.1195 -0.2629
15591TIP3   OH268263   1.667   3.785   4.636 -0.1413 -0.5374 -0.1558
15591TIP3    H168264   1.747   3.831   4.661 -0.3082 -0.3382  0.0200
15591TIP3    H268265   1.697   3.706   4.592  0.1780  0.5519 -2.0087
15592TIP3   OH268266   0.487   6.268   4.697 -0.0335 -0.3154 -0.0280
15592TIP3    H168267   0.450   6.249   4.611  2.6290 -0.2489 -1.2987
15592TIP3    H268268   0.486   6.363   4.703  2.0712 -0.1684 -1.1731
15593TIP3   OH268269   1.724   0.085  12.249  0.3632 -0.2174  0.1484
15593TIP3    H168270   1.658   0.064  12.315 -0.5202  0.4017 -0.5109
15593TIP3    H268271   1.704   0.175  12.224  1.5082 -0.0067 -0.0213
15594TIP3   OH268272   2.872   4.312   2.767 -0.1131 -0.5924 -0.1100
15594TIP3    H168273   2.780   4.308   2.792 -0.2880 -0.1713 -0.6635
15594TIP3    H268274   2.871   4.304   2.672  0.4534 -0.9434 -0.0928
15595TIP3   OH268275   1.054   1.059  16.195  0.0090 -0.3068 -0.0618
15595TIP3    H168276   1.146   1.035  16.180 -0.0970 -1.6793  1.3215
15595TIP3    H268277   1.058   1.129  16.259  0.0702 -0.9969  0.7021
15596TIP3   OH268278   4.008   2.154  17.089 -0.1250 -0.2416 -0.3724
15596TIP3    H168279   3.929   2.204  17.067  0.2690  0.2304 -0.7264
15596TIP3    H268280   3.982   2.102  17.165 -1.2248 -1.1920 -1.3654
15597TIP3   OH268281   5.908   6.585  15.428 -0.1887  0.5473  0.0200
15597TIP3    H168282   5.905   6.677  15.404  0.9631  0.7779  0.7057
15597TIP3    H268283   6.001   6.561  15.422 -0.3697 -0.3665  0.5910
15598TIP3   OH268284   6.159   0.951   1.748 -0.3278 -0.4011  0.5591
15598TIP3    H168285   6.173   0.912   1.834  0.8612  2.1856  1.6619
15598TIP3    H268286   6.227   1.018   1.740 -1.2330  0.3638 -1.8206
15599TIP3   OH268287   2.366   6.671  15.683 -0.0606  0.0387 -0.6116
15599TIP3    H168288   2.370   6.766  15.694 -1.5419  0.3699 -2.4981
15599TIP3    H268289   2.320   6.640  15.761  0.0181  0.9102 -0.2055
15600TIP3   OH268290   0.910   2.407   3.813 -0.1126  0.0772 -0.5531
15600TIP3    H168291   0.932   2.430   3.722 -2.1290  1.4050 -0.7842
15600TIP3    H268292   0.856   2.328   3.805 -0.2509  0.1673 -0.5096
15601TIP3   OH268293   0.697   6.731  11.885  0.4887  0.2356 -0.1337
15601TIP3    H168294   0.774   6.681  11.858 -0.3524 -1.0889 -0.1716
15601TIP3    H268295   0.671   6.779  11.807  2.0809  1.8315  0.2555
15602TIP3   OH268296   6.246   0.564   1.348  0.2357  0.4435  0.5783
15602TIP3    H168297   6.200   0.582   1.266 -0.7351 -0.7377  0.8153
15602TIP3    H268298   6.295   0.483   1.331 -1.1822 -0.6799  1.5562
15603TIP3   OH268299   1.896   4.583  14.838 -0.0079 -0.1822 -0.1754
15603TIP3    H168300   1.902   4.667  14.791 -1.0430 -0.3379 -0.6128
15603TIP3    H268301   1.862   4.607  14.924 -0.9014 -0.2141 -0.5142
15604TIP3   OH268302   3.266   2.121   4.433  0.3961  0.0829  0.0809
15604TIP3    H168303   3.271   2.031   4.401  0.3367 -0.0292  0.3917
15604TIP3    H268304   3.343   2.164   4.395  1.7158 -0.6703  1.7893
15605TIP3   OH268305   4.174   6.603   1.552  0.7615 -0.3787 -0.0850
15605TIP3    H168306   4.111   6.675   1.551  0.6584 -0.4570  0.5040
15605TIP3    H268307   4.197   6.590   1.460  1.7658  1.2632 -0.0822
15606TIP3   OH268308   4.192   3.059   0.593  0.0268  0.2177  0.1088
15606TIP3    H168309   4.284   3.042   0.572 -0.3372 -2.1374  0.1837
15606TIP3    H268310   4.188   3.055   0.688  0.0936  1.9059  0.2041
15607TIP3   OH268311   3.576   5.106  13.248 -0.2296 -0.2088 -0.1251
15607TIP3    H168312   3.579   5.090  13.154 -0.1494 -0.5088 -0.0746
15607TIP3    H268313   3.629   5.036  13.286  1.1426  0.8725  0.0330
15608TIP3   OH268314   6.565   2.491  16.472  0.4556 -0.6405 -0.0023
15608TIP3    H168315   6.579   2.473  16.565 -1.4921  0.3795  0.5571
15608TIP3    H268316   6.525   2.412  16.437 -1.3533 -0.1092  0.7297
15609TIP3   OH268317   1.830   3.505   3.062 -0.4785  0.0059  0.5901
15609TIP3    H168318   1.831   3.552   3.145  0.8855 -0.5353  0.8952
15609TIP3    H268319   1.814   3.414   3.085  1.3811 -0.3894  0.4162
15610TIP3   OH268320   1.075   3.894   5.526 -0.0103 -0.0984 -0.3397
15610TIP3    H168321   1.022   3.833   5.474  1.1545 -1.1365 -0.3622
15610TIP3    H268322   1.077   3.854   5.613 -0.1940  0.5223 -0.0505
15611TIP3   OH268323   1.260   4.793   5.765  0.1435  0.0098  0.6507
15611TIP3    H168324   1.183   4.782   5.821 -0.7946 -0.7922 -0.7121
15611TIP3    H268325   1.274   4.888   5.762 -0.2610  0.1088  1.5920
15612TIP3   OH268326   0.613   3.903   5.058 -0.0048  0.8005  0.2184
15612TIP3    H168327   0.698   3.946   5.053  0.7309 -0.5593  0.3189
15612TIP3    H268328   0.568   3.946   5.130  1.6027 -0.0854  1.8246
15613TIP3   OH268329   5.643   6.243   4.791  0.6229 -0.0451 -0.0449
15613TIP3    H168330   5.717   6.200   4.833  0.4585  0.1346  0.4392
15613TIP3    H268331   5.683   6.312   4.737  0.8678 -0.6256 -0.6142
15614TIP3   OH268332   2.382   5.616  13.339  0.0713 -0.3699 -0.1370
15614TIP3    H168333   2.352   5.653  13.422  1.1916 -1.1464  0.6503
15614TIP3    H268334   2.353   5.525  13.341  1.2326 -0.7521  0.0195
15615TIP3   OH268335   1.577   6.325  13.934 -0.5954 -0.0565 -0.2448
15615TIP3    H168336   1.572   6.399  13.994 -0.9839 -0.3128  0.0384
15615TIP3    H268337   1.577   6.248  13.990  1.1405 -0.2495 -0.4613
15616TIP3   OH268338   6.223   2.310   2.984 -0.7615  0.0745  1.2129
15616TIP3    H168339   6.127   2.316   2.990 -0.7091  1.4212  0.9817
15616TIP3    H268340   6.250   2.396   2.952  0.4766 -0.5431  0.5540
15617TIP3   OH268341   5.824   0.613  11.479 -0.1309  0.2333 -0.7237
15617TIP3    H168342   5.850   0.586  11.391  0.2539  0.2851 -0.6277
15617TIP3    H268343   5.766   0.688  11.465  0.0286  0.3193 -0.9272
15618TIP3   OH268344   2.340   6.624  14.353 -0.3423  0.4512  0.1750
15618TIP3    H168345   2.348   6.544  14.405  0.5424 -0.3632 -1.1506
15618TIP3    H268346   2.392   6.689  14.401 -1.5018  0.4138  1.5451
15619TIP3   OH268347   1.745   5.497   3.715 -0.0973 -0.1248 -0.5650
15619TIP3    H168348   1.828   5.527   3.676 -0.7065  0.9109 -1.1001
15619TIP3    H268349   1.753   5.401   3.717  2.0936 -0.0096  1.6010
15620TIP3   OH268350   3.445   5.332   2.749  0.0943 -0.0551 -0.6851
15620TIP3    H168351   3.365   5.282   2.765  0.8557 -1.0276  0.2030
15620TIP3    H268352   3.478   5.298   2.666  1.2012 -1.9078  0.4469
15621TIP3   OH268353   4.696   2.819   0.045 -0.9142 -0.4440  0.0447
15621TIP3    H168354   4.608   2.787   0.024 -1.6159  0.6340  1.1773
15621TIP3    H268355   4.747   2.740   0.062 -1.9212 -1.0585  0.2724
15622TIP3   OH268356   4.475   1.529  17.159 -0.0790  0.2946  0.3654
15622TIP3    H168357   4.435   1.461  17.105 -1.1701 -0.2170  1.7804
15622TIP3    H268358   4.479   1.606  17.101 -0.8364 -0.3462 -0.5725
15623TIP3   OH268359   1.387   3.214   2.554 -0.5310 -0.1196  0.3404
15623TIP3    H168360   1.417   3.150   2.618 -3.1895  0.4673  2.3243
15623TIP3    H268361   1.381   3.296   2.603 -0.5738  0.8699 -1.2462
15624TIP3   OH268362   6.544   3.106   5.120  0.2810  0.2497 -0.0951
15624TIP3    H168363   6.456   3.076   5.095  1.6977 -2.8731 -1.8839
15624TIP3    H268364   6.559   3.068   5.206  1.1214 -2.3447 -1.3020
15625TIP3   OH268365   6.644   1.740  14.933  0.2137 -0.1698  0.5093
15625TIP3    H168366   6.659   1.701  14.847  1.2659  0.4719  0.3891
15625TIP3    H268367   6.633   1.833  14.916  1.1668  0.0698  1.1380
15626TIP3   OH268368   3.889   2.291   3.746  0.0373 -0.1335 -0.1117
15626TIP3    H168369   3.972   2.312   3.704  1.6832 -2.0055  1.9082
15626TIP3    H268370   3.901   2.318   3.837 -1.8384  0.1196  0.0960
15627TIP3   OH268371   1.761   2.464  11.796  0.5449 -0.0963 -0.1318
15627TIP3    H168372   1.804   2.381  11.777 -0.6262 -0.9016  0.6530
15627TIP3    H268373   1.668   2.445  11.790  0.2482  0.9523  0.9160
15628TIP3   OH268374   0.342   3.898  12.861  0.0898  0.0618  0.1199
15628TIP3    H168375   0.417   3.956  12.863 -0.0868  0.3531 -0.9855
15628TIP3    H268376   0.269   3.954  12.834 -0.8090  0.0548  2.2870
15629TIP3   OH268377   1.632   1.059  10.998  0.4704 -0.5176 -0.3099
15629TIP3    H168378   1.643   1.152  11.019  0.9348 -0.7920  0.6853
15629TIP3    H268379   1.582   1.059  10.916  1.1507  0.6242 -0.7477
15630TIP3   OH268380   6.811   2.608   0.642 -0.5425  0.3311 -0.8140
15630TIP3    H168381   6.800   2.619   0.548 -0.6266 -2.0540 -1.1430
15630TIP3    H268382   6.733   2.560   0.670  0.6870 -1.3029 -0.0282
15631TIP3   OH268383   6.172   0.142  14.900 -0.8986 -0.3892  0.0133
15631TIP3    H168384   6.118   0.079  14.948 -1.3565  0.0875  0.1305
15631TIP3    H268385   6.230   0.179  14.966 -0.6105 -0.7100 -0.0619
15632TIP3   OH268386   2.859   1.761   5.394 -0.2567  0.6599 -0.1586
15632TIP3    H168387   2.859   1.736   5.302  0.1597  1.9050 -0.5063
15632TIP3    H268388   2.855   1.857   5.394  1.3339  0.7677  1.0884
15633TIP3   OH268389   6.570   1.413   4.637 -0.5063  0.2895 -0.2717
15633TIP3    H168390   6.559   1.446   4.548  1.1578 -1.4963 -1.2191
15633TIP3    H268391   6.635   1.472   4.676  0.7898 -0.4738 -1.1968
15634TIP3   OH268392   6.809   0.923  13.614 -0.6166 -0.3824 -0.4323
15634TIP3    H168393   6.794   0.849  13.555 -0.2341 -0.5383 -0.3404
15634TIP3    H268394   6.851   0.884  13.691  1.1308  0.1293 -1.0663
15635TIP3   OH268395   6.607   5.912   2.138 -0.3396  0.3302 -0.0615
15635TIP3    H168396   6.615   5.834   2.084 -0.3661 -1.1387  1.9704
15635TIP3    H268397   6.517   5.943   2.123 -0.5012 -0.3307 -0.4682
15636TIP3   OH268398   1.358   5.417  12.916 -0.0398  0.0098 -0.0001
15636TIP3    H168399   1.333   5.324  12.916  0.5900 -0.1655  0.1997
15636TIP3    H268400   1.446   5.418  12.955  0.3873  0.5790 -0.9359
15637TIP3   OH268401   5.816   4.808   3.313  0.2899 -0.0156 -0.1452
15637TIP3    H168402   5.883   4.803   3.381  0.8463 -0.7124 -0.7097
15637TIP3    H268403   5.774   4.722   3.315 -0.5284  0.3878  0.1398
15638TIP3   OH268404   2.275   3.132   5.914  0.2681  0.1465 -0.2954
15638TIP3    H168405   2.243   3.153   6.002 -1.1765 -1.3424 -0.4324
15638TIP3    H268406   2.364   3.100   5.929  0.2924  0.5612  0.5307
15639TIP3   OH268407   1.953   2.560  11.622 -0.3262 -0.2779  1.0435
15639TIP3    H168408   1.911   2.604  11.548  1.1666  1.8917  1.3949
15639TIP3    H268409   1.880   2.536  11.680 -1.3330  0.0514 -0.0470
15640TIP3   OH268410   1.585   0.797   2.956  0.2365  0.1790  0.5571
15640TIP3    H168411   1.550   0.802   2.867  0.4138  0.7800  0.5153
15640TIP3    H268412   1.667   0.847   2.953  1.5993 -1.9373  0.4318
15641TIP3   OH268413   0.557   0.822  15.643 -0.2128 -0.1446  0.3874
15641TIP3    H168414   0.604   0.890  15.593  2.0412 -1.4815  0.5937
15641TIP3    H268415   0.525   0.762  15.576 -0.4521  0.0319  0.3402
15642TIP3   OH268416   5.967   2.944   3.913  0.0454 -0.0584 -0.0714
15642TIP3    H168417   6.060   2.931   3.932 -0.3275  0.4564  2.5170
15642TIP3    H268418   5.935   2.858   3.886  1.3415 -0.1256 -1.5102
15643TIP3   OH268419   5.094   3.012  16.109  0.0074 -0.2780 -0.0039
15643TIP3    H168420   5.037   3.087  16.128  0.7950  0.3330  0.0270
15643TIP3    H268421   5.152   3.008  16.185  0.3702 -0.5364 -0.2963
15644TIP3   OH268422   2.266   4.001   0.993  0.3175 -0.0604 -0.4224
15644TIP3    H168423   2.207   4.046   1.054  1.7473  0.0809  0.9153
15644TIP3    H268424   2.236   3.910   0.994 -0.5676  0.2247 -0.6176
15645TIP3   OH268425   1.620   2.594   4.918 -0.4000  0.1049 -0.2700
15645TIP3    H168426   1.644   2.501   4.917 -3.7060 -0.9747  2.0509
15645TIP3    H268427   1.696   2.638   4.955  1.1176 -1.6924 -1.0781
15646TIP3   OH268428   2.026   0.944   5.774  0.0241 -0.1188  0.0286
15646TIP3    H168429   2.050   0.972   5.686 -0.5401 -1.0069 -0.4274
15646TIP3    H268430   1.959   0.876   5.760  0.1020 -0.4403  1.1283
15647TIP3   OH268431   6.089   2.038  17.034 -0.2718 -0.4635 -0.6960
15647TIP3    H168432   6.012   1.987  17.059 -0.8719  0.5535 -0.4078
15647TIP3    H268433   6.068   2.069  16.945 -0.7392  0.7854 -0.1755
15648TIP3   OH268434   4.397   3.389  14.970  0.3863  0.2906 -0.1480
15648TIP3    H168435   4.476   3.426  15.009 -0.0775 -1.3770  2.6782
15648TIP3    H268436   4.428   3.324  14.908  1.2317  0.3330  0.2179
15649TIP3   OH268437   0.327   6.318   2.551 -0.6888 -0.1491 -0.1370
15649TIP3    H168438   0.316   6.349   2.641  0.9196  0.3413 -0.0804
15649TIP3    H268439   0.422   6.321   2.536 -0.8632 -0.9749 -1.5870
15650TIP3   OH268440   2.300   0.100  15.753 -0.6848  0.1257 -0.2561
15650TIP3    H168441   2.291   0.079  15.845  2.1651  1.4383  0.4405
15650TIP3    H268442   2.264   0.189  15.745  2.6579  1.7478  0.6417
15651TIP3   OH268443   4.139   1.998  15.489  0.7237  0.2798 -0.6966
15651TIP3    H168444   4.098   1.913  15.475  0.7636  0.2459 -0.6124
15651TIP3    H268445   4.110   2.052  15.416 -0.5294  0.6607  0.0381
15652TIP3   OH268446   6.094   2.366  17.162 -0.0128  0.4474  0.7625
15652TIP3    H168447   6.112   2.385  17.070 -1.3874  0.0708  0.3901
15652TIP3    H268448   6.051   2.445  17.195  0.7667  0.7052  1.1758
15653TIP3   OH268449   3.965   5.475  11.919 -0.5708  0.3689  0.2533
15653TIP3    H168450   3.937   5.386  11.901 -0.8949  0.2980  1.0712
15653TIP3    H268451   3.918   5.499  11.999 -0.4403  1.2488  0.0740
15654TIP3   OH268452   4.177   6.565   2.893  0.1997 -0.6406  0.3001
15654TIP3    H168453   4.265   6.537   2.870  0.3519 -0.3595  0.5439
15654TIP3    H268454   4.187   6.611   2.976 -0.2360 -0.9725  0.5401
15655TIP3   OH268455   4.328   1.311   4.804 -0.6754 -0.2499 -0.2423
15655TIP3    H168456   4.268   1.238   4.821  0.4537 -0.6886  2.2198
15655TIP3    H268457   4.404   1.270   4.761  1.0550 -1.1200  3.3232
15656TIP3   OH268458   0.347   6.103  11.421 -0.7792 -0.1221 -0.6636
15656TIP3    H168459   0.282   6.033  11.428 -0.0786 -0.7688 -0.4298
15656TIP3    H268460   0.401   6.077  11.346 -1.4226  0.9541 -1.5212
15657TIP3   OH268461   5.442   5.115  12.387  0.3105  0.3832 -0.2496
15657TIP3    H168462   5.421   5.074  12.470 -1.3377 -0.0050 -0.8171
15657TIP3    H268463   5.481   5.045  12.335  1.2958  0.6139  0.1614
15658TIP3   OH268464   5.803   4.354  17.088  0.5610  0.1588  0.3788
15658TIP3    H168465   5.778   4.284  17.027  0.4972 -0.2903  0.9227
15658TIP3    H268466   5.756   4.334  17.169  2.2451 -0.3987  1.2482
15659TIP3   OH268467   4.307   6.529   4.061  0.5993  0.0143 -0.5712
15659TIP3    H168468   4.276   6.457   4.116  0.7486  0.6479  0.3631
15659TIP3    H268469   4.317   6.490   3.974 -3.0185 -0.2535 -1.0571
15660TIP3   OH268470   3.337   3.095   2.815  0.0642 -0.1704 -0.1155
15660TIP3    H168471   3.378   3.016   2.850  1.6742  1.3030  1.5008
15660TIP3    H268472   3.245   3.089   2.844 -0.0594 -1.8011 -0.7318
15661TIP3   OH268473   0.098   6.158  15.027  0.5360 -0.0413  0.3749
15661TIP3    H168474   0.106   6.074  14.984  1.1827  0.4395 -0.4619
15661TIP3    H268475   0.119   6.140  15.119  2.2269 -0.5184 -0.0726
15662TIP3   OH268476   5.671   0.465   0.779 -0.0973  0.3518  0.5584
15662TIP3    H168477   5.744   0.512   0.738 -1.3552  2.5646  0.6703
15662TIP3    H268478   5.707   0.430   0.860  0.6213  2.3754  1.1853
15663TIP3   OH268479   3.319   4.267   3.840 -0.2835 -0.1523 -0.7656
15663TIP3    H168480   3.252   4.224   3.893  0.5517 -0.1472  0.3255
15663TIP3    H268481   3.301   4.238   3.750 -0.1146 -2.3073 -0.1626
15664TIP3   OH268482   2.031   4.010   4.887 -0.1150  0.1815  0.4996
15664TIP3    H168483   2.052   4.088   4.834  1.3625 -0.6252 -0.1552
15664TIP3    H268484   1.937   3.997   4.874 -0.1271  1.0740 -0.4536
15665TIP3   OH268485   5.379   5.291  10.659  0.3734 -0.0484  0.4477
15665TIP3    H168486   5.403   5.377  10.694  0.9204  0.6428 -1.4696
15665TIP3    H268487   5.355   5.308  10.568 -0.9017 -1.7457  0.4140
15666TIP3   OH268488   0.376   2.839  16.920  0.1765  0.1036  0.1146
15666TIP3    H168489   0.394   2.764  16.864  2.0518  0.6850 -0.1335
15666TIP3    H268490   0.368   2.913  16.860  0.9909  0.5222  0.4993
15667TIP3   OH268491   1.142   2.197  13.782 -0.7037 -0.1154  0.4849
15667TIP3    H168492   1.211   2.251  13.743 -0.8760  0.2027  0.6144
15667TIP3    H268493   1.107   2.146  13.709 -1.3046  0.7728  0.1237
15668TIP3   OH268494   3.784   6.228   4.617 -0.4256  0.5057  0.0664
15668TIP3    H168495   3.739   6.310   4.597  0.9790  0.9265 -1.6072
15668TIP3    H268496   3.873   6.255   4.640  0.1960 -0.5507 -1.0038
15669TIP3   OH268497   4.151   3.478   1.794 -0.2121 -0.0598  0.5367
15669TIP3    H168498   4.198   3.438   1.721 -0.3222 -0.1344  0.5051
15669TIP3    H268499   4.218   3.521   1.845  0.0535 -1.1207  1.1195
15670TIP3   OH268500   5.254   2.959   5.603  0.1864 -0.6068  0.2092
15670TIP3    H168501   5.275   3.034   5.548  0.8881 -1.7659 -1.1526
15670TIP3    H268502   5.339   2.924   5.629 -0.1245 -0.0499  2.1263
15671TIP3   OH268503   5.711   1.546   2.534 -0.1603 -0.1570  0.1233
15671TIP3    H168504   5.691   1.516   2.446 -0.2974  0.5348 -0.0902
15671TIP3    H268505   5.770   1.480   2.570 -0.7555 -0.8564 -0.1899
15672TIP3   OH268506   3.781   2.527  13.223 -0.4534  0.4846  0.6506
15672TIP3    H168507   3.774   2.576  13.305  0.4395  1.3568  0.2315
15672TIP3    H268508   3.820   2.443  13.248 -0.3444  0.6788  1.1405
15673TIP3   OH268509   5.120   2.967   4.016 -0.2534  0.1938 -0.5238
15673TIP3    H168510   5.041   2.929   3.977 -1.3845  1.6156  0.2928
15673TIP3    H268511   5.105   2.963   4.111  0.0961  1.5934 -0.3847
15674TIP3   OH268512   4.802   0.078   1.833  0.7147  0.0755 -0.3224
15674TIP3    H168513   4.870   0.025   1.876 -0.0494 -1.2328 -0.6452
15674TIP3    H268514   4.743   0.104   1.904 -0.7731 -2.4254 -0.5057
15675TIP3   OH268515   1.137   6.140  12.850  0.2121  0.0836  0.8823
15675TIP3    H168516   1.064   6.200  12.862  1.1089  1.8029 -1.4246
15675TIP3    H268517   1.188   6.148  12.931 -0.4363  1.3705  1.1989
15676TIP3   OH268518   1.168   3.538   4.862 -0.2766 -0.4785 -0.3079
15676TIP3    H168519   1.195   3.629   4.849 -1.2389  0.0789  1.2026
15676TIP3    H268520   1.163   3.501   4.774  2.2023  0.2801 -0.8382
15677TIP3   OH268521   6.703   0.314  15.123 -0.3336  0.0463  0.2217
15677TIP3    H168522   6.641   0.286  15.056 -0.1163 -0.7396  0.3341
15677TIP3    H268523   6.757   0.236  15.139  0.0311  0.4201  0.8390
15678TIP3   OH268524   5.625   4.167  11.337 -0.4890 -0.0194  0.1856
15678TIP3    H168525   5.625   4.129  11.249 -1.5620 -0.6771  0.4577
15678TIP3    H268526   5.689   4.115  11.385  0.0577  0.3026 -0.1742
15679TIP3   OH268527   4.543   2.570   6.513  0.5827  0.2219 -0.2841
15679TIP3    H168528   4.511   2.660   6.505 -1.8148 -0.6879 -2.0660
15679TIP3    H268529   4.471   2.522   6.554  1.3791 -1.0834 -0.3576
15680TIP3   OH268530   1.851   0.452   4.020  0.1664  0.4388  0.5049
15680TIP3    H168531   1.925   0.456   4.081 -1.3883 -0.0455  2.5640
15680TIP3    H268532   1.858   0.366   3.979  1.7527  1.1278 -0.7492
15681TIP3   OH268533   0.554   0.615   1.400  0.9322 -0.1952  0.0048
15681TIP3    H168534   0.481   0.666   1.434  0.7987 -0.0985 -0.4166
15681TIP3    H268535   0.514   0.558   1.334  1.4135  0.7238 -1.1173
15682TIP3   OH268536   3.168   0.866   3.649  0.0593 -0.3723 -0.4179
15682TIP3    H168537   3.231   0.798   3.674  1.7409  1.2098 -0.0699
15682TIP3    H268538   3.088   0.844   3.697  0.2856 -2.4847 -0.9113
15683TIP3   OH268539   4.832   5.771   3.698 -0.7035  0.5426 -0.1073
15683TIP3    H168540   4.902   5.716   3.733 -2.4948 -0.9345  1.4127
15683TIP3    H268541   4.771   5.709   3.658 -2.3213  1.4645  0.8277
15684TIP3   OH268542   3.942   0.189   4.511  0.6161 -0.1142  0.2050
15684TIP3    H168543   3.883   0.265   4.515 -0.1511 -0.6925  0.1884
15684TIP3    H268544   3.973   0.187   4.421  1.0518  0.4853  0.3406
15685TIP3   OH268545   4.150   2.481  13.410 -0.2029 -0.1307 -0.4022
15685TIP3    H168546   4.222   2.540  13.435 -1.7912  1.7367  0.0173
15685TIP3    H268547   4.139   2.424  13.485  0.5410 -0.1198 -0.2788
15686TIP3   OH268548   2.541   2.562   4.107  0.0488 -0.4826  0.1106
15686TIP3    H168549   2.470   2.554   4.171  2.3057 -0.1062  2.8630
15686TIP3    H268550   2.567   2.472   4.088 -0.9623 -0.6143 -0.7242
15687TIP3   OH268551   0.581   4.701  11.804  0.0679 -0.2406 -0.0626
15687TIP3    H168552   0.641   4.763  11.763 -0.2192 -1.6739 -2.9044
15687TIP3    H268553   0.615   4.689  11.892  0.3586  3.5585  0.5139
15688TIP3   OH268554   5.248   0.035   1.725  0.5049 -0.1862  0.3190
15688TIP3    H168555   5.230  -0.001   1.638  0.7363 -0.7308  0.4953
15688TIP3    H268556   5.181   0.103   1.737  0.8386  0.3019 -0.5262
15689TIP3   OH268557   0.615   5.866  14.346 -0.0519  0.4200  0.2117
15689TIP3    H168558   0.655   5.887  14.431  0.0530  0.8714  0.0509
15689TIP3    H268559   0.666   5.791  14.314 -0.5401 -0.2018  0.8607
15690TIP3   OH268560   0.130   4.890  11.843 -0.1756 -0.4693 -0.4101
15690TIP3    H168561   0.210   4.939  11.828 -0.4349  0.7548  1.8362
15690TIP3    H268562   0.096   4.872  11.755  1.9286 -0.0126 -1.3662
15691TIP3   OH268563   0.809   5.502   0.568 -0.1904  0.4981  0.3265
15691TIP3    H168564   0.720   5.490   0.533 -0.4641 -0.0793  1.1876
15691TIP3    H268565   0.847   5.414   0.566  0.5942  0.8479 -0.6167
15692TIP3   OH268566   1.168   4.036  13.624 -0.3363 -0.2659 -0.3711
15692TIP3    H168567   1.130   4.113  13.583  0.6024  1.0955  1.1731
15692TIP3    H268568   1.144   4.043  13.717  3.1467  0.5000  0.6495
15693TIP3   OH268569   4.114   1.278  16.810  0.2506 -0.0053 -0.6199
15693TIP3    H168570   4.119   1.331  16.890 -2.1480 -0.3595 -0.1630
15693TIP3    H268571   4.166   1.200  16.829  0.4502  0.3298  0.2454
15694TIP3   OH268572   4.373   5.023   2.609 -0.0034  0.9259  0.2270
15694TIP3    H168573   4.327   4.975   2.677 -1.2750 -0.0528 -1.2367
15694TIP3    H268574   4.362   5.115   2.632  0.0044  0.6041  1.5618
15695TIP3   OH268575   3.596   4.413  13.952  0.7680 -0.0629  0.2048
15695TIP3    H168576   3.622   4.321  13.952 -1.1457 -0.6739  2.4117
15695TIP3    H268577   3.643   4.451  14.026 -1.2763 -0.2157  1.6566
15696TIP3   OH268578   4.183   3.939   1.974  0.1079  0.4028 -0.0505
15696TIP3    H168579   4.108   3.887   2.002 -0.1822  0.7250 -0.2118
15696TIP3    H268580   4.146   4.026   1.956  0.2887  0.2170 -1.3950
15697TIP3   OH268581   0.304   1.564  14.359  0.1954  0.3690 -0.0453
15697TIP3    H168582   0.293   1.469  14.354  0.9098  0.3270 -1.5190
15697TIP3    H268583   0.248   1.599  14.289  1.5014  0.8463 -0.9060
15698TIP3   OH268584   2.088   0.747  16.213 -1.0807 -1.0995 -0.4767
15698TIP3    H168585   2.175   0.764  16.175 -1.1506 -1.0851 -0.6331
15698TIP3    H268586   2.087   0.799  16.293 -1.8618  0.9087 -1.7150
15699TIP3   OH268587   5.950   1.667   3.662 -0.0075 -0.0516  0.1863
15699TIP3    H168588   5.935   1.685   3.569  2.1298 -0.6709 -0.3327
15699TIP3    H268589   5.964   1.753   3.701  0.7636  0.1114 -0.4197
15700TIP3   OH268590   4.990   4.890  14.031  0.0722  0.2448 -0.5022
15700TIP3    H168591   5.018   4.977  14.057  0.4134 -0.0046 -0.0157
15700TIP3    H268592   4.896   4.898  14.016  0.1706  0.7891 -0.8751
15701TIP3   OH268593   5.642   5.764  11.493  0.1883  0.2731 -0.4778
15701TIP3    H168594   5.581   5.751  11.566  0.4956 -0.9338 -0.4067
15701TIP3    H268595   5.651   5.677  11.454  2.9939  0.0268  0.4471
15702TIP3   OH268596   1.637   0.652   4.927  0.2778 -0.0545 -0.0792
15702TIP3    H168597   1.640   0.726   4.988  0.7349 -0.3047  0.2075
15702TIP3    H268598   1.621   0.692   4.841 -1.2836  0.2318  0.3099
15703TIP3   OH268599   2.767   4.686   0.159  0.3038  0.3238 -0.3232
15703TIP3    H168600   2.846   4.634   0.145 -1.3432 -2.0751 -1.3840
15703TIP3    H268601   2.734   4.703   0.071 -1.3087 -0.3630  0.1052
15704TIP3   OH268602   1.019   6.536  10.374 -0.5964 -0.5966 -0.3649
15704TIP3    H168603   0.999   6.588  10.452  1.1000  1.5696 -1.2872
15704TIP3    H268604   0.935   6.497  10.349 -1.5324  0.1131  1.4809
15705TIP3   OH268605   2.460   0.726   5.325 -0.1107 -0.3016  0.4056
15705TIP3    H168606   2.379   0.751   5.370 -0.6454  0.8755 -1.1240
15705TIP3    H268607   2.432   0.663   5.258  0.1158  0.5464 -0.5106
15706TIP3   OH268608   2.581   4.199   0.655  0.2280 -0.2637  0.0694
15706TIP3    H168609   2.564   4.109   0.629 -2.5199  0.8263 -2.4183
15706TIP3    H268610   2.520   4.216   0.727  1.5676 -0.6629  1.3449
15707TIP3   OH268611   5.757   1.834  11.451 -0.3344  0.7368  0.2301
15707TIP3    H168612   5.679   1.883  11.475 -0.1163 -0.1201  3.0479
15707TIP3    H268613   5.751   1.754  11.503  1.6316 -0.0846 -0.7246
15708TIP3   OH268614   1.489   0.051   4.764  1.2110  0.3318  0.5297
15708TIP3    H168615   1.420   0.114   4.784 -0.4179 -0.8239 -1.1476
15708TIP3    H268616   1.566   0.105   4.746 -0.1467  1.9032 -0.9172
15709TIP3   OH268617   3.445   1.755  16.269 -0.0199 -0.0163 -0.3958
15709TIP3    H168618   3.418   1.665  16.287  1.5315 -0.1975  1.3837
15709TIP3    H268619   3.372   1.809  16.301 -0.1563 -0.5992  0.3066
15710TIP3   OH268620   3.586   1.025  11.166 -0.2458 -0.5976 -1.1491
15710TIP3    H168621   3.585   0.971  11.087  3.5828 -0.6816 -1.3443
15710TIP3    H268622   3.596   1.114  11.134 -1.0049 -0.3576 -0.7468
15711TIP3   OH268623   2.812   6.294   0.288  0.3928  0.2702  0.3273
15711TIP3    H168624   2.802   6.293   0.384  0.2309 -0.3316  0.3096
15711TIP3    H268625   2.735   6.341   0.257  1.2913  1.9852  0.5704
15712TIP3   OH268626   3.414   5.063   4.327 -0.6455  0.1178  0.4939
15712TIP3    H168627   3.509   5.072   4.327 -0.7108  0.8201  0.4349
15712TIP3    H268628   3.399   4.969   4.315  0.0466 -0.1495  1.6145
15713TIP3   OH268629   1.620   1.877   5.118  0.6665  0.0956  0.3582
15713TIP3    H168630   1.697   1.934   5.114  0.8225 -0.1477 -0.2120
15713TIP3    H268631   1.629   1.819   5.042  0.6556 -0.8821  1.0846
15714TIP3   OH268632   0.071   5.717  16.856 -0.0496 -0.2756 -0.2638
15714TIP3    H168633   0.113   5.643  16.813 -0.6103 -1.5981  1.3441
15714TIP3    H268634   0.012   5.677  16.921  0.1551  1.5622  1.1430
15715TIP3   OH268635   6.334   6.218  13.870  0.4467 -0.0454  0.0506
15715TIP3    H168636   6.326   6.287  13.805  0.9285 -0.3425 -0.3278
15715TIP3    H268637   6.420   6.231  13.909  1.4431 -1.6608 -1.4697
15716TIP3   OH268638   5.741   5.563   6.708  0.2893 -0.5181  0.2284
15716TIP3    H168639   5.671   5.594   6.766 -0.1323  1.2026 -1.1025
15716TIP3    H268640   5.795   5.641   6.693  0.8940 -1.1415 -0.9602
15717TIP3   OH268641   1.756   4.870  15.466 -0.2366  0.6952 -0.0011
15717TIP3    H168642   1.800   4.853  15.550  0.1444  0.1171 -0.3054
15717TIP3    H268643   1.738   4.783  15.431 -1.9244  0.9116  0.2491
15718TIP3   OH268644   1.517   5.062  13.664  0.3721 -0.2032  0.0069
15718TIP3    H168645   1.595   5.089  13.712  0.1980 -0.0356  0.1992
15718TIP3    H268646   1.505   4.970  13.687  1.1531 -0.5523 -0.9044
15719TIP3   OH268647   4.607   4.359  10.746 -0.7635 -0.2136  0.2073
15719TIP3    H168648   4.665   4.315  10.808 -2.4373 -0.2381  1.8206
15719TIP3    H268649   4.652   4.441  10.726  0.7042 -1.0336 -0.0909
15720TIP3   OH268650   3.186   3.998   1.532 -0.3230 -0.1994  0.4228
15720TIP3    H168651   3.206   4.057   1.460  0.7346 -0.8741  0.1524
15720TIP3    H268652   3.106   4.035   1.571 -0.2171  0.8633 -0.3156
15721TIP3   OH268653   0.191   5.016   6.104  0.0059  0.0758  0.5646
15721TIP3    H168654   0.286   5.022   6.096 -0.0351  0.9198  0.6409
15721TIP3    H268655   0.174   5.030   6.197 -0.2425  0.7405  0.4265
15722TIP3   OH268656   0.801   6.772  12.136  0.3303  0.1723 -0.4202
15722TIP3    H168657   0.756   6.699  12.180  1.0521 -0.4260 -0.6496
15722TIP3    H268658   0.746   6.794  12.062 -0.0726  0.0945 -0.1445
15723TIP3   OH268659   4.395   4.446  16.179 -0.0952  0.4034 -0.1840
15723TIP3    H168660   4.479   4.424  16.138  0.6092  1.6911  0.4911
15723TIP3    H268661   4.420   4.491  16.260 -1.4392  1.0178 -0.0928
15724TIP3   OH268662   2.615   4.896   2.158 -0.1492  0.2821  0.7491
15724TIP3    H168663   2.584   4.947   2.233 -0.9495 -0.1984  0.7501
15724TIP3    H268664   2.696   4.940   2.132  0.4358  0.1247  2.2283
15725TIP3   OH268665   0.088   6.028   5.342  0.1546  0.0055  0.1369
15725TIP3    H168666   0.154   6.083   5.301  0.4934  0.2262  0.9646
15725TIP3    H268667   0.021   6.089   5.373  1.3065  0.1953  2.5303
15726TIP3   OH268668   2.714   0.809   4.074  0.6521 -0.5059 -0.3988
15726TIP3    H168669   2.760   0.890   4.094 -0.1034  0.4473 -2.1978
15726TIP3    H268670   2.718   0.757   4.154  0.2572  1.7409  1.1575
15727TIP3   OH268671   0.351   5.460   2.441  0.4067 -0.3610 -0.0705
15727TIP3    H168672   0.375   5.378   2.398 -0.9634 -1.1764  0.6208
15727TIP3    H268673   0.383   5.450   2.531  0.2060 -0.1618  0.0247
15728TIP3   OH268674   5.029   2.534   6.424  0.4161 -0.3606  0.3260
15728TIP3    H168675   4.979   2.615   6.434 -0.8308 -1.1438  0.8049
15728TIP3    H268676   4.980   2.470   6.476  2.0124 -1.1533  0.9222
15729TIP3   OH268677   2.670   4.907   4.482  0.0924 -0.1603  0.1676
15729TIP3    H168678   2.761   4.892   4.457 -0.3739 -0.7588 -1.2745
15729TIP3    H268679   2.632   4.819   4.489 -0.6409  0.1097 -0.3122
15730TIP3   OH268680   0.159   5.250  13.710  0.2563 -0.3508  0.0648
15730TIP3    H168681   0.217   5.326  13.707 -0.6335  0.3245 -0.2487
15730TIP3    H268682   0.078   5.283  13.749 -1.3827 -0.2890 -3.1349
15731TIP3   OH268683   3.307   6.664  14.599 -0.3451 -0.2160 -0.3981
15731TIP3    H168684   3.216   6.696  14.595 -0.6798 -0.8541  1.2036
15731TIP3    H268685   3.344   6.708  14.675  0.4872 -0.4772 -0.6415
15732TIP3   OH268686   1.800   5.005  14.581 -0.4930  0.6545  0.0830
15732TIP3    H168687   1.840   4.940  14.639 -0.9067 -0.5600 -0.9225
15732TIP3    H268688   1.860   5.009  14.506 -0.5357  1.3592  0.0826
15733TIP3   OH268689   5.658   6.674  16.014 -0.3309 -0.5020 -0.0344
15733TIP3    H168690   5.701   6.588  16.012 -0.5421 -0.6071 -0.1673
15733TIP3    H268691   5.728   6.737  16.000 -0.2533 -0.6874 -0.5072
15734TIP3   OH268692   4.345   1.757  15.842 -0.4323  0.0824  0.8372
15734TIP3    H168693   4.395   1.678  15.820  0.6263  0.3689  2.1026
15734TIP3    H268694   4.254   1.734  15.821 -0.0971 -1.3559  0.8655
15735TIP3   OH268695   1.114   2.696  14.380 -0.3901 -0.0766  0.3224
15735TIP3    H168696   1.114   2.754  14.456 -0.9251 -0.5880  0.7186
15735TIP3    H268697   1.115   2.608  14.416 -2.9236 -0.3986 -0.1673
15736TIP3   OH268698   5.125   5.618  14.194  0.3528  0.1519  0.1883
15736TIP3    H168699   5.192   5.606  14.126 -1.5296  0.3800 -1.8327
15736TIP3    H268700   5.079   5.534  14.197  0.6044  0.0419  1.4571
15737TIP3   OH268701   2.286   4.557   4.660  0.5878 -0.8670 -0.3124
15737TIP3    H168702   2.330   4.472   4.669 -0.9877 -1.6771  0.0442
15737TIP3    H268703   2.294   4.596   4.747  0.6289 -1.0010 -0.2544
15738TIP3   OH268704   2.631   5.161  14.467 -0.5171 -0.2222 -0.6443
15738TIP3    H168705   2.628   5.217  14.544 -0.4026  0.1512 -0.9060
15738TIP3    H268706   2.698   5.095  14.488  0.9954  1.0776 -1.2045
15739TIP3   OH268707   2.055   3.576  15.109  0.9696 -0.3175 -0.3328
15739TIP3    H168708   2.071   3.591  15.202  0.7649  1.4539 -0.5502
15739TIP3    H268709   2.138   3.595  15.066  1.2351 -1.7263 -0.4736
15740TIP3   OH268710   5.542   6.239  11.474  0.0644  0.4709  0.8034
15740TIP3    H168711   5.458   6.282  11.460  1.0913  2.5893  0.8259
15740TIP3    H268712   5.590   6.299  11.531  1.3833 -0.9984  1.3066
15741TIP3   OH268713   3.967   0.883   6.181  0.5095  0.2755 -0.0011
15741TIP3    H168714   3.923   0.882   6.096 -0.0993 -0.0002  0.3102
15741TIP3    H268715   3.928   0.958   6.227 -1.1944 -1.1899  1.0623
15742TIP3   OH268716   1.282   1.843  16.796  0.3220  0.8548 -0.1096
15742TIP3    H168717   1.206   1.867  16.848  0.3179  1.2351 -0.2883
15742TIP3    H268718   1.354   1.892  16.836  0.3570  0.9836 -0.3289
15743TIP3   OH268719   1.816   4.527  16.790 -0.3226  0.3414  0.2919
15743TIP3    H168720   1.786   4.598  16.847  0.6219 -0.0045  1.2465
15743TIP3    H268721   1.756   4.455  16.808  0.9234 -0.3187  2.1328
15744TIP3   OH268722   0.004   5.838   5.100  0.0100  0.0066  0.3076
15744TIP3    H168723  -0.023   5.835   5.192  1.5740  1.0557  0.8414
15744TIP3    H268724   0.096   5.865   5.103  0.0486  0.2033 -1.5733
15745TIP3   OH268725   2.854   5.847  13.615  0.2794  0.1016 -0.1223
15745TIP3    H168726   2.812   5.763  13.595  0.7856 -0.2263  0.1695
15745TIP3    H268727   2.937   5.823  13.656  1.3106  0.7076 -1.7272
15746TIP3   OH268728   5.480   5.330  11.853 -0.2478 -0.9566 -0.5715
15746TIP3    H168729   5.494   5.299  11.763 -1.6973 -1.8117 -0.5292
15746TIP3    H268730   5.449   5.253  11.900 -1.6541  0.0022  0.1243
15747TIP3   OH268731   3.250   4.601  15.767  0.0881 -0.2149  0.2734
15747TIP3    H168732   3.267   4.693  15.788  0.0869  0.1650 -1.2579
15747TIP3    H268733   3.337   4.562  15.761  0.4135  0.6898 -3.1012
15748TIP3   OH268734   2.886   5.839  12.061  0.2346 -0.1486 -0.3823
15748TIP3    H168735   2.892   5.751  12.097 -0.0086  0.2141  0.5706
15748TIP3    H268736   2.975   5.859  12.031  0.5730 -0.2457  0.5361
15749TIP3   OH268737   0.296   0.660  16.218 -0.1714  0.2088  0.5484
15749TIP3    H168738   0.272   0.647  16.126  1.5398  1.0622 -0.0672
15749TIP3    H268739   0.229   0.612  16.267 -0.1868 -1.6768 -1.1757
15750TIP3   OH268740   2.148   3.752   1.758  0.5233 -0.0642  0.1438
15750TIP3    H168741   2.202   3.679   1.727  1.0611 -0.9866  2.9941
15750TIP3    H268742   2.062   3.714   1.772  0.8104 -0.1764  1.6686
15751TIP3   OH268743   1.662   6.810  13.687 -0.0142  0.2031 -0.2235
15751TIP3    H168744   1.613   6.764  13.755  0.4891  1.6778  1.2183
15751TIP3    H268745   1.741   6.757  13.674  0.4834  0.5110  1.2856
15752TIP3   OH268746   1.381   3.693  12.408  0.2210 -0.1232  0.4560
15752TIP3    H168747   1.305   3.745  12.435  0.8259 -0.3431  2.7971
15752TIP3    H268748   1.354   3.652  12.326 -1.9737  0.2768  0.9181
15753TIP3   OH268749   5.014   2.391   3.403  0.0082  0.0395  0.2750
15753TIP3    H168750   5.104   2.416   3.383 -0.1429 -0.7424 -1.5474
15753TIP3    H268751   4.962   2.469   3.385  0.1274 -0.0429 -0.4489
15754TIP3   OH268752   3.917   4.424   1.623 -0.0590 -0.1449 -0.0114
15754TIP3    H168753   3.922   4.514   1.592  0.2291 -0.1254  0.0879
15754TIP3    H268754   4.007   4.393   1.621 -0.1463 -0.4049  0.0346
15755TIP3   OH268755   3.236   5.209  15.652 -0.1063  0.0234  0.5082
15755TIP3    H168756   3.320   5.164  15.649 -0.0040  0.0762  1.9645
15755TIP3    H268757   3.173   5.145  15.619  0.5884  0.2996 -1.5121
15756TIP3   OH268758   2.613   6.587   2.817 -0.2492 -0.1610  0.1844
15756TIP3    H168759   2.606   6.497   2.849  0.4965 -0.2311  0.1578
15756TIP3    H268760   2.597   6.580   2.723 -1.0166 -0.1463  0.3057
15757TIP3   OH268761   1.129   5.238  15.493 -0.1602 -0.2562 -0.2847
15757TIP3    H168762   1.198   5.174  15.502 -1.0721 -1.1644  0.5039
15757TIP3    H268763   1.110   5.241  15.399 -0.3041 -1.3661 -0.2983
15758TIP3   OH268764   4.372   6.315   5.076 -0.6190 -0.1360 -0.0320
15758TIP3    H168765   4.317   6.240   5.053 -0.2374 -0.6151  0.5825
15758TIP3    H268766   4.375   6.313   5.172  1.0785 -0.5585 -0.0750
15759TIP3   OH268767   6.559   3.126  16.171 -0.3017 -0.4075 -0.1060
15759TIP3    H168768   6.592   3.055  16.115 -0.2423  0.6771 -1.5005
15759TIP3    H268769   6.465   3.109  16.179 -0.1739 -1.0183  0.1415
15760TIP3   OH268770   2.400   0.332  15.368 -0.7448  0.6717 -0.5287
15760TIP3    H168771   2.385   0.413  15.416 -0.1381  1.0474 -0.9607
15760TIP3    H268772   2.315   0.312  15.327 -0.3493  2.3305 -2.2763
15761TIP3   OH268773   4.305   4.763  13.758  0.2512 -0.5330  0.1749
15761TIP3    H168774   4.242   4.788  13.692  1.0451  0.4688 -0.2351
15761TIP3    H268775   4.340   4.679  13.727  1.1794  0.2937 -1.1180
15762TIP3   OH268776   0.055   3.583   4.541 -0.3668  0.0294  0.0482
15762TIP3    H168777   0.114   3.610   4.471  0.0731 -1.4565 -0.1909
15762TIP3    H268778   0.104   3.602   4.621 -0.3112  0.4822 -0.0927
15763TIP3   OH268779   5.581   4.451  12.155 -0.8306  0.5313  0.7444
15763TIP3    H168780   5.656   4.404  12.119  1.7194  2.7760  2.7748
15763TIP3    H268781   5.583   4.536  12.111 -1.6003  0.9770  1.5381
15764TIP3   OH268782   2.748   6.449   2.069  0.2286  0.1638  0.2318
15764TIP3    H168783   2.826   6.458   2.014 -0.5572 -1.3467 -1.2155
15764TIP3    H268784   2.674   6.456   2.009 -0.9195  3.0195  1.7599
15765TIP3   OH268785   0.296   3.415  12.133 -0.3992  0.1788  0.6432
15765TIP3    H168786   0.370   3.361  12.160 -0.9766 -1.0029 -0.0288
15765TIP3    H268787   0.315   3.502  12.167  1.5309  0.0242  0.0653
15766TIP3   OH268788   1.866   3.534  16.012 -0.4039  0.3909  0.1160
15766TIP3    H168789   1.896   3.474  15.943  0.7656  1.1306 -0.0387
15766TIP3    H268790   1.932   3.526  16.081 -0.6467  0.9470  0.4162
15767TIP3   OH268791   5.056   4.879   1.626  0.0435 -0.3857  0.5013
15767TIP3    H168792   5.130   4.853   1.682 -0.2360 -2.7299 -0.1287
15767TIP3    H268793   4.990   4.811   1.640 -0.4211 -0.5302 -1.8964
15768TIP3   OH268794   4.265   2.192  14.760  0.9673  0.3862 -0.0377
15768TIP3    H168795   4.179   2.231  14.749  0.7078  0.2537  1.3414
15768TIP3    H268796   4.264   2.155  14.848  1.5860 -1.7769 -0.8666
15769TIP3   OH268797   4.264   1.156  15.367 -0.1429  0.4312 -0.1473
15769TIP3    H168798   4.280   1.189  15.455  0.9500 -0.7726  0.1439
15769TIP3    H268799   4.351   1.144  15.330 -0.4660 -1.6052 -0.3772
15770TIP3   OH268800   6.715   5.089   2.593  0.2014 -0.8115 -0.2559
15770TIP3    H168801   6.772   5.068   2.666  0.9320 -0.4618 -0.7158
15770TIP3    H268802   6.721   5.184   2.584 -2.6476 -0.3394  1.4567
15771TIP3   OH268803   0.958   3.670  17.126 -0.1600 -0.2408 -0.5390
15771TIP3    H168804   0.982   3.756  17.089  0.8286 -0.3669 -0.2123
15771TIP3    H268805   1.005   3.607  17.072 -0.0452 -0.5172 -0.1214
15772TIP3   OH268806   2.546   3.600  15.018 -0.7815  0.4762 -0.0376
15772TIP3    H168807   2.590   3.597  15.103 -0.2786 -2.9881 -0.2837
15772TIP3    H268808   2.603   3.655  14.964  0.1019  0.8578  1.2356
15773TIP3   OH268809   3.965   1.810   5.604  0.4937  0.1112 -0.3316
15773TIP3    H168810   3.909   1.851   5.670 -0.8499  0.1599 -1.4436
15773TIP3    H268811   4.054   1.833   5.630 -0.0299  0.6846  1.0708
15774TIP3   OH268812   5.096   4.287  11.560  0.1801 -0.4625 -0.4835
15774TIP3    H168813   5.094   4.243  11.645 -0.9630 -0.3618 -0.4402
15774TIP3    H268814   5.104   4.216  11.497 -1.8863 -0.8153 -0.4283
15775TIP3   OH268815   2.192   2.127   0.107  0.4638 -0.5857 -0.3128
15775TIP3    H168816   2.192   2.222   0.115  1.6635 -0.5462 -0.4952
15775TIP3    H268817   2.285   2.103   0.104  0.1905 -1.7888  0.0178
15776TIP3   OH268818   1.965   2.539  16.823  0.4118  0.6368 -0.4831
15776TIP3    H168819   1.971   2.482  16.900  2.2410 -0.0755 -1.1106
15776TIP3    H268820   1.873   2.565  16.821  0.1509  0.1030  1.5250
15777TIP3   OH268821   2.297   6.814  16.316  0.1510  0.2561  0.1818
15777TIP3    H168822   2.220   6.868  16.300 -1.6119 -1.2815  2.8156
15777TIP3    H268823   2.339   6.853  16.392  0.3368 -0.5752  0.5152
15778TIP3   OH268824   0.435   6.006   2.481  0.0763 -0.5286 -0.6849
15778TIP3    H168825   0.480   6.047   2.555  1.7857 -0.5119 -1.6746
15778TIP3    H268826   0.361   5.961   2.520  0.0891  0.7050  0.8427
15779TIP3   OH268827   6.543   5.392   5.343 -0.7717  0.2131  0.0887
15779TIP3    H168828   6.591   5.401   5.425 -1.0719  0.5449  0.2283
15779TIP3    H268829   6.595   5.330   5.291 -0.3864  0.2936  0.3786
15780TIP3   OH268830   2.586   5.871   5.677  0.3232  0.0794 -0.1164
15780TIP3    H168831   2.581   5.837   5.587  1.9543 -0.4167 -0.0567
15780TIP3    H268832   2.574   5.794   5.732  0.2068  0.2359  0.0766
15781TIP3   OH268833   5.596   0.203   2.144  0.0468  0.2818  0.1040
15781TIP3    H168834   5.509   0.205   2.105 -0.0496 -0.4814  0.2795
15781TIP3    H268835   5.642   0.133   2.098  0.7292  0.9681 -0.3033
15782TIP3   OH268836   6.591   4.550   4.903  0.5894  1.1064  0.2768
15782TIP3    H168837   6.617   4.535   4.812 -1.2167  0.1009 -0.1241
15782TIP3    H268838   6.668   4.524   4.954  0.4593 -1.9603 -0.8333
15783TIP3   OH268839   2.896   5.455   5.692  0.6452 -0.1461 -0.1211
15783TIP3    H168840   2.960   5.507   5.643 -0.7672  2.2439  0.4197
15783TIP3    H268841   2.820   5.448   5.635  0.1880 -0.1417  0.4687
15784TIP3   OH268842   0.122   3.025   1.690 -1.0386  0.1100  0.2707
15784TIP3    H168843   0.087   3.106   1.727 -3.4041 -0.8647  0.3410
15784TIP3    H268844   0.172   3.053   1.613 -1.2337  1.6687  0.6766
15785TIP3   OH268845   2.189   4.112  15.468 -0.0716 -0.1375 -0.2156
15785TIP3    H168846   2.164   4.043  15.408 -0.3246  0.8859 -1.3188
15785TIP3    H268847   2.119   4.177  15.461  1.7516  1.7906 -1.7699
15786TIP3   OH268848   3.892   0.819  13.713  0.1272  0.2203 -0.3488
15786TIP3    H168849   3.849   0.846  13.794 -0.3452 -0.3426 -0.4049
15786TIP3    H268850   3.837   0.748  13.679  0.5187  0.2074 -0.9737
15787TIP3   OH268851   4.606   1.100   5.268  0.1075 -0.2145  0.3135
15787TIP3    H168852   4.673   1.093   5.335 -1.6008  2.7667  2.5608
15787TIP3    H268853   4.523   1.104   5.316 -1.3457  0.4089 -2.0532
15788TIP3   OH268854   3.422   6.037   6.352 -0.5863 -0.0706  0.2045
15788TIP3    H168855   3.450   6.042   6.443 -0.6059  1.3715  0.1410
15788TIP3    H268856   3.327   6.027   6.356 -0.5589 -0.3013  0.3329
15789TIP3   OH268857   2.378   2.475  16.096  0.4109  0.3806 -0.1654
15789TIP3    H168858   2.327   2.510  16.023 -1.1584 -1.4595 -0.0304
15789TIP3    H268859   2.432   2.406  16.056 -1.0727 -1.2071  0.4979
15790TIP3   OH268860   2.428   3.644   3.576  0.6352 -0.4461 -0.1749
15790TIP3    H168861   2.365   3.715   3.566 -1.3051 -2.2191 -1.2560
15790TIP3    H268862   2.514   3.688   3.573 -0.4755  1.9218  0.2535
15791TIP3   OH268863   2.552   0.996   2.980 -0.1423  0.4297  0.1059
15791TIP3    H168864   2.550   1.020   3.072  0.5027 -1.5187  0.6538
15791TIP3    H268865   2.470   0.949   2.965 -0.2845  0.8063 -0.3548
15792TIP3   OH268866   4.144   1.496  14.759  0.5372 -0.3024  0.3616
15792TIP3    H168867   4.056   1.463  14.743  0.2514 -0.0365  1.3521
15792TIP3    H268868   4.156   1.566  14.695  0.1594 -0.5550  0.0086
15793TIP3   OH268869   0.120   0.316  13.336  0.2069  0.3039 -0.0574
15793TIP3    H168870   0.145   0.345  13.424  0.9726 -0.0072 -0.1660
15793TIP3    H268871   0.082   0.394  13.296  1.3255  0.9092  0.0025
15794TIP3   OH268872   1.773   5.112   4.792 -0.1153  0.1200  0.2555
15794TIP3    H168873   1.744   5.187   4.844 -0.3165 -0.4077  0.9223
15794TIP3    H268874   1.705   5.046   4.805  0.2248 -0.2978 -0.0565
15795TIP3   OH268875   3.303   4.427   2.554  0.2014 -0.1540  0.6730
15795TIP3    H168876   3.297   4.401   2.646 -3.8007  3.3098  1.7681
15795TIP3    H268877   3.383   4.479   2.549 -0.3242  1.0259  2.8117
15796TIP3   OH268878   2.551   0.262   0.193  0.1871 -0.1220  0.4418
15796TIP3    H168879   2.607   0.299   0.124 -1.5682 -0.1403 -1.0628
15796TIP3    H268880   2.609   0.202   0.241  1.5397  0.0997 -0.8327
15797TIP3   OH268881   6.163   1.590   5.430  0.0270  0.1469 -0.3959
15797TIP3    H168882   6.224   1.651   5.388 -0.5605 -0.7681 -2.7696
15797TIP3    H268883   6.083   1.598   5.379 -1.3170  0.0912  1.6157
15798TIP3   OH268884   4.400   1.512  14.875  0.5106  1.0357 -0.4270
15798TIP3    H168885   4.319   1.502  14.825  0.2107  2.7149 -0.3304
15798TIP3    H268886   4.391   1.451  14.948 -0.6303  1.1377 -0.4631
15799TIP3   OH268887   0.869   2.713  13.601 -0.4650 -0.1228  0.4808
15799TIP3    H168888   0.895   2.805  13.606  1.4904 -0.6514  0.7539
15799TIP3    H268889   0.784   2.715  13.555  0.5459  1.6492 -1.4968
15800TIP3   OH268890   4.184   0.362  13.717 -0.4675  0.0814 -0.3228
15800TIP3    H168891   4.204   0.316  13.636 -0.7272 -1.4134  0.4383
15800TIP3    H268892   4.190   0.296  13.786 -0.5309  1.2490  0.8622
15801TIP3   OH268893   2.811   2.138  12.477 -0.2409 -0.2347  0.2359
15801TIP3    H168894   2.903   2.161  12.461  0.1598 -1.3323  0.8492
15801TIP3    H268895   2.815   2.069  12.543 -1.5511  0.1683  0.7620
15802TIP3   OH268896   0.845   1.580  14.527  0.6663 -0.3575  0.1864
15802TIP3    H168897   0.771   1.641  14.535 -0.5557 -1.9867  2.6833
15802TIP3    H268898   0.917   1.624  14.571  1.3024  1.2476 -2.2672
15803TIP3   OH268899   2.036   0.847  11.509  0.2395 -0.0158 -0.1201
15803TIP3    H168900   1.983   0.918  11.474 -1.3671  0.0092  2.1399
15803TIP3    H268901   2.099   0.890  11.568  0.0914 -0.3614  0.2941
15804TIP3   OH268902   4.282   2.301  16.686  0.5313 -0.1673  0.4815
15804TIP3    H168903   4.356   2.248  16.658  1.2370 -0.3319  2.4871
15804TIP3    H268904   4.237   2.247  16.752 -1.1771  0.0858 -0.4138
15805TIP3   OH268905   4.119   6.193   0.415  0.1748 -0.5079  0.0339
15805TIP3    H168906   4.192   6.211   0.356  1.9910 -0.0383  2.2658
15805TIP3    H268907   4.124   6.099   0.432 -0.0076 -0.5448 -0.1050
15806TIP3   OH268908   1.176   4.588  15.430 -0.3612  0.4014 -0.0699
15806TIP3    H168909   1.268   4.610  15.415  0.4121 -1.8312  1.0095
15806TIP3    H268910   1.134   4.596  15.344  1.3954 -0.9553 -1.1090
15807TIP3   OH268911   1.473   2.848   5.059  0.4429 -0.0518  0.4645
15807TIP3    H168912   1.408   2.891   5.004  2.1138  1.4119 -0.4655
15807TIP3    H268913   1.433   2.846   5.146 -0.0702  2.7508  0.3861
15808TIP3   OH268914   0.984   4.067   3.756 -0.1783  0.4646  0.2508
15808TIP3    H168915   1.071   4.107   3.767 -0.5322  1.0159  1.2147
15808TIP3    H268916   0.956   4.045   3.845 -0.0890 -1.8144 -0.2164
15809TIP3   OH268917   2.420   0.620  13.579 -0.0569 -0.1266 -0.5102
15809TIP3    H168918   2.417   0.621  13.675  0.4404 -1.6135 -0.4575
15809TIP3    H268919   2.378   0.702  13.553  0.9631  0.9323  0.9943
15810TIP3   OH268920   4.021   0.615  16.132 -0.0866  0.3323  0.3160
15810TIP3    H168921   4.108   0.576  16.121  0.4411  0.6007  2.9211
15810TIP3    H268922   3.979   0.562  16.200 -2.2067 -0.0907 -1.2192
15811TIP3   OH268923   2.007   6.329  13.019 -0.0179 -0.0814  0.5636
15811TIP3    H168924   1.965   6.403  13.065  0.0852 -0.4446  1.2559
15811TIP3    H268925   2.095   6.360  13.000 -0.0285  0.0399  0.7042
15812TIP3   OH268926   5.608   3.411   5.136  0.7840  0.0774  0.8991
15812TIP3    H168927   5.649   3.325   5.125  1.4535  0.3894  0.8443
15812TIP3    H268928   5.668   3.458   5.195  0.1967  0.3574  1.2811
15813TIP3   OH268929   5.424   2.573   0.107  0.0538  0.3484 -0.2784
15813TIP3    H168930   5.406   2.655   0.060  0.6697  0.3917 -0.4508
15813TIP3    H268931   5.516   2.555   0.088  0.0947 -0.0457  0.2928
15814TIP3   OH268932   5.415   3.212   2.885 -0.1827 -0.1417 -1.0809
15814TIP3    H168933   5.406   3.284   2.823  0.3891 -1.2648 -2.5153
15814TIP3    H268934   5.474   3.246   2.952 -2.1166  1.6789 -0.1573
15815TIP3   OH268935   3.810   0.740   5.535  0.3583 -0.1595 -0.2049
15815TIP3    H168936   3.836   0.819   5.489 -0.5487 -0.4375 -1.2432
15815TIP3    H268937   3.715   0.749   5.548  0.6393  0.0798  1.9756
15816TIP3   OH268938   2.129   6.275  16.641 -0.1853 -0.4841  0.1188
15816TIP3    H168939   2.224   6.290  16.640 -0.1589 -0.6465  0.3079
15816TIP3    H268940   2.094   6.349  16.691  0.0448 -1.6177  2.0352
15817TIP3   OH268941   5.742   4.876   5.743  0.4244  0.3647 -0.1642
15817TIP3    H168942   5.748   4.928   5.823  0.7641  3.4679 -2.0123
15817TIP3    H268943   5.832   4.874   5.710  0.1665 -0.2140 -0.8380
15818TIP3   OH268944   6.030   2.389  13.596  0.1199 -0.1614  0.1529
15818TIP3    H168945   6.060   2.300  13.615  0.9051  0.4863  2.2272
15818TIP3    H268946   5.969   2.378  13.523  0.9588 -2.2580 -0.3219
15819TIP3   OH268947   4.212   5.903  15.878  0.5924 -0.1963 -0.5510
15819TIP3    H168948   4.295   5.860  15.896 -0.3637 -2.5876 -1.4379
15819TIP3    H268949   4.162   5.896  15.959  0.9990  0.6890 -0.2113
15820TIP3   OH268950   0.959   6.094  13.273  0.3987 -0.2087  0.0621
15820TIP3    H168951   0.893   6.159  13.250 -0.2508  0.3096  2.9730
15820TIP3    H268952   0.911   6.012  13.278  0.1082  0.0283  1.4003
15821TIP3   OH268953   5.394   4.414  11.764  0.7981 -0.2657 -0.1664
15821TIP3    H168954   5.452   4.338  11.775  1.5827  0.3541  0.0378
15821TIP3    H268955   5.450   4.482  11.727 -0.0085  0.0813 -0.7701
15822TIP3   OH268956   1.529   0.572   1.596  0.2760  0.2994 -0.4096
15822TIP3    H168957   1.461   0.608   1.654  0.0504  2.8457 -2.1215
15822TIP3    H268958   1.598   0.637   1.597  1.9624 -1.4020 -0.1653
15823TIP3   OH268959   1.691   4.246  13.450  0.2065 -0.4209 -0.5402
15823TIP3    H168960   1.754   4.198  13.395  0.5437  1.0706 -1.5329
15823TIP3    H268961   1.605   4.216  13.420  0.4112 -0.5512 -1.0035
15824TIP3   OH268962   4.824   2.231  16.028  0.1670 -0.4542  0.7849
15824TIP3    H168963   4.797   2.203  16.115 -1.3279  1.2129  0.9235
15824TIP3    H268964   4.847   2.151  15.982 -1.6623 -1.6513  1.8491
15825TIP3   OH268965   0.647   2.386   4.765  0.3731  0.2725  1.1102
15825TIP3    H168966   0.653   2.457   4.829 -2.0474  1.5758  0.0276
15825TIP3    H268967   0.680   2.425   4.683  1.2993 -0.6584  1.0180
15826TIP3   OH268968   5.371   1.229  12.862  0.8409 -0.2295  0.0712
15826TIP3    H168969   5.380   1.259  12.772  1.5016  2.9299  1.0795
15826TIP3    H268970   5.452   1.256  12.905  0.3533 -1.2463  1.7564
15827TIP3   OH268971   2.228   2.905   0.842  0.2806 -0.2618 -0.3883
15827TIP3    H168972   2.157   2.868   0.789 -0.0675  0.6738 -0.5942
15827TIP3    H268973   2.250   2.836   0.905  1.4390 -1.8389 -2.4016
15828TIP3   OH268974   0.870   4.943   1.636 -0.6947  0.3614  0.2765
15828TIP3    H168975   0.912   4.994   1.705 -0.7746 -0.6659  1.1092
15828TIP3    H268976   0.872   4.853   1.668  2.4989 -0.8002 -2.5957
15829TIP3   OH268977   3.513   4.368  11.954  0.5956 -0.6667  0.3412
15829TIP3    H168978   3.517   4.339  11.863  0.9415  0.0464  0.1286
15829TIP3    H268979   3.504   4.287  12.004  2.0536 -1.2018 -0.2161
15830TIP3   OH268980   1.370   6.054   1.558  0.3872  0.1079  0.0459
15830TIP3    H168981   1.293   6.085   1.605  0.6309 -0.0290  0.5515
15830TIP3    H268982   1.419   6.134   1.538  0.1690  0.1855 -0.1770
15831TIP3   OH268983   5.832   5.836   4.361  0.1326 -0.2181 -0.3113
15831TIP3    H168984   5.858   5.755   4.318  1.5734  0.4930 -0.8435
15831TIP3    H268985   5.827   5.815   4.454  3.4083 -0.2896 -0.0367
15832TIP3   OH268986   4.790   6.271  16.574  0.4789  0.4494  0.1229
15832TIP3    H168987   4.815   6.322  16.651  0.5378  1.8211 -0.7657
15832TIP3    H268988   4.825   6.321  16.500 -1.6731  0.5197 -0.9531
15833TIP3   OH268989   5.172   2.732  13.017 -0.8328  0.0305 -0.2050
15833TIP3    H168990   5.232   2.742  12.943 -0.1673  0.0223  0.3261
15833TIP3    H268991   5.222   2.762  13.093 -0.1951 -3.2562  0.8254
15834TIP3   OH268992   4.158   5.851  10.782  0.3866 -0.4501 -0.2740
15834TIP3    H168993   4.186   5.762  10.803  0.0168 -0.5281 -0.1056
15834TIP3    H268994   4.156   5.854  10.687 -1.7432 -1.3133 -0.2974
15835TIP3   OH268995   4.821   1.433   3.943 -0.2095  0.0585  0.2578
15835TIP3    H168996   4.788   1.385   4.020 -0.0810 -0.7900 -0.2050
15835TIP3    H268997   4.908   1.396   3.928  0.0297  0.6877  0.1004
15836TIP3   OH268998   2.006   5.866  14.582  0.1757  0.1968 -0.1458
15836TIP3    H168999   1.989   5.843  14.491  0.5270 -1.1345  0.1008
15836TIP3    H269000   2.008   5.961  14.583 -0.4790  0.2408 -1.4049
15837TIP3   OH269001   2.267   4.342   1.522  0.3382 -0.5039 -0.0271
15837TIP3    H169002   2.194   4.376   1.470 -0.2141  2.2703  2.2993
15837TIP3    H269003   2.230   4.327   1.609  2.3959  0.7806  1.1708
15838TIP3   OH269004   5.366   5.115   5.545 -0.1835  0.1496  0.0319
15838TIP3    H169005   5.332   5.027   5.526  0.4123 -0.1678  0.4054
15838TIP3    H269006   5.299   5.174   5.512 -0.1351 -0.4247 -1.1693
15839TIP3   OH269007   6.171   4.664  12.457  0.0365 -0.5090  0.6240
15839TIP3    H169008   6.156   4.758  12.446  0.6898 -0.6539 -2.4439
15839TIP3    H269009   6.190   4.653  12.551 -3.5426  1.7996  1.7995
15840TIP3   OH269010   0.040   3.591  13.169 -0.1282 -0.1035 -0.0288
15840TIP3    H169011  -0.009   3.509  13.159  0.5152 -0.7335  1.7265
15840TIP3    H269012   0.095   3.595  13.091 -0.1901 -1.3385 -0.1615
15841TIP3   OH269013   5.445   4.231   3.329 -0.1562 -0.5551  0.4731
15841TIP3    H169014   5.499   4.155   3.308 -0.3720 -0.5255 -0.1908
15841TIP3    H269015   5.443   4.283   3.249 -4.1244 -2.3238 -0.8517
15842TIP3   OH269016   5.396   1.045  11.605  0.3887  0.3747 -0.0938
15842TIP3    H169017   5.422   0.991  11.679 -1.9890  0.1024  0.6252
15842TIP3    H269018   5.328   1.102  11.640 -1.0808 -0.0150 -2.1323
15843TIP3   OH269019   0.589   3.228   1.614  0.1791  0.2654 -0.1989
15843TIP3    H169020   0.587   3.228   1.519  0.3897  0.8563 -0.2072
15843TIP3    H269021   0.652   3.296   1.637 -0.4960  0.7135  0.3703
15844TIP3   OH269022   0.766   4.449   0.227  0.0097 -1.0016 -0.1617
15844TIP3    H169023   0.830   4.405   0.282  0.1918  0.9482  1.3029
15844TIP3    H269024   0.696   4.385   0.215  0.8002 -2.0920  0.8359
15845TIP3   OH269025   2.414   5.239  11.685 -0.3759 -0.8762 -0.1194
15845TIP3    H169026   2.321   5.261  11.685 -0.0720  0.5517  1.1522
15845TIP3    H269027   2.441   5.247  11.594 -1.1100  0.6023 -0.2393
15846TIP3   OH269028   2.790   4.101   4.675 -0.3976  0.4753  0.1568
15846TIP3    H169029   2.796   4.141   4.588  0.9682 -1.0113 -0.4904
15846TIP3    H269030   2.867   4.133   4.721 -0.0861 -0.2170  0.1348
15847TIP3   OH269031   5.058   3.986   5.564  0.4109 -0.0627  0.0487
15847TIP3    H169032   4.983   4.010   5.619 -0.1589  0.0054 -0.7484
15847TIP3    H269033   5.126   4.050   5.587  0.0232  0.2484  0.3455
15848TIP3   OH269034   5.418   6.822   2.734 -0.0863 -0.3411 -0.1330
15848TIP3    H169035   5.376   6.742   2.702 -0.4013 -0.2115 -0.0408
15848TIP3    H269036   5.350   6.889   2.728  0.6743  0.3194 -1.8550
15849TIP3   OH269037   5.553   6.722   2.400  0.3892 -0.1368  0.1679
15849TIP3    H169038   5.569   6.816   2.392  1.9826 -0.2989  0.9299
15849TIP3    H269039   5.468   6.715   2.442 -0.0822  0.9418 -0.5582
15850TIP3   OH269040   0.749   2.126   5.576 -0.1524  0.1408  0.3055
15850TIP3    H169041   0.679   2.148   5.637  0.9339  0.8499  1.3353
15850TIP3    H269042   0.789   2.210   5.554  0.1142 -0.2121 -0.6008
15851TIP3   OH269043   5.764   3.088   4.874  0.6387 -0.3796 -0.5313
15851TIP3    H169044   5.832   3.020   4.874  1.5117  0.4661  0.4622
15851TIP3    H269045   5.692   3.049   4.825  1.2284 -1.9234 -0.2318
15852TIP3   OH269046   3.209   0.872   4.906 -0.0554  0.2204  0.4383
15852TIP3    H169047   3.219   0.959   4.868 -0.3706 -0.9515 -2.5517
15852TIP3    H269048   3.126   0.876   4.954  0.9521  2.1015  2.1430
15853TIP3   OH269049   1.944   1.483  11.896  0.0090 -0.1114  0.9380
15853TIP3    H169050   1.947   1.461  11.989  1.9351 -1.4367  0.6214
15853TIP3    H269051   1.947   1.398  11.851 -1.2113  0.4908 -0.3520
15854TIP3   OH269052   2.499   0.080  16.476  0.6715  0.4602  0.0057
15854TIP3    H169053   2.516   0.174  16.470  0.9402  0.3611 -0.8253
15854TIP3    H269054   2.447   0.070  16.556 -1.7486  1.6552 -1.3459
15855TIP3   OH269055   2.651   2.691  16.859 -0.0549  0.4637 -0.9564
15855TIP3    H169056   2.648   2.622  16.793 -1.0017 -0.7082  0.2417
15855TIP3    H269057   2.569   2.680  16.908  1.1818  0.4056  1.2381
15856TIP3   OH269058   2.172   0.644  11.329 -0.2674 -0.7372  0.2541
15856TIP3    H169059   2.254   0.619  11.371  0.7037 -1.5548 -1.9462
15856TIP3    H269060   2.127   0.698  11.394  1.8035 -0.6252  1.7029
15857TIP3   OH269061   1.654   4.707  13.478 -0.3834  0.0851  0.4798
15857TIP3    H169062   1.640   4.648  13.552 -0.5681  0.5348  0.8024
15857TIP3    H269063   1.576   4.695  13.424 -0.6307  0.3676  0.7727
15858TIP3   OH269064   1.176   4.504  11.138 -0.4162  0.0219 -0.3740
15858TIP3    H169065   1.184   4.431  11.200 -1.3326  1.8329  2.0475
15858TIP3    H269066   1.264   4.541  11.134 -0.6917  1.0536  1.5152
15859TIP3   OH269067   0.723   5.171  15.705 -0.9494  0.1059 -0.3057
15859TIP3    H169068   0.725   5.108  15.633 -1.9501 -0.9226  0.5316
15859TIP3    H269069   0.697   5.119  15.781  0.0919  1.1687  0.8098
15860TIP3   OH269070   3.116   6.316   6.439  0.7468  0.6283  0.4029
15860TIP3    H169071   3.139   6.229   6.405  0.3293  1.5056 -2.4175
15860TIP3    H269072   3.057   6.299   6.511 -0.9329 -1.4675 -1.3384
15861TIP3   OH269073   5.043   5.673   4.838 -0.0521 -1.1870 -0.3339
15861TIP3    H169074   5.119   5.661   4.780  0.8376  0.2908  0.4743
15861TIP3    H269075   5.056   5.759   4.877 -1.6299 -1.3505  0.6307
15862TIP3   OH269076   6.471   6.427  15.892  0.8183 -0.1601  0.1507
15862TIP3    H169077   6.562   6.396  15.895  1.3917  1.0295 -2.2515
15862TIP3    H269078   6.419   6.349  15.911  2.3203 -1.2197  0.1397
15863TIP3   OH269079   0.278   5.561   0.888  0.4836  0.0880 -0.0755
15863TIP3    H169080   0.333   5.625   0.933  1.2353  0.5981 -1.6432
15863TIP3    H269081   0.326   5.540   0.808  0.1296 -2.2561  0.2532
15864TIP3   OH269082   3.579   1.037   0.042  0.1166 -0.5386 -0.3422
15864TIP3    H169083   3.644   1.093   0.001 -0.7008  1.0822  0.4587
15864TIP3    H269084   3.630   0.975   0.094  1.0833  1.4911  1.3090
15865TIP3   OH269085   1.876   4.280   6.071  0.4992 -0.0924  0.2952
15865TIP3    H169086   1.829   4.321   5.998  0.5451 -0.4596  0.0624
15865TIP3    H269087   1.925   4.208   6.032  1.3768  0.3689  0.5160
15866TIP3   OH269088   2.781   1.896  17.111  0.0263  0.4224  0.4436
15866TIP3    H169089   2.868   1.865  17.135  0.5036  0.8727 -0.6808
15866TIP3    H269090   2.757   1.845  17.034  0.0737  1.5715 -0.3491
15867TIP3   OH269091   6.348   5.806   1.921 -0.9569  0.6704 -0.9212
15867TIP3    H169092   6.408   5.740   1.887  0.1346  1.3021 -0.2696
15867TIP3    H269093   6.302   5.762   1.993 -2.4333 -0.2977 -2.3782
15868TIP3   OH269094   3.611   4.527   2.049  0.2261  0.1610  0.3549
15868TIP3    H169095   3.636   4.544   1.958  0.4217  0.4406  0.4572
15868TIP3    H269096   3.620   4.432   2.059 -0.7912 -0.0091 -0.2043
15869TIP3   OH269097   1.493   6.157  15.803  0.4057 -0.0491 -0.0596
15869TIP3    H169098   1.511   6.244  15.766 -2.0017  0.3940 -0.3391
15869TIP3    H269099   1.537   6.096  15.744  1.2126  0.9122 -0.4801
15870TIP3   OH269100   2.498   0.708   4.689 -0.5020 -0.2808  0.3053
15870TIP3    H169101   2.538   0.795   4.687  1.3097 -1.0949 -0.2269
15870TIP3    H269102   2.450   0.702   4.607  0.6768 -0.3583 -0.3952
15871TIP3   OH269103   6.381   1.109   6.177 -0.2595  0.0964  0.2140
15871TIP3    H169104   6.393   1.070   6.263 -0.9828 -1.3346 -0.2824
15871TIP3    H269105   6.469   1.119   6.142  0.0337  0.6227  1.0760
15872TIP3   OH269106   6.253   0.399   4.179  0.2547  0.4335 -0.1192
15872TIP3    H169107   6.296   0.410   4.264 -1.0144  2.6507  0.3201
15872TIP3    H269108   6.324   0.383   4.118  1.3698  0.5940  1.0860
15873TIP3   OH269109   2.659   3.794   3.626  0.8623 -0.2981  0.0219
15873TIP3    H169110   2.661   3.885   3.656  0.0564 -0.1017 -0.4941
15873TIP3    H269111   2.749   3.775   3.602  0.6371  1.2782 -2.4758
15874TIP3   OH269112   5.702   3.256   5.449  0.1267  0.2384  0.0775
15874TIP3    H169113   5.640   3.199   5.405  1.0079 -2.1982  1.7847
15874TIP3    H269114   5.777   3.261   5.389  0.2490 -0.8569  0.1248
15875TIP3   OH269115   6.118   4.154   0.870  0.0056  0.4622  0.3058
15875TIP3    H169116   6.079   4.074   0.905  0.1888 -0.1480 -0.8358
15875TIP3    H269117   6.080   4.164   0.783 -0.1203  1.7118  0.4744
15876TIP3   OH269118   0.145   4.050  15.027 -0.1572 -0.1110 -0.7925
15876TIP3    H169119   0.112   3.961  15.031 -0.4055  0.0163  2.6978
15876TIP3    H269120   0.236   4.044  15.056 -1.0750  1.0093  2.7490
15877TIP3   OH269121   1.757   1.061   2.609 -0.0769  0.2095  0.1071
15877TIP3    H169122   1.778   0.967   2.609 -1.0330 -0.0451 -2.0823
15877TIP3    H269123   1.838   1.103   2.641  1.1383 -1.2178 -0.9594
15878TIP3   OH269124   0.351   5.421   0.455  0.3298  0.8231  0.0489
15878TIP3    H169125   0.363   5.376   0.539 -0.0187  3.0823  1.3864
15878TIP3    H269126   0.258   5.410   0.436  0.3237  0.6459  0.1730
15879TIP3   OH269127   5.571   4.160   0.367  0.6436  0.2629 -0.0899
15879TIP3    H169128   5.504   4.225   0.343  0.4012 -0.0538 -0.2698
15879TIP3    H269129   5.522   4.088   0.406  0.9416  0.3171  0.3998
15880TIP3   OH269130   6.662   4.421   1.980 -0.2262  0.1724  0.0077
15880TIP3    H169131   6.591   4.419   2.044  0.1612 -0.8941  0.4280
15880TIP3    H269132   6.686   4.329   1.969  0.3662  0.4334 -0.9443
15881TIP3   OH269133   3.534   1.444  11.259  0.3144 -0.4333  0.0181
15881TIP3    H169134   3.528   1.436  11.163  0.1409  1.3704 -0.1561
15881TIP3    H269135   3.596   1.376  11.285  1.4190 -0.0698 -1.5378
15882TIP3   OH269136   0.118   6.764   6.276  0.0050 -0.5804 -0.1305
15882TIP3    H169137   0.193   6.708   6.258  0.0851 -0.5198  0.0197
15882TIP3    H269138   0.150   6.831   6.336 -0.4204 -1.1662  0.7750
15883TIP3   OH269139   3.011   2.186  12.937  0.0332  0.2341  0.2804
15883TIP3    H169140   3.006   2.100  12.979 -0.7184 -0.1158 -0.4978
15883TIP3    H269141   2.927   2.227  12.957  0.1153  0.5103  0.0630
15884TIP3   OH269142   1.651   6.079  10.829 -0.0290 -0.4229 -0.0566
15884TIP3    H169143   1.703   6.152  10.796 -1.4053  0.1317 -1.1030
15884TIP3    H269144   1.623   6.033  10.750 -0.0322 -1.4837  0.5508
15885TIP3   OH269145   3.889   6.515   5.687 -0.2019  0.4849 -0.2085
15885TIP3    H169146   3.961   6.457   5.710  0.3151  0.8300 -0.9284
15885TIP3    H269147   3.836   6.520   5.767  1.4981  1.5786  0.9028
15886TIP3   OH269148   2.986   6.018  11.073 -0.1329  0.5366  0.3363
15886TIP3    H169149   2.917   6.083  11.087 -0.8170 -0.1882  0.3585
15886TIP3    H269150   2.941   5.941  11.038  0.1844 -1.0031  3.0606
15887TIP3   OH269151   3.512   0.539   4.059  0.3904 -0.5089 -0.3645
15887TIP3    H169152   3.561   0.570   3.982 -0.3974  0.5293 -0.4792
15887TIP3    H269153   3.438   0.490   4.022 -0.4597  0.6978 -0.3333
15888TIP3   OH269154   1.235   1.413   1.178  0.0460 -0.0874  0.4048
15888TIP3    H169155   1.258   1.501   1.207 -1.7351  0.7520 -0.5240
15888TIP3    H269156   1.273   1.406   1.091 -1.3040  0.4861 -0.2568
15889TIP3   OH269157   0.563   3.181   1.345  0.2125 -0.3138 -0.1312
15889TIP3    H169158   0.638   3.133   1.310 -0.5616 -0.7268 -1.3110
15889TIP3    H269159   0.578   3.271   1.319  0.8055 -0.2132  0.5464
15890TIP3   OH269160   5.403   0.006   5.248  0.0417 -0.3318 -0.3119
15890TIP3    H169161   5.439  -0.074   5.210  0.0120 -1.5985  2.1569
15890TIP3    H269162   5.335   0.033   5.186  0.4469 -1.8952 -1.4917
15891TIP3   OH269163   4.865   3.931  15.127 -0.6689 -0.6527  0.2654
15891TIP3    H169164   4.844   3.974  15.045 -0.5634  0.3001  0.7174
15891TIP3    H269165   4.815   3.980  15.193  0.9066 -0.0117  1.0289
15892TIP3   OH269166   5.477   3.730  16.629  0.3083 -0.3176  0.1426
15892TIP3    H169167   5.391   3.754  16.595  0.4779 -2.2030 -1.8864
15892TIP3    H269168   5.464   3.716  16.723 -0.8588  2.3460  0.4685
15893TIP3   OH269169   0.783   4.294  14.625 -0.3361 -0.2447 -0.2908
15893TIP3    H169170   0.746   4.262  14.707  0.1083 -0.2728 -0.0963
15893TIP3    H269171   0.845   4.225  14.597 -1.6755 -1.0104 -1.5123
15894TIP3   OH269172   0.025   1.373  13.787 -0.6135 -0.8189 -0.3115
15894TIP3    H169173  -0.020   1.374  13.702 -0.1581  0.3346 -0.5525
15894TIP3    H269174   0.117   1.355  13.765 -0.5229 -0.6899 -0.0416
15895TIP3   OH269175   6.119   6.640   3.404 -0.1968 -0.2144 -0.2378
15895TIP3    H169176   6.164   6.721   3.427 -0.2945 -0.0364 -0.6711
15895TIP3    H269177   6.083   6.609   3.487 -0.9974  0.7008 -0.2289
15896TIP3   OH269178   5.713   3.914  14.151  0.2241 -0.0300  0.2414
15896TIP3    H169179   5.737   3.859  14.225 -0.2374 -0.4483  0.0868
15896TIP3    H269180   5.652   3.979  14.187  1.7164  1.1781  0.6826
15897TIP3   OH269181   5.658   3.752  13.907  0.9280  0.1991  0.1992
15897TIP3    H169182   5.684   3.821  13.968  0.1178  1.4936 -0.8622
15897TIP3    H269183   5.574   3.720  13.940  1.0478  0.0843  0.3952
15898TIP3   OH269184   2.061   4.808  10.472  0.2538  0.8983  0.1155
15898TIP3    H169185   2.013   4.766  10.542 -0.5173 -0.1299 -0.9982
15898TIP3    H269186   2.153   4.793  10.493  0.0384 -2.5770 -0.8793
15899TIP3   OH269187   0.145   0.946  16.641  0.2792  0.0047 -0.2482
15899TIP3    H169188   0.102   0.861  16.638 -0.8394  0.2540  3.5558
15899TIP3    H269189   0.076   1.009  16.619  0.3061  0.0888 -0.0940
15900TIP3   OH269190   0.809   2.317  16.609 -0.1974 -0.7046 -0.0245
15900TIP3    H169191   0.796   2.322  16.704 -0.7457  0.5666 -0.1526
15900TIP3    H269192   0.844   2.403  16.584  0.6961 -1.2915 -0.8748
15901TIP3   OH269193   5.137   4.302  11.832  0.2774  0.0581 -0.5162
15901TIP3    H169194   5.189   4.335  11.759  1.3880 -1.9764 -0.7361
15901TIP3    H269195   5.151   4.364  11.903  0.6924  1.0674 -1.4604
15902TIP3   OH269196   1.035   3.735  11.624 -0.3480 -0.4953  0.2077
15902TIP3    H169197   1.066   3.804  11.683 -0.0991 -0.5190  0.1057
15902TIP3    H269198   1.114   3.702  11.582 -0.4844 -0.7323  0.1345
15903TIP3   OH269199   4.697   5.275   0.625  0.3014 -0.1655 -0.3250
15903TIP3    H169200   4.694   5.348   0.688 -0.3574 -0.2260 -0.2760
15903TIP3    H269201   4.781   5.233   0.641 -0.6930 -1.4485  1.9773
15904TIP3   OH269202   1.526   2.940   0.137  0.2829 -0.4186 -0.4588
15904TIP3    H169203   1.540   3.027   0.175 -1.2123 -0.6109  0.6048
15904TIP3    H269204   1.526   2.956   0.042  1.2281  0.5239 -0.3279
15905TIP3   OH269205   1.918   1.045  16.066  0.0456 -0.3579  0.3922
15905TIP3    H169206   1.965   1.084  15.992  1.3720 -0.2639  1.2504
15905TIP3    H269207   1.878   0.966  16.029  1.9311 -1.1427 -0.1263
15906TIP3   OH269208   0.541   0.683   3.004  0.1209 -0.4947  0.1257
15906TIP3    H169209   0.544   0.772   2.969 -2.1994 -0.8075 -1.0411
15906TIP3    H269210   0.536   0.695   3.099 -0.6810  0.6459 -0.0380
15907TIP3   OH269211   1.857   2.853  13.894  0.5669  0.3351  0.3138
15907TIP3    H169212   1.941   2.836  13.937  0.8826  0.1959 -0.3429
15907TIP3    H269213   1.803   2.893  13.962  1.0223  0.0323  0.8606
15908TIP3   OH269214   1.943   2.650   3.938 -0.2240  0.1267 -0.2075
15908TIP3    H169215   1.937   2.607   4.023  0.1830 -0.0096 -0.2432
15908TIP3    H269216   2.031   2.689   3.937  0.2746 -0.9464 -1.0627
15909TIP3   OH269217   4.734   2.367   0.347 -0.3111  0.3181  0.2278
15909TIP3    H169218   4.769   2.312   0.277 -3.4426  0.2806 -1.5126
15909TIP3    H269219   4.703   2.446   0.302  1.7666  2.5039  2.3142
15910TIP3   OH269220   3.062   0.003   4.608 -0.1024  0.1207 -0.0212
15910TIP3    H169221   3.156   0.001   4.588 -0.5954  0.9182 -2.9397
15910TIP3    H269222   3.044  -0.081   4.649  1.4806 -1.0938 -1.6631
15911TIP3   OH269223   1.754   0.148   4.612  0.2856  0.3627 -0.8064
15911TIP3    H169224   1.828   0.088   4.624 -0.0555  0.2120  0.7911
15911TIP3    H269225   1.765   0.213   4.681 -0.8955  0.5218 -0.7531
15912TIP3   OH269226   4.451   1.945  16.315  0.0630  0.0227  0.0856
15912TIP3    H169227   4.480   1.856  16.337 -1.3504 -0.6708 -0.7406
15912TIP3    H269228   4.429   1.941  16.222  1.1371  1.5874 -0.2825
15913TIP3   OH269229   6.249   5.921  14.986 -0.5147  0.1657 -0.8506
15913TIP3    H169230   6.316   5.989  14.977 -0.8175  0.7829  1.1347
15913TIP3    H269231   6.299   5.839  14.980 -0.0352  0.5292 -2.4412
15914TIP3   OH269232   1.183   2.604  15.496  0.4451  0.3793  0.5219
15914TIP3    H169233   1.141   2.634  15.415  1.6894 -0.1588 -0.3621
15914TIP3    H269234   1.142   2.655  15.565  0.1835  1.7183 -0.5858
15915TIP3   OH269235   1.056   1.639  12.778  0.7486  0.6143 -0.3025
15915TIP3    H169236   0.979   1.627  12.722  1.1196  0.3095 -0.7592
15915TIP3    H269237   1.122   1.678  12.720  1.7685 -1.4349 -0.6345
15916TIP3   OH269238   0.304   6.809   1.672  0.2778 -0.7146  0.3156
15916TIP3    H169239   0.318   6.721   1.639  0.7669 -0.9932  1.2220
15916TIP3    H269240   0.354   6.812   1.754  1.9534  1.0365 -0.6884
15917TIP3   OH269241   5.613   5.507   6.020 -0.5097  0.5708  0.0291
15917TIP3    H169242   5.579   5.424   6.053 -0.4939  0.3875 -0.4161
15917TIP3    H269243   5.557   5.574   6.061 -0.2558  0.3701  0.7193
15918TIP3   OH269244   3.286   2.744  17.171  0.2814  0.6370  0.2849
15918TIP3    H169245   3.364   2.702  17.208 -0.0143  0.5061  0.7709
15918TIP3    H269246   3.254   2.681  17.106  0.8909  0.9366 -0.3208
15919TIP3   OH269247   6.122   0.699  11.401 -0.1781 -0.8085 -0.7157
15919TIP3    H169248   6.051   0.643  11.370 -1.3143  1.1538 -1.9067
15919TIP3    H269249   6.143   0.665  11.487 -2.7697 -1.3597 -0.1958
15920TIP3   OH269250   1.654   4.658   6.033  0.6217 -0.2917 -0.6264
15920TIP3    H169251   1.622   4.652   6.123  0.5673  0.7572 -0.5579
15920TIP3    H269252   1.736   4.707   6.040  0.2616  0.4227 -1.2057
15921TIP3   OH269253   5.018   2.560  11.640  0.4198 -0.8800  0.5462
15921TIP3    H169254   4.955   2.578  11.569  0.9304 -1.1195  0.0245
15921TIP3    H269255   5.068   2.485  11.609  0.4401 -1.1878  1.3108
15922TIP3   OH269256   3.604   1.995   6.796 -0.0791 -0.1369  0.6799
15922TIP3    H169257   3.663   2.046   6.741  1.8701 -0.3734  2.4220
15922TIP3    H269258   3.534   2.055   6.819 -0.6258  0.1326 -1.5046
15923TIP3   OH269259   6.776   5.673   1.106 -0.4295 -0.5219 -0.3271
15923TIP3    H169260   6.814   5.593   1.142  1.3661  0.9315  1.1937
15923TIP3    H269261   6.851   5.730   1.088 -1.7107  1.9794  1.5592
15924TIP3   OH269262   1.319   4.498  17.164 -0.1156 -0.1049  0.0031
15924TIP3    H169263   1.341   4.524  17.074  0.2004 -1.4254 -0.3128
15924TIP3    H269264   1.228   4.529  17.175 -1.2611 -2.4760 -1.8452
15925TIP3   OH269265   2.612   4.758   5.499 -0.2523 -0.5405  0.1893
15925TIP3    H169266   2.684   4.821   5.494  0.5540 -1.4762 -0.2832
15925TIP3    H269267   2.614   4.713   5.415 -1.7282 -0.2516 -0.0343
15926TIP3   OH269268   0.196   4.034   2.169  0.1644  0.3471 -0.1024
15926TIP3    H169269   0.240   4.017   2.252 -0.9259  1.0649  0.6550
15926TIP3    H269270   0.165   3.948   2.140  0.5358  0.0948  0.2390
15927TIP3   OH269271   6.826   1.812   0.835 -0.4251  0.6047  0.3595
15927TIP3    H169272   6.801   1.780   0.748 -1.9554 -2.3616  1.7706
15927TIP3    H269273   6.754   1.869   0.861 -0.2161  1.0754 -0.0681
15928TIP3   OH269274   6.602   4.480  16.959 -0.1316 -0.1528  0.6237
15928TIP3    H169275   6.673   4.490  16.896 -0.4448 -1.3511  0.0613
15928TIP3    H269276   6.533   4.434  16.912 -0.1433 -1.6268  1.9997
15929TIP3   OH269277   6.686   3.573   2.409  0.1792  0.0075  0.3422
15929TIP3    H169278   6.595   3.590   2.384  0.4390  1.1880  0.1699
15929TIP3    H269279   6.681   3.552   2.503 -0.2989 -0.3022  0.2565
15930TIP3   OH269280   4.657   6.660   1.676  0.3026 -0.1212  0.5244
15930TIP3    H169281   4.604   6.734   1.648  1.4284  0.8938  0.9849
15930TIP3    H269282   4.746   6.684   1.650  0.6920 -1.3163  0.6928
15931TIP3   OH269283   4.653   5.725   3.112  1.0733 -0.0025 -0.1649
15931TIP3    H169284   4.664   5.687   3.200 -0.0842 -0.9146 -0.3907
15931TIP3    H269285   4.655   5.819   3.127  2.2268 -0.1326  0.6566
15932TIP3   OH269286   1.702   4.711  15.080 -0.1196  0.1989  0.2842
15932TIP3    H169287   1.622   4.754  15.109  1.5343  2.7768  1.3717
15932TIP3    H269288   1.747   4.687  15.161  1.5137  1.4941 -0.1757
15933TIP3   OH269289   2.609   5.217   6.366  0.4972  0.4642  0.0465
15933TIP3    H169290   2.650   5.154   6.425 -0.4260 -0.4308 -0.2312
15933TIP3    H269291   2.516   5.193   6.366  0.6315 -0.4096 -2.7388
15934TIP3   OH269292   2.231   0.981  12.419  0.3263 -0.1727  0.6092
15934TIP3    H169293   2.174   0.960  12.493 -0.4902 -1.3448 -0.2949
15934TIP3    H269294   2.231   0.900  12.366 -4.7685  2.3173 -4.3442
15935TIP3   OH269295   4.712   6.537  11.396  0.6535  0.2192 -0.2554
15935TIP3    H169296   4.679   6.567  11.312 -1.4883 -2.4507 -0.5248
15935TIP3    H269297   4.639   6.551  11.457  0.3943 -2.0421  0.0605
15936TIP3   OH269298   6.752   5.212  11.741  0.5711  0.4836  0.3411
15936TIP3    H169299   6.737   5.117  11.744 -1.3468  0.7133 -0.6365
15936TIP3    H269300   6.758   5.232  11.647 -0.5497  1.5095  0.4597
15937TIP3   OH269301   3.377   0.398  12.006 -0.5558  0.0039  0.3652
15937TIP3    H169302   3.322   0.350  11.944  0.8727 -0.1527 -0.8292
15937TIP3    H269303   3.428   0.330  12.051  0.8454  0.3071 -0.7150
15938TIP3   OH269304   4.275   4.447   4.847 -0.1280 -0.0193  0.0483
15938TIP3    H169305   4.195   4.397   4.833 -0.2526  0.1845  0.0236
15938TIP3    H269306   4.277   4.510   4.775 -0.7538  1.0160  0.9084
15939TIP3   OH269307   0.084   4.694  17.054 -0.1982  0.4037  0.2573
15939TIP3    H169308   0.141   4.753  17.006 -1.4616  0.8634 -0.7188
15939TIP3    H269309   0.107   4.607  17.022  3.6859 -0.1543  3.7108
15940TIP3   OH269310   6.744   0.377  14.256 -0.4748 -0.4776 -0.1239
15940TIP3    H169311   6.813   0.442  14.268 -1.0894  0.2003 -0.2482
15940TIP3    H269312   6.719   0.385  14.164 -0.8939 -0.5510 -0.0198
15941TIP3   OH269313   0.642   3.366  13.421 -0.5849  0.5454 -0.0840
15941TIP3    H169314   0.708   3.432  13.442  0.0449 -0.3478  0.8643
15941TIP3    H269315   0.560   3.415  13.417 -0.4531  1.1539  2.5648
15942TIP3   OH269316   5.960   5.423   1.433  0.0420  0.0766 -0.1998
15942TIP3    H169317   5.931   5.411   1.342 -2.1611  1.2130  0.2898
15942TIP3    H269318   5.889   5.470   1.475  1.0004 -0.4404  2.1645
15943TIP3   OH269319   2.628   2.757   1.361  0.3161 -0.5603 -0.1913
15943TIP3    H169320   2.709   2.712   1.340  0.1142 -0.9927 -0.0542
15943TIP3    H269321   2.655   2.846   1.384  0.7909 -0.8242  0.2849
15944TIP3   OH269322   2.169   4.607   4.930  0.4659  0.6676  0.6031
15944TIP3    H169323   2.186   4.620   5.023  0.0092 -0.8318  0.9163
15944TIP3    H269324   2.174   4.513   4.917  1.3749  0.8918 -1.0753
15945TIP3   OH269325   0.268   6.317   3.746  0.0972  0.3001  0.0808
15945TIP3    H169326   0.305   6.253   3.807 -0.3374  0.4381  0.4968
15945TIP3    H269327   0.339   6.381   3.734  0.4687 -0.1571 -0.1987
15946TIP3   OH269328   6.277   0.034  11.450  0.0126 -0.5469 -0.1813
15946TIP3    H169329   6.339  -0.025  11.407  1.4067 -0.0182  1.0137
15946TIP3    H269330   6.221  -0.023  11.502  1.5784 -0.8584  1.2512
15947TIP3   OH269331   5.361   1.343   2.910  0.3148  0.2685 -0.0663
15947TIP3    H169332   5.374   1.389   2.827 -0.2941 -1.8491 -1.4297
15947TIP3    H269333   5.270   1.363   2.935  0.2290  0.2536 -0.3626
15948TIP3   OH269334   4.214   0.180   0.568  0.3664 -0.0662 -0.1911
15948TIP3    H169335   4.281   0.247   0.577 -0.3415  0.5793  0.3663
15948TIP3    H269336   4.139   0.214   0.617  0.2236 -1.5750  0.6747
15949TIP3   OH269337   3.267   0.941   5.852 -0.5103 -0.3249 -0.4029
15949TIP3    H169338   3.231   0.852   5.842  1.9549 -1.6405  1.3114
15949TIP3    H269339   3.308   0.960   5.767 -0.6105 -1.0551 -0.6225
15950TIP3   OH269340   5.810   5.478   0.442  0.3851 -0.4478 -0.0132
15950TIP3    H169341   5.792   5.395   0.487  0.3044 -0.7214 -0.5380
15950TIP3    H269342   5.902   5.472   0.415 -0.0565 -1.1075 -1.5270
15951TIP3   OH269343   1.040   4.489   1.901 -0.0742  0.4807 -0.2600
15951TIP3    H169344   1.090   4.462   1.824 -0.1685 -1.6697  0.3700
15951TIP3    H269345   1.091   4.458   1.975 -0.4115  1.7644  0.5404
15952TIP3   OH269346   4.110   3.535   1.216 -0.5322 -0.2079 -0.1154
15952TIP3    H169347   4.080   3.590   1.288  0.3807  0.3079 -0.1182
15952TIP3    H269348   4.149   3.597   1.154  0.6748 -0.8809 -0.0392
15953TIP3   OH269349   2.502   2.294  15.884  0.1982 -0.1955 -0.0487
15953TIP3    H169350   2.530   2.239  15.811 -1.1205 -0.8042 -0.1230
15953TIP3    H269351   2.536   2.381  15.862 -1.7143  0.0780 -2.3656
15954TIP3   OH269352   4.287   1.465  13.130  0.0357 -0.1436 -0.1530
15954TIP3    H169353   4.334   1.429  13.205  0.0498 -3.2707 -1.5075
15954TIP3    H269354   4.217   1.518  13.168 -1.2926 -3.3137  2.2853
15955TIP3   OH269355   5.483   0.762   1.758  0.3596 -0.3607 -0.0545
15955TIP3    H169356   5.406   0.749   1.703  1.0834  1.1802 -1.5268
15955TIP3    H269357   5.449   0.758   1.848 -1.0765 -1.6152 -0.6086
15956TIP3   OH269358   4.554   5.489  16.315 -0.0243 -0.4636 -0.1288
15956TIP3    H169359   4.541   5.544  16.237 -2.4143  0.3486  0.7298
15956TIP3    H269360   4.572   5.551  16.385  2.4348 -1.2143 -0.0207
15957TIP3   OH269361   3.407   0.915   0.687 -0.1163 -0.4335  0.5047
15957TIP3    H169362   3.431   0.873   0.604  0.9911 -0.5268  0.8602
15957TIP3    H269363   3.368   0.998   0.661  0.4065 -0.3702 -0.1154
15958TIP3   OH269364   0.747   3.079   6.439 -0.6836 -0.2687 -0.5992
15958TIP3    H169365   0.682   3.013   6.462  0.5976 -1.0145  0.9909
15958TIP3    H269366   0.724   3.154   6.494 -0.3817 -0.4274 -0.2560
15959TIP3   OH269367   5.580   2.554  13.711  0.0496  0.5834  0.4384
15959TIP3    H169368   5.515   2.562  13.641 -1.2733  1.7454  1.7260
15959TIP3    H269369   5.572   2.463  13.741 -1.4623  0.8570  0.9731
15960TIP3   OH269370   6.557   5.013  15.915  0.0301  1.0810  0.4246
15960TIP3    H169371   6.472   4.976  15.894  0.5392 -0.7213  1.3559
15960TIP3    H269372   6.612   4.989  15.840 -0.3459  2.6327 -0.3905
15961TIP3   OH269373   4.898   6.136   0.869 -0.4205 -0.9520  0.6632
15961TIP3    H169374   4.859   6.076   0.933 -0.4853 -1.9344 -0.2586
15961TIP3    H269375   4.828   6.152   0.806 -1.4001  2.5044  2.3899
15962TIP3   OH269376   1.998   4.242  11.179  0.1438 -0.0171  0.4412
15962TIP3    H169377   2.054   4.175  11.141  3.0526  1.2675  2.1460
15962TIP3    H269378   1.943   4.272  11.106  1.1196 -1.8760 -1.1343
15963TIP3   OH269379   0.057   4.838  11.592  0.2044 -0.2557 -0.4954
15963TIP3    H169380  -0.025   4.794  11.575  0.1734 -0.3487 -0.1114
15963TIP3    H269381   0.086   4.869  11.506 -0.2358 -0.2091 -0.6298
15964TIP3   OH269382   1.165   2.733   2.869  0.1251  0.6828  0.5657
15964TIP3    H169383   1.105   2.665   2.839  1.1531  0.1207 -0.2748
15964TIP3    H269384   1.220   2.690   2.935 -0.0004  1.0317  0.9038
15965TIP3   OH269385   1.721   0.800  15.525  0.4450  0.5692  0.0927
15965TIP3    H169386   1.643   0.851  15.502 -1.5332 -0.7242  3.1880
15965TIP3    H269387   1.762   0.849  15.595  0.7937 -0.1406  0.3922
15966TIP3   OH269388   4.634   6.179  12.475 -0.4571 -0.2672 -0.1787
15966TIP3    H169389   4.708   6.121  12.489 -0.3120 -0.3909 -1.3745
15966TIP3    H269390   4.637   6.202  12.382 -1.2832  0.5960 -0.0225
15967TIP3   OH269391   3.828   2.276   2.822  0.5151  0.3033 -0.0853
15967TIP3    H169392   3.779   2.259   2.742  0.4814  1.4785 -0.3307
15967TIP3    H269393   3.907   2.321   2.793  0.8894  0.0262  0.4812
15968TIP3   OH269394   2.966   1.969  16.629  0.2846 -0.3420  0.1218
15968TIP3    H169395   3.054   1.979  16.593 -0.7215  1.5842 -2.1119
15968TIP3    H269396   2.972   1.893  16.687  3.4810 -0.0116  0.4115
15969TIP3   OH269397   6.118   1.309   5.338  0.2851  0.2474 -0.3613
15969TIP3    H169398   6.144   1.338   5.250  0.6130  1.4578  0.1187
15969TIP3    H269399   6.042   1.363   5.360 -0.9085 -1.2690 -0.5817
15970TIP3   OH269400   5.524   5.784   0.072 -0.4686  0.0604 -0.7669
15970TIP3    H169401   5.578   5.845   0.122 -0.1641 -0.9158  0.1283
15970TIP3    H269402   5.553   5.795  -0.019  0.2385  0.5577 -0.4916
15971TIP3   OH269403   6.237   4.665   4.111 -0.1480 -0.1016  0.0077
15971TIP3    H169404   6.174   4.734   4.092  0.2331  0.2045 -0.1746
15971TIP3    H269405   6.301   4.705   4.170 -0.0617 -0.3716  0.1014
15972TIP3   OH269406   0.035   3.434  17.114 -0.6315 -0.1100  0.5045
15972TIP3    H169407  -0.059   3.447  17.097 -0.4700 -0.0005 -0.3346
15972TIP3    H269408   0.065   3.518  17.148 -0.4653  0.4484 -0.9611
15973TIP3   OH269409   0.292   0.359  16.376 -0.1789  0.3640 -0.2336
15973TIP3    H169410   0.292   0.338  16.470 -0.2627 -1.1990 -0.5602
15973TIP3    H269411   0.369   0.315  16.341 -1.0773 -0.5063 -1.1833
15974TIP3   OH269412   4.788   4.869  14.456  0.2184  0.4399  0.0444
15974TIP3    H169413   4.851   4.919  14.509 -0.5228  1.5462 -0.0835
15974TIP3    H269414   4.703   4.898  14.486 -0.2497 -0.8463  0.0215
15975TIP3   OH269415   4.638   5.652   5.096  0.1299  0.3961 -0.0797
15975TIP3    H169416   4.714   5.703   5.127 -0.0716  1.4422 -1.2257
15975TIP3    H269417   4.677   5.580   5.047  0.3990  0.7292 -0.3649
15976TIP3   OH269418   0.253   0.659   2.212  0.1044 -0.1222 -0.3765
15976TIP3    H169419   0.255   0.570   2.248 -2.7380  0.1615  0.7982
15976TIP3    H269420   0.253   0.716   2.288  0.1982  0.8077 -1.0534
15977TIP3   OH269421   1.016   0.918   1.937  0.4080  0.3344  0.0211
15977TIP3    H169422   1.005   0.840   1.883 -0.4319  0.2011  0.3637
15977TIP3    H269423   0.927   0.939   1.966  0.7366  0.9090  0.6330
15978TIP3   OH269424   4.012   0.549  12.301  0.1908  0.5590 -0.2092
15978TIP3    H169425   4.101   0.582  12.312 -0.1534  0.9485  1.6949
15978TIP3    H269426   3.966   0.618  12.252  0.1052  1.8959  1.6639
15979TIP3   OH269427   3.492   2.909  15.657  0.1982 -0.2219 -0.0491
15979TIP3    H169428   3.559   2.844  15.673  1.3970  0.7396 -0.9808
15979TIP3    H269429   3.439   2.873  15.585  1.7279  0.4032 -1.5516
15980TIP3   OH269430   6.369   2.820  15.295 -0.6352 -0.2697 -0.4327
15980TIP3    H169431   6.291   2.766  15.284 -0.1325 -0.9496 -0.7213
15980TIP3    H269432   6.438   2.757  15.316 -0.4137  0.4390  1.0922
15981TIP3   OH269433   3.074   1.287   6.378 -0.1563  0.3092  0.1957
15981TIP3    H169434   3.155   1.260   6.334  0.3168 -0.6498  1.5759
15981TIP3    H269435   3.012   1.303   6.307  1.1663  0.8027 -0.8820
15982TIP3   OH269436   5.828   3.187   0.853 -0.4639 -0.3065  0.2630
15982TIP3    H169437   5.887   3.202   0.927  0.2648 -0.5874 -0.2494
15982TIP3    H269438   5.860   3.107   0.812 -0.3889  0.2360 -0.7894
15983TIP3   OH269439   4.019   5.784   2.864 -0.2273 -0.5172 -0.5247
15983TIP3    H169440   4.100   5.734   2.850 -0.3198 -0.3069 -1.9978
15983TIP3    H269441   3.949   5.723   2.842 -0.3425  0.2144 -2.3510
15984TIP3   OH269442   5.735   6.163   1.820 -0.0833  0.5712  0.4067
15984TIP3    H169443   5.808   6.210   1.782 -0.4777 -1.0394 -2.6584
15984TIP3    H269444   5.771   6.077   1.843 -1.2330 -1.1200 -3.2787
15985TIP3   OH269445   2.514   3.379   1.988  0.0019 -0.2459 -0.1641
15985TIP3    H169446   2.573   3.419   1.924  1.0530 -1.1025  0.2511
15985TIP3    H269447   2.498   3.291   1.955  0.2136 -0.5515  0.5350
15986TIP3   OH269448   1.055   1.515  15.289  0.5319  0.5418  0.7861
15986TIP3    H169449   1.138   1.497  15.332 -0.2908 -0.4567  2.0170
15986TIP3    H269450   1.002   1.557  15.356 -0.7098 -0.8571  0.7131
15987TIP3   OH269451   5.247   1.501  14.857  0.8299  0.4866 -0.4720
15987TIP3    H169452   5.249   1.567  14.787  1.5220  1.2335  0.2270
15987TIP3    H269453   5.301   1.538  14.926 -0.9570  0.4130  1.0441
15988TIP3   OH269454   2.711   0.076  11.380  0.3207  0.4598 -0.5513
15988TIP3    H169455   2.758   0.072  11.463  1.3442 -0.4850 -1.1489
15988TIP3    H269456   2.619   0.077  11.405  0.5658  3.9572  0.7140
15989TIP3   OH269457   1.622   5.697   4.840  0.3678 -0.0997 -0.7026
15989TIP3    H169458   1.586   5.778   4.802  0.4137  0.8976  1.2903
15989TIP3    H269459   1.625   5.713   4.934 -0.7378 -2.8858 -0.0987
15990TIP3   OH269460   2.892   0.650  12.603 -0.5710  0.3516 -0.2045
15990TIP3    H169461   2.972   0.599  12.616 -0.8077 -0.3945 -1.5136
15990TIP3    H269462   2.922   0.741  12.598  0.2578  0.0356 -1.1740
15991TIP3   OH269463   1.476   4.388   1.067 -0.2951 -0.4258  0.1005
15991TIP3    H169464   1.402   4.429   1.021 -0.2613  0.6186  0.9396
15991TIP3    H269465   1.509   4.323   1.005 -0.5112  0.6554 -1.1943
15992TIP3   OH269466   3.420   4.144  13.648 -0.1897  0.2677 -0.3056
15992TIP3    H169467   3.381   4.161  13.733 -0.5551 -0.8593 -0.2366
15992TIP3    H269468   3.436   4.050  13.646  2.2402  0.6002 -0.4547
15993TIP3   OH269469   3.268   2.559   6.622 -0.1275 -0.3411  0.3427
15993TIP3    H169470   3.290   2.584   6.712  1.0415  0.4204 -0.1327
15993TIP3    H269471   3.335   2.495   6.597  1.4619  1.6988 -0.9808
15994TIP3   OH269472   5.998   1.745   1.419  0.4423 -0.2788 -0.0462
15994TIP3    H169473   5.968   1.722   1.507 -0.1735 -2.2433 -0.7346
15994TIP3    H269474   5.983   1.840   1.413  0.1021 -0.1813  1.7942
15995TIP3   OH269475   1.985   4.134  10.810 -0.0091  0.0181  0.0685
15995TIP3    H169476   2.024   4.068  10.753 -1.1328 -0.7126  0.1410
15995TIP3    H269477   2.000   4.217  10.764 -0.9865 -0.5720 -1.3519
15996TIP3   OH269478   0.240   1.788   0.079 -0.0159  1.0109  0.6392
15996TIP3    H169479   0.284   1.820  -0.000  2.2639 -0.7425  1.0827
15996TIP3    H269480   0.169   1.733   0.046 -1.7938  3.5600 -0.1038
15997TIP3   OH269481   4.386   6.487  13.289  0.2848  0.4642 -0.5016
15997TIP3    H169482   4.440   6.466  13.365 -1.3950 -0.9329  0.3812
15997TIP3    H269483   4.429   6.443  13.216  0.8293  0.1256  0.0117
15998TIP3   OH269484   3.147   0.692   6.634 -0.0755 -0.1495 -0.1413
15998TIP3    H169485   3.173   0.657   6.548  0.4071  0.8097 -0.4076
15998TIP3    H269486   3.062   0.733   6.618 -0.6484 -1.1856  0.1744
15999TIP3   OH269487   1.136   2.552  16.907  0.5882 -0.0006 -0.5343
15999TIP3    H169488   1.221   2.596  16.913  0.4165  0.6147 -2.1671
15999TIP3    H269489   1.109   2.563  16.816 -1.6541  0.5702  0.1221
16000TIP3   OH269490   6.019   4.762   1.006  0.1907 -0.1991  0.3811
16000TIP3    H169491   6.090   4.722   1.056 -0.2711 -1.6407 -0.0634
16000TIP3    H269492   6.014   4.710   0.926 -0.8395  0.3777  0.0528
16001TIP3   OH269493   0.249   1.604  10.966  0.0983  0.4191  0.7283
16001TIP3    H169494   0.331   1.612  10.917 -1.0899 -1.0450 -1.7025
16001TIP3    H269495   0.187   1.662  10.920 -1.2223 -1.4605  0.0172
16002TIP3   OH269496   2.797   3.050   4.527 -0.0376  0.1732 -0.1788
16002TIP3    H169497   2.871   3.085   4.477  0.3917  0.3761  0.5860
16002TIP3    H269498   2.775   3.119   4.589 -0.6229 -0.0439 -0.1375
16003TIP3   OH269499   5.877   6.256   2.917  0.0641  0.1090 -0.1600
16003TIP3    H169500   5.942   6.187   2.928 -0.6737 -0.5260  0.4048
16003TIP3    H269501   5.851   6.250   2.825 -0.2797 -0.6592 -0.0269
16004TIP3   OH269502   5.250   2.582   3.964 -0.0210  0.0433 -0.3577
16004TIP3    H169503   5.180   2.600   4.027 -1.2843  0.5255 -1.8403
16004TIP3    H269504   5.288   2.668   3.945  0.6852 -0.1586  0.0698
16005TIP3   OH269505   4.174   2.395  14.306 -0.1109 -0.1149  0.7541
16005TIP3    H169506   4.180   2.300  14.293 -0.6203 -0.0415 -0.1031
16005TIP3    H269507   4.195   2.432  14.220 -0.3887  0.5364  0.9576
16006TIP3   OH269508   6.448   4.645   2.161 -0.4102 -0.0541  0.2160
16006TIP3    H169509   6.415   4.610   2.078  0.1613 -0.0974  0.0028
16006TIP3    H269510   6.489   4.728   2.137  0.4508 -0.4402  0.3269
16007TIP3   OH269511   0.383   1.313  10.882 -0.0871  0.4125  0.5708
16007TIP3    H169512   0.476   1.292  10.887  0.5565  1.8412 -2.5425
16007TIP3    H269513   0.357   1.285  10.794 -1.5181  3.5321 -0.1726
16008TIP3   OH269514   1.367   2.197   2.452  0.1414  0.3788  0.7887
16008TIP3    H169515   1.444   2.163   2.497 -0.7206  0.0622  2.0843
16008TIP3    H269516   1.400   2.229   2.368  1.4542 -0.9722  0.7569
16009TIP3   OH269517   3.211   3.766  15.234  0.5856  0.3764 -0.2521
16009TIP3    H169518   3.158   3.691  15.207  0.9311  0.5783 -1.5455
16009TIP3    H269519   3.301   3.733  15.236  0.4422 -0.0977  2.4043
16010TIP3   OH269520   4.971   5.921  15.134 -0.0886  0.2295 -0.1331
16010TIP3    H169521   4.904   5.876  15.081 -0.5192 -0.0958  0.6628
16010TIP3    H269522   4.968   5.875  15.218  0.5506  0.7685  0.1842
16011TIP3   OH269523   4.833   6.732   5.796  0.5482 -0.3621 -0.5002
16011TIP3    H169524   4.817   6.638   5.793  0.7626 -0.3851 -1.1186
16011TIP3    H269525   4.928   6.740   5.804  0.5383 -0.1995 -0.5447
16012TIP3   OH269526   6.370   3.739   2.984 -0.3523 -0.5109  0.2971
16012TIP3    H169527   6.304   3.680   2.948 -1.0822 -0.3911  1.3833
16012TIP3    H269528   6.448   3.684   2.997 -0.4461 -0.8058 -0.3929
16013TIP3   OH269529   6.296   3.020  16.220 -0.4836 -0.4568  0.2706
16013TIP3    H169530   6.244   2.989  16.145  0.7606 -0.1845 -0.7305
16013TIP3    H269531   6.266   2.965  16.293 -3.1254  0.5681  0.0859
16014TIP3   OH269532   1.464   1.265   2.290 -0.1785  0.2662 -0.0104
16014TIP3    H169533   1.455   1.175   2.321 -2.3451 -0.1833 -1.6877
16014TIP3    H269534   1.549   1.267   2.245 -0.6645 -1.3594 -1.0994
16015TIP3   OH269535   4.891   2.560   3.846  0.3607 -0.0098  0.4804
16015TIP3    H169536   4.940   2.501   3.903  0.7109  0.8952  1.1246
16015TIP3    H269537   4.801   2.530   3.852  0.5281 -0.4505  0.8363
16016TIP3   OH269538   3.812   5.337   3.016 -0.0527 -0.0558 -0.1843
16016TIP3    H169539   3.769   5.278   3.079 -1.7592  1.0238 -0.2893
16016TIP3    H269540   3.876   5.385   3.068  1.3712 -1.9352 -0.0901
16017TIP3   OH269541   2.144   1.659   5.822  0.5015  0.0264  0.4762
16017TIP3    H169542   2.116   1.694   5.737  1.7051 -0.3514 -0.0973
16017TIP3    H269543   2.175   1.735   5.870  2.8134 -0.1224 -0.6507
16018TIP3   OH269544   2.348   1.426   5.666  0.1944  0.0461  0.1927
16018TIP3    H169545   2.404   1.442   5.590  1.8034  0.2345  1.3450
16018TIP3    H269546   2.393   1.469   5.738 -1.2729 -0.1389  1.2703
16019TIP3   OH269547   4.837   6.014   1.105 -0.2362  0.1585  0.2945
16019TIP3    H169548   4.873   5.931   1.135  0.0986  0.1989  0.0255
16019TIP3    H269549   4.882   6.080   1.158  1.1965  0.3026 -1.0186
16020TIP3   OH269550   3.161   3.322   2.438  0.4099  0.3168  1.0259
16020TIP3    H169551   3.067   3.306   2.445 -0.0672  2.0380 -0.5694
16020TIP3    H269552   3.184   3.368   2.519 -0.3468  0.8618  0.9341
16021TIP3   OH269553   1.845   4.307  11.809  0.2711  0.0155  0.0045
16021TIP3    H169554   1.816   4.245  11.877  0.4831 -0.7070 -0.5446
16021TIP3    H269555   1.771   4.312  11.748  1.4042 -2.3100 -1.7330
16022TIP3   OH269556   4.985   5.123  11.010 -0.3776 -0.2872 -0.3402
16022TIP3    H169557   4.912   5.099  10.954 -2.4961  4.0601  0.1246
16022TIP3    H269558   4.957   5.098  11.098 -0.7346  0.1338 -0.3297
16023TIP3   OH269559   0.466   5.244  15.650 -0.1790 -0.2832  0.7385
16023TIP3    H169560   0.537   5.181  15.647  1.1071  1.1287 -0.4099
16023TIP3    H269561   0.510   5.329  15.657 -1.7856  0.5843  0.8348
16024TIP3   OH269562   6.408   2.889  15.976  0.0412 -0.2140  0.0940
16024TIP3    H169563   6.491   2.936  15.978 -0.2652  0.3688 -0.2930
16024TIP3    H269564   6.424   2.808  16.023  0.4523  0.5057  1.2378
16025TIP3   OH269565   1.761   5.032  11.157  0.1937  0.3138  0.2631
16025TIP3    H169566   1.792   4.965  11.218  4.0589  0.9148 -0.7884
16025TIP3    H269567   1.758   4.988  11.072 -1.1321  0.5159  0.1884
16026TIP3   OH269568   6.020   6.378  16.555 -0.0089  0.4502 -0.3259
16026TIP3    H169569   6.050   6.443  16.619 -1.0809  2.3114 -1.6011
16026TIP3    H269570   6.064   6.402  16.474 -2.4718  1.4109 -1.5053
16027TIP3   OH269571   0.523   0.109  13.221  0.2714 -0.3844  0.1476
16027TIP3    H169572   0.583   0.082  13.151  0.7583  1.4987 -0.2261
16027TIP3    H269573   0.438   0.074  13.194  0.8256 -1.4032 -0.3364
16028TIP3   OH269574   1.965   0.775   3.957  0.0140  0.6190  0.4711
16028TIP3    H169575   1.876   0.738   3.952  0.0921  0.5183 -0.2751
16028TIP3    H269576   1.963   0.832   4.034 -0.6201  0.3980  0.6216
16029TIP3   OH269577   4.722   1.911  15.035  0.2260  0.7472 -0.0420
16029TIP3    H169578   4.795   1.850  15.048  1.0695  1.5227 -0.9656
16029TIP3    H269579   4.738   1.981  15.098  0.6435  1.2303 -0.6748
16030TIP3   OH269580   1.252   5.039  10.492  0.1726 -0.4630 -0.2760
16030TIP3    H169581   1.310   5.104  10.451  0.5608 -0.8525 -0.3493
16030TIP3    H269582   1.212   4.993  10.418  0.5652 -0.8931 -0.2249
16031TIP3   OH269583   5.483   0.209   3.755 -0.3213  0.7504 -0.1352
16031TIP3    H169584   5.472   0.303   3.742  0.0695  0.8137 -0.0284
16031TIP3    H269585   5.394   0.176   3.770 -0.3274  1.3158  1.2158
16032TIP3   OH269586   1.111   1.825  15.833 -0.1545 -0.1276 -0.0091
16032TIP3    H169587   1.171   1.776  15.889  0.1081 -0.1675 -0.3226
16032TIP3    H269588   1.166   1.892  15.793 -0.4687  0.2958  0.2606
16033TIP3   OH269589   0.556   1.607  11.059 -0.3603  0.3955  0.3529
16033TIP3    H169590   0.651   1.607  11.046 -0.5564 -0.7717 -1.4410
16033TIP3    H269591   0.544   1.591  11.152  1.1915  0.7062  0.6367
16034TIP3   OH269592   0.647   4.228  16.882  0.2001 -0.0970 -0.0474
16034TIP3    H169593   0.699   4.220  16.802 -2.4632 -0.7891 -1.8443
16034TIP3    H269594   0.612   4.317  16.881  0.5242  0.0519  0.6414
16035TIP3   OH269595   4.652   3.007   1.671 -0.2987  0.3373  0.5833
16035TIP3    H169596   4.659   2.959   1.754 -1.2076  2.3603  1.9109
16035TIP3    H269597   4.738   3.047   1.660  0.9619 -2.5636 -1.2820
16036TIP3   OH269598   5.293   3.453   2.082 -0.3085 -0.2593 -0.0792
16036TIP3    H169599   5.295   3.368   2.126  1.2937 -0.3996 -0.3680
16036TIP3    H269600   5.202   3.482   2.090 -0.4074 -0.9897  1.9490
16037TIP3   OH269601   4.336   1.093  16.000 -0.3444  0.0710 -0.1944
16037TIP3    H169602   4.381   1.024  16.048  0.0408  1.0820  0.9614
16037TIP3    H269603   4.346   1.170  16.055 -3.8084  0.2911  0.3605
16038TIP3   OH269604   2.322   0.037  15.139  0.2948  0.1610 -0.0146
16038TIP3    H169605   2.264   0.036  15.215 -2.3728 -0.8516 -1.9121
16038TIP3    H269606   2.293   0.112  15.087  1.8040  0.5954 -0.2827
16039TIP3   OH269607   6.479   5.663   2.961 -0.6435  0.1286 -0.1353
16039TIP3    H169608   6.524   5.579   2.948 -1.6033 -0.1553 -1.9444
16039TIP3    H269609   6.550   5.728   2.962 -0.0445 -0.4592 -1.4374
16040TIP3   OH269610   5.385   5.869   0.659 -0.5803  0.1581 -0.0207
16040TIP3    H169611   5.313   5.900   0.605 -0.7831 -1.8311 -0.9571
16040TIP3    H269612   5.461   5.869   0.601 -0.1461  0.7268  0.5214
16041TIP3   OH269613   3.284   0.742   6.365 -0.2765 -0.0353  0.0497
16041TIP3    H169614   3.248   0.830   6.383 -0.1042 -0.1031  0.7810
16041TIP3    H269615   3.376   0.749   6.389  0.1429  0.0386 -1.4963
16042TIP3   OH269616   1.658   1.599  14.305 -0.1178  0.0232  0.1891
16042TIP3    H169617   1.652   1.526  14.368  0.3442  0.8708  1.2345
16042TIP3    H269618   1.739   1.583  14.257 -0.0988 -0.2334  0.3053
16043TIP3   OH269619   5.696   1.447   2.292  0.5671  0.3224  0.2581
16043TIP3    H169620   5.665   1.487   2.211 -0.7805  0.5311  0.8568
16043TIP3    H269621   5.768   1.390   2.264  1.5396  1.9942 -0.7916
16044TIP3   OH269622   0.904   2.140   2.526 -0.0422  0.1394  0.5926
16044TIP3    H169623   0.940   2.177   2.607  0.2521  1.2985 -0.0403
16044TIP3    H269624   0.966   2.167   2.458 -0.2804 -0.8353 -0.0220
16045TIP3   OH269625   5.184   2.513  12.366  0.0892  0.3651  0.3661
16045TIP3    H169626   5.195   2.484  12.456 -0.5617  0.6236  0.5374
16045TIP3    H269627   5.270   2.546  12.340  0.9623 -1.9643  0.0446
16046TIP3   OH269628   6.142   1.026  16.927 -0.3645  0.1414 -0.1939
16046TIP3    H169629   6.194   1.100  16.896  0.4957  0.7162  2.4224
16046TIP3    H269630   6.057   1.065  16.949 -0.7115 -0.1255 -1.0083
16047TIP3   OH269631   6.447   5.059   2.676  0.2790  0.0467 -0.0839
16047TIP3    H169632   6.437   4.976   2.723  0.8413  0.2539  0.4266
16047TIP3    H269633   6.541   5.065   2.659  0.4841  1.2886  1.2580
16048TIP3   OH269634   4.055   4.056  11.916  0.6364  0.2669  0.0819
16048TIP3    H169635   4.082   3.997  11.986 -0.6582 -0.8196 -0.2987
16048TIP3    H269636   4.137   4.082  11.874  1.3508  0.0942  1.3113
16049TIP3   OH269637   2.312   5.732  13.590  0.0403  0.8164 -0.1248
16049TIP3    H169638   2.323   5.709  13.682 -0.5020  2.6263  0.4501
16049TIP3    H269639   2.240   5.796  13.590 -0.0169  0.7958 -1.8128
16050TIP3   OH269640   5.925   2.680  11.278 -0.4509 -0.2611 -0.2562
16050TIP3    H169641   5.978   2.649  11.351 -1.5455 -0.5115  0.4638
16050TIP3    H269642   5.967   2.761  11.249 -0.0980 -0.0665  0.7691
16051TIP3   OH269643   6.423   5.320   3.604  0.1261  0.2698 -0.1391
16051TIP3    H169644   6.388   5.348   3.688 -1.1001  0.1822 -0.6009
16051TIP3    H269645   6.438   5.401   3.556 -1.5638  0.2522 -0.7490
16052TIP3   OH269646   4.711   3.368  11.123 -0.1018 -0.6699  0.1503
16052TIP3    H169647   4.762   3.289  11.136 -0.4761 -1.0965 -0.8964
16052TIP3    H269648   4.729   3.395  11.033 -2.4409 -1.3917 -0.6182
16053TIP3   OH269649   3.057   2.790   1.107 -0.4700  0.6894 -0.0091
16053TIP3    H169650   3.092   2.866   1.155  2.0080 -0.2326 -0.2242
16053TIP3    H269651   3.019   2.827   1.027  1.3114  1.6837 -0.4373
16054TIP3   OH269652   3.116   0.537  15.224  0.0424 -0.1857 -0.3912
16054TIP3    H169653   3.167   0.461  15.196 -0.4234 -0.1556 -1.3622
16054TIP3    H269654   3.133   0.544  15.318  2.0460 -0.0031 -0.7275
16055TIP3   OH269655   1.296   6.640   0.530  0.4902 -0.1117 -0.4275
16055TIP3    H169656   1.314   6.563   0.585 -0.2364 -0.6789 -0.9657
16055TIP3    H269657   1.278   6.710   0.592 -1.2158 -0.9570  0.1058
16056TIP3   OH269658   3.179   4.775   6.659  0.0291 -0.1681 -0.2715
16056TIP3    H169659   3.197   4.686   6.631 -0.8310 -0.8532  1.1902
16056TIP3    H269660   3.243   4.829   6.613  1.2888 -1.6684 -0.3668
16057TIP3   OH269661   0.154   6.593  11.359 -0.3716 -1.0214  0.6007
16057TIP3    H169662   0.198   6.510  11.340  1.6578  0.4498 -1.5841
16057TIP3    H269663   0.069   6.586  11.315  0.3683 -1.4057 -0.8075
16058TIP3   OH269664   5.030   0.167  11.945  0.3823 -0.1620  0.4305
16058TIP3    H169665   5.072   0.125  12.021  0.4744  0.2893  0.6320
16058TIP3    H269666   5.091   0.155  11.873  1.0897  0.9023  0.8308
16059TIP3   OH269667   6.676   6.782   5.414 -0.0884 -0.3252 -0.0473
16059TIP3    H169668   6.669   6.773   5.319 -2.5106  0.4766 -0.0006
16059TIP3    H269669   6.615   6.852   5.436  0.0602 -0.8259  2.1726
16060TIP3   OH269670   6.174   3.046  12.680  0.5816  0.5617 -0.1026
16060TIP3    H169671   6.222   3.069  12.601 -2.1966 -0.4929 -2.2600
16060TIP3    H269672   6.175   3.126  12.733 -0.7267  2.6319 -2.9720
16061TIP3   OH269673   0.874   0.355  16.936 -0.4422  0.2403  0.7958
16061TIP3    H169674   0.918   0.418  16.879 -1.0979  3.0083  3.1099
16061TIP3    H269675   0.819   0.304  16.876  2.0822 -0.0131 -1.5201
16062TIP3   OH269676   2.245   4.084  14.147  0.2118  0.4177 -0.0195
16062TIP3    H169677   2.262   4.013  14.209 -0.2726  0.1706 -0.1690
16062TIP3    H269678   2.331   4.107  14.113  0.4976  0.6283  0.8252
16063TIP3   OH269679   3.185   3.316   0.836  0.6060 -0.0275  0.2737
16063TIP3    H169680   3.097   3.278   0.839  0.6976 -0.2931 -0.3543
16063TIP3    H269681   3.189   3.373   0.913 -0.1227 -0.0050  0.2998
16064TIP3   OH269682   1.637   4.619   4.287 -0.0491  0.3634 -0.1788
16064TIP3    H169683   1.624   4.526   4.308 -0.6411  0.3324 -0.6792
16064TIP3    H269684   1.732   4.629   4.285  0.0942 -0.8113 -2.5691
16065TIP3   OH269685   1.272   1.024  12.123  0.4552  0.1148  0.0353
16065TIP3    H169686   1.225   1.095  12.167  0.2728  0.4759 -0.7177
16065TIP3    H269687   1.323   0.982  12.192  1.1606  1.4648  0.3704
16066TIP3   OH269688   5.900   6.730  13.288  0.3743 -0.1863  0.2336
16066TIP3    H169689   5.927   6.640  13.271 -0.8821 -0.4843 -0.3445
16066TIP3    H269690   5.838   6.750  13.217  0.8954  1.2585  0.1523
16067TIP3   OH269691   4.894   1.044  10.890 -0.1869  0.5267  0.6380
16067TIP3    H169692   4.866   1.025  10.800  1.8931  0.2763 -0.0277
16067TIP3    H269693   4.837   0.991  10.945 -0.2616 -0.8232 -0.6753
16068TIP3   OH269694   6.337   0.775   1.962 -0.1119 -0.5255 -0.4635
16068TIP3    H169695   6.365   0.765   1.871  1.7383 -0.7226  0.0795
16068TIP3    H269696   6.397   0.840   1.998 -0.1920 -1.1577  0.8555
16069TIP3   OH269697   1.379   1.850  11.381 -0.5833 -0.2398  0.1133
16069TIP3    H169698   1.366   1.807  11.465  1.0136  0.1741  0.6018
16069TIP3    H269699   1.341   1.790  11.317  0.2925 -1.6970  0.9102
16070TIP3   OH269700   1.977   3.191   6.377 -0.2434 -0.2265 -0.4090
16070TIP3    H169701   1.884   3.181   6.398 -0.5440  0.8742 -1.1494
16070TIP3    H269702   2.012   3.102   6.379 -1.5962 -0.8137 -1.3917
16071TIP3   OH269703   4.080   2.980  12.106  0.2518  0.5118 -0.9081
16071TIP3    H169704   4.061   3.007  12.016  2.0280  1.0201 -1.1615
16071TIP3    H269705   4.162   2.931  12.100  0.6196  0.9179  0.4850
16072TIP3   OH269706   4.297   3.220  14.503  0.5180 -0.7903 -0.0675
16072TIP3    H169707   4.330   3.302  14.465 -1.1583  0.1194  0.3042
16072TIP3    H269708   4.216   3.203  14.455 -0.0164 -1.3232  0.9904
16073TIP3   OH269709   2.349   3.217   0.319  0.4771 -0.0149 -0.1736
16073TIP3    H169710   2.273   3.267   0.289  2.0111  2.8158  0.3313
16073TIP3    H269711   2.417   3.235   0.254  1.6282  0.0650  1.0110
16074TIP3   OH269712   5.008   6.616  12.464 -0.4473  0.3502  0.2812
16074TIP3    H169713   5.034   6.687  12.522 -3.1074  1.3277  0.4120
16074TIP3    H269714   4.925   6.585  12.500 -0.0004 -1.9750 -0.5452
16075TIP3   OH269715   6.448   3.592   0.320  0.3715  0.0780 -0.3524
16075TIP3    H169716   6.487   3.533   0.384  1.8018 -0.6229 -1.8082
16075TIP3    H269717   6.479   3.679   0.345 -0.4921  0.0558  0.8879
16076TIP3   OH269718   0.920   4.978   1.381  0.2364  0.3343 -0.3036
16076TIP3    H169719   0.907   4.983   1.476  0.9282  0.8178 -0.2251
16076TIP3    H269720   0.848   4.923   1.350  0.2037 -0.1146  0.5397
16077TIP3   OH269721   5.340   0.926   2.795 -0.6891  0.3309 -0.3165
16077TIP3    H169722   5.382   0.898   2.876 -1.5943  2.1156  0.8325
16077TIP3    H269723   5.387   1.005   2.769 -1.1156  0.3924 -0.9447
16078TIP3   OH269724   1.972   0.940  14.989 -0.3881  0.0514 -0.0705
16078TIP3    H169725   2.015   1.026  14.991 -1.7456  0.8008 -1.0295
16078TIP3    H269726   2.035   0.882  14.948  0.2331  0.7933 -0.1797
16079TIP3   OH269727   4.418   2.761   0.151 -0.2832 -0.9528  0.5599
16079TIP3    H169728   4.358   2.763   0.076 -1.6968 -1.6601  1.6335
16079TIP3    H269729   4.397   2.839   0.202  0.8441 -0.3434  0.1187
16080TIP3   OH269730   6.723   4.061   6.550 -0.2371  0.0099  0.5295
16080TIP3    H169731   6.774   4.074   6.470  0.3517  0.8028  1.0190
16080TIP3    H269732   6.761   4.122   6.613 -0.0261 -1.3232  1.7331
16081TIP3   OH269733   3.775   4.515   4.042 -0.6583 -0.2362  0.0446
16081TIP3    H169734   3.752   4.464   3.964 -1.8286  0.4119 -0.0562
16081TIP3    H269735   3.846   4.572   4.012 -0.0768 -1.0332 -0.1302
16082TIP3   OH269736   0.908   4.681   1.703  0.2357 -0.2785 -0.0389
16082TIP3    H169737   0.951   4.646   1.782  0.4480  1.5650  0.7172
16082TIP3    H269738   0.953   4.638   1.631  1.1318 -0.8312  0.8187
16083TIP3   OH269739   3.322   5.940  16.891 -0.3016 -0.4947 -0.3709
16083TIP3    H169740   3.278   5.879  16.832  1.0546 -2.3774  0.4694
16083TIP3    H269741   3.406   5.899  16.910  0.1277  1.0255  1.3031
16084TIP3   OH269742   5.750   0.425   5.046 -0.3266 -0.1789 -0.1110
16084TIP3    H169743   5.688   0.353   5.037 -0.5707 -0.2691  1.8490
16084TIP3    H269744   5.758   0.439   5.141  0.7940  1.4396 -0.3887
16085TIP3   OH269745   5.824   0.795  10.709 -0.3010  0.0361  0.0657
16085TIP3    H169746   5.776   0.825  10.786 -1.2015 -0.5945 -0.2292
16085TIP3    H269747   5.852   0.706  10.731 -0.2213  0.0019 -0.1716
16086TIP3   OH269748   1.338   4.708  14.744 -0.4343 -0.2634  0.2219
16086TIP3    H169749   1.429   4.738  14.755 -0.2353 -0.2210 -1.3022
16086TIP3    H269750   1.346   4.613  14.730 -0.2841  0.0683 -2.6905
16087TIP3   OH269751   6.004   1.460   0.676 -0.2240 -0.5257 -0.0338
16087TIP3    H169752   5.938   1.390   0.678 -1.3097  0.4892  1.6269
16087TIP3    H269753   5.954   1.541   0.687  1.1311  0.4276 -0.6523
16088TIP3   OH269754   2.785   1.731  14.768 -0.0457  0.1512  0.3150
16088TIP3    H169755   2.839   1.751  14.845 -0.6068  0.8724  0.5377
16088TIP3    H269756   2.774   1.816  14.724  0.8843 -0.3771 -0.9842
16089TIP3   OH269757   2.662   3.502   2.396  0.1342 -0.3239 -0.2145
16089TIP3    H169758   2.634   3.593   2.382  0.9677 -0.2406 -1.4818
16089TIP3    H269759   2.586   3.450   2.369 -0.4302 -0.0214  0.7261
16090TIP3   OH269760   5.886   4.347   5.234 -0.6678  0.0711  0.1342
16090TIP3    H169761   5.877   4.253   5.245 -0.0117  0.0535  0.4939
16090TIP3    H269762   5.946   4.375   5.302  0.2709  0.5363 -0.8526
16091TIP3   OH269763   4.871   5.584   5.928  0.7021  0.2760  0.5199
16091TIP3    H169764   4.900   5.554   5.842 -2.4273 -1.5937 -0.0107
16091TIP3    H269765   4.891   5.678   5.929  0.4571  0.4393 -2.4092
16092TIP3   OH269766   3.017   1.317   4.497  0.0904  0.3013  0.4509
16092TIP3    H169767   2.949   1.306   4.563 -0.7298 -0.6381 -0.5073
16092TIP3    H269768   2.970   1.345   4.418  0.7277 -0.8732 -0.3793
16093TIP3   OH269769   4.975   1.064  14.815 -0.1076 -0.3693 -0.4006
16093TIP3    H169770   5.040   1.057  14.745  0.2855  1.4796 -0.2640
16093TIP3    H269771   4.975   1.157  14.839 -1.6529 -0.6157  0.7108
16094TIP3   OH269772   0.458   0.778  12.946 -0.4213  0.3798  0.2003
16094TIP3    H169773   0.444   0.719  12.872 -1.0948 -1.9818  2.0934
16094TIP3    H269774   0.552   0.773  12.963 -0.6689 -1.3574  1.2353
16095TIP3   OH269775   1.068   4.000   3.203 -0.1294 -0.1118 -0.0979
16095TIP3    H169776   1.099   3.929   3.258 -0.3740 -1.0043 -1.0831
16095TIP3    H269777   1.126   4.074   3.224  0.9460 -0.9709  0.0262
16096TIP3   OH269778   3.959   5.700  14.659 -0.1387  0.0925  0.1970
16096TIP3    H169779   3.906   5.673  14.583  1.0343  2.0005 -1.3926
16096TIP3    H269780   3.939   5.634  14.726 -1.9582 -1.1375 -1.4217
16097TIP3   OH269781   0.340   0.912  14.491 -0.0535 -0.0174  0.3086
16097TIP3    H169782   0.259   0.901  14.440  0.1244  0.3918 -0.0768
16097TIP3    H269783   0.385   0.828  14.484 -0.1420 -0.0402 -0.0248
16098TIP3   OH269784   1.237   6.065  13.331  0.0262  0.5252 -0.4144
16098TIP3    H169785   1.173   6.135  13.341 -0.8607 -0.3480  0.2685
16098TIP3    H269786   1.230   6.014  13.412  0.9720 -0.0927 -0.6969
16099TIP3   OH269787   5.540   4.369  12.762  0.0304  0.3997  0.0005
16099TIP3    H169788   5.610   4.420  12.802 -0.2851 -0.6356  2.0182
16099TIP3    H269789   5.463   4.426  12.766  0.4445  1.0561 -1.0470
16100TIP3   OH269790   5.201   2.652   5.723 -0.2056  0.1393 -0.2664
16100TIP3    H169791   5.245   2.637   5.639 -2.8757 -1.7407 -1.4976
16100TIP3    H269792   5.229   2.579   5.778 -0.4633 -0.1032 -0.4544
16101TIP3   OH269793   5.775   3.734  16.652 -0.2210 -0.0378 -0.3210
16101TIP3    H169794   5.686   3.731  16.616 -0.1114 -0.0631 -0.5884
16101TIP3    H269795   5.815   3.651  16.626 -0.0260  0.0926 -0.4415
16102TIP3   OH269796   1.116   5.897   5.053 -0.2189  0.5079  0.0865
16102TIP3    H169797   1.190   5.944   5.015 -0.0966  0.3909  0.1812
16102TIP3    H269798   1.122   5.809   5.016 -0.1800  0.4337  0.2725
16103TIP3   OH269799   0.926   0.843   0.011  0.0015  0.7289  0.2517
16103TIP3    H169800   0.943   0.876  -0.076  0.9728  1.7442  0.8101
16103TIP3    H269801   1.012   0.822   0.047 -0.5035 -1.6286  0.2486
16104TIP3   OH269802   4.288   2.824  11.647 -0.0656 -0.3975 -0.5465
16104TIP3    H169803   4.258   2.794  11.561  0.7514 -0.0648 -0.9511
16104TIP3    H269804   4.368   2.774  11.664 -0.6284 -1.0193  0.3760
16105TIP3   OH269805   3.126   1.629  14.835 -0.3460 -0.0865 -0.0242
16105TIP3    H169806   3.054   1.581  14.794  0.0343  0.3366 -1.2058
16105TIP3    H269807   3.205   1.592  14.796  0.0398  0.1590  0.5116
16106TIP3   OH269808   0.196   4.658   6.185 -0.1017 -0.5182  0.1162
16106TIP3    H169809   0.137   4.702   6.124  0.7808 -0.1319 -0.4736
16106TIP3    H269810   0.149   4.579   6.211 -1.0579 -0.0068  0.0013
16107TIP3   OH269811   6.491   5.654  11.329  0.7852 -0.6441 -0.2650
16107TIP3    H169812   6.432   5.673  11.255 -0.3369  0.5672  0.8959
16107TIP3    H269813   6.508   5.739  11.368 -0.0160 -1.4084  1.8743
16108TIP3   OH269814   5.890   6.229  14.015 -0.0498  0.4457  0.5486
16108TIP3    H169815   5.922   6.178  14.089  2.6447  0.2518 -0.6365
16108TIP3    H269816   5.822   6.175  13.975  2.7014 -2.4152 -0.6690
16109TIP3   OH269817   5.342   0.189  12.571 -0.1616  0.5436 -0.0332
16109TIP3    H169818   5.261   0.240  12.562 -1.5567 -1.5431 -0.1405
16109TIP3    H269819   5.404   0.232  12.513 -1.0323  2.5088  0.4212
16110TIP3   OH269820   1.714   6.556  15.635  0.3369  0.2792 -0.9894
16110TIP3    H169821   1.627   6.538  15.670  1.1030 -0.5148  0.5947
16110TIP3    H269822   1.771   6.490  15.674  1.9107  1.6399 -0.8252
16111TIP3   OH269823   2.709   3.215   0.597  0.0016 -0.2987 -0.4110
16111TIP3    H169824   2.749   3.136   0.562 -0.1853 -0.3424 -0.5291
16111TIP3    H269825   2.680   3.264   0.520 -2.8871 -1.6612 -0.3549
16112TIP3   OH269826   1.910   0.101  11.026 -0.1156 -0.2956  0.4964
16112TIP3    H169827   1.962   0.179  11.007 -1.0761  0.2370  0.0063
16112TIP3    H269828   1.879   0.071  10.941 -0.2819 -0.8530  0.7463
16113TIP3   OH269829   1.338   2.753   0.034 -0.2476  0.1441 -0.8461
16113TIP3    H169830   1.362   2.821   0.098  0.8673 -0.7283 -0.3006
16113TIP3    H269831   1.286   2.691   0.084  1.7815 -1.2674 -0.3533
16114TIP3   OH269832   0.907   1.701  13.198  0.4709  0.9455 -0.2193
16114TIP3    H169833   0.923   1.620  13.150 -1.8625  0.9711 -1.1763
16114TIP3    H269834   0.953   1.689  13.281  2.1759 -0.3293 -1.2904
16115TIP3   OH269835   0.547   5.704  15.469 -0.3542 -0.2456 -0.4001
16115TIP3    H169836   0.584   5.789  15.491  0.6886 -1.0087  0.9215
16115TIP3    H269837   0.462   5.725  15.430 -1.5436  1.3350  2.6765
16116TIP3   OH269838   0.457   1.131  14.435 -0.0081 -0.3539 -0.3733
16116TIP3    H169839   0.437   1.043  14.467 -0.7996 -0.0838 -0.0910
16116TIP3    H269840   0.503   1.173  14.508 -1.6433  0.1989  0.3871
16117TIP3   OH269841   3.822   1.952   6.298 -0.3236 -0.1677  0.4723
16117TIP3    H169842   3.865   2.002   6.366 -0.9971 -0.5937  1.2310
16117TIP3    H269843   3.747   1.910   6.342 -1.6518  0.7283 -0.8349
16118TIP3   OH269844   1.550   0.998   0.172  0.2021  0.2293 -0.5486
16118TIP3    H169845   1.574   1.029   0.260 -0.8154 -0.5772  0.0435
16118TIP3    H269846   1.633   0.974   0.131  0.5848 -1.1891  0.9261
16119TIP3   OH269847   3.548   6.314  13.553 -0.5849 -0.0071 -0.7661
16119TIP3    H169848   3.500   6.392  13.524  0.6389  1.4728  0.9567
16119TIP3    H269849   3.629   6.316  13.501 -0.5176 -0.0633 -0.6640
16120TIP3   OH269850   1.707   5.632  11.187  0.1050  0.0257 -0.1964
16120TIP3    H169851   1.731   5.645  11.095  0.2341 -0.5567 -0.2529
16120TIP3    H269852   1.745   5.706  11.233  0.7728 -0.1240 -0.4971
16121TIP3   OH269853   2.658   4.684   2.529  0.0473 -0.1492 -0.2892
16121TIP3    H169854   2.616   4.770   2.534  0.3288  0.0063 -0.5278
16121TIP3    H269855   2.711   4.689   2.450  0.1214 -0.5191 -0.2611
16122TIP3   OH269856   0.119   2.907  14.419 -0.5614 -0.1765 -0.0671
16122TIP3    H169857   0.031   2.871  14.405 -0.3259 -0.6886 -0.2316
16122TIP3    H269858   0.107   3.002  14.411 -0.6840 -0.3354 -2.5298
16123TIP3   OH269859   0.067   6.664  15.569 -0.8451  0.1975  0.1119
16123TIP3    H169860   0.076   6.682  15.663  0.5648 -0.4155  0.1184
16123TIP3    H269861   0.116   6.734  15.527 -0.3824 -0.2580 -0.1101
16124TIP3   OH269862   2.264   1.639   1.290  0.5946 -0.2799 -0.0032
16124TIP3    H169863   2.243   1.552   1.325  1.8179 -0.7387 -0.3381
16124TIP3    H269864   2.242   1.633   1.197  1.0455 -0.3759 -0.1088
16125TIP3   OH269865   3.073   4.978   2.413  0.3256  0.0424 -0.6798
16125TIP3    H169866   3.128   4.916   2.462 -1.8359 -1.3372  0.1079
16125TIP3    H269867   3.085   4.953   2.321 -0.9100 -1.9941 -0.3563
16126TIP3   OH269868   1.829   1.456   0.595  0.2618  0.3435 -0.8123
16126TIP3    H169869   1.896   1.503   0.645 -0.6761  0.6318  0.2065
16126TIP3    H269870   1.879   1.400   0.536  1.4203 -0.3311  0.7386
16127TIP3   OH269871   5.244   3.123  14.840  0.4489 -0.1348  0.3586
16127TIP3    H169872   5.333   3.146  14.813 -0.0324  0.3888 -0.8683
16127TIP3    H269873   5.247   3.124  14.936  1.5355  0.7868  0.3417
16128TIP3   OH269874   1.661   0.791   3.223 -0.2854  0.2541  0.2529
16128TIP3    H169875   1.660   0.881   3.255 -1.8280  0.9398 -1.5735
16128TIP3    H269876   1.600   0.791   3.149 -0.9654 -2.4794  0.7117
16129TIP3   OH269877   6.531   5.205   4.045  0.3288  0.0285  0.0631
16129TIP3    H169878   6.561   5.122   4.083  0.6153  0.2706  0.3662
16129TIP3    H269879   6.607   5.262   4.049 -0.0636  0.5314  0.5044
16130TIP3   OH269880   1.160   5.548  17.016 -0.0906 -0.2303 -0.0362
16130TIP3    H169881   1.161   5.628  17.068  0.8421 -0.5727  0.5042
16130TIP3    H269882   1.169   5.578  16.926 -0.4818  0.3067  0.0966
16131TIP3   OH269883   0.412   0.094  16.095  0.3907 -0.0342  0.7756
16131TIP3    H169884   0.330   0.068  16.136  0.8204  1.3958  2.7366
16131TIP3    H269885   0.408   0.059  16.006 -1.9267 -0.7569  1.1108
16132TIP3   OH269886   5.016   5.291   5.874  0.5502 -0.5515 -0.3005
16132TIP3    H169887   4.981   5.222   5.818  0.1725 -0.0976 -0.6304
16132TIP3    H269888   5.111   5.288   5.860  0.6329 -1.6010  0.3848
16133TIP3   OH269889   1.051   3.086   1.078 -0.0674 -0.2341  0.2147
16133TIP3    H169890   1.088   3.016   1.133  0.3022  0.0661  0.3488
16133TIP3    H269891   0.971   3.112   1.123 -0.6102 -1.0855 -0.2279
16134TIP3   OH269892   6.309   4.399   6.762 -0.2720  0.2739  0.3556
16134TIP3    H169893   6.388   4.433   6.804  1.0740  1.4819 -2.8450
16134TIP3    H269894   6.338   4.318   6.719 -1.1901 -0.1130  0.4503
16135TIP3   OH269895   6.219   1.250   5.952 -0.4158  0.9598  0.7023
16135TIP3    H169896   6.298   1.197   5.958 -0.1929  1.2518  0.3667
16135TIP3    H269897   6.250   1.341   5.948 -0.5504  0.9857 -2.5701
16136TIP3   OH269898   5.711   0.977   0.063 -0.4711  0.0632  0.0731
16136TIP3    H169899   5.700   1.070   0.079  1.8025  0.1940  1.3417
16136TIP3    H269900   5.769   0.947   0.134  1.5309 -1.5988 -2.1068
16137TIP3   OH269901   5.656   2.569  15.385  0.2195 -0.2164 -0.1183
16137TIP3    H169902   5.701   2.650  15.412  0.2532  0.0597 -0.9730
16137TIP3    H269903   5.723   2.501  15.393  0.5148  0.0303 -0.4458
16138TIP3   OH269904   0.840   4.653   3.060  0.1768 -0.3217  0.3815
16138TIP3    H169905   0.752   4.646   3.097  0.1925 -0.3059  0.4221
16138TIP3    H269906   0.897   4.669   3.136  0.3760 -1.5296  0.4984
16139TIP3   OH269907   6.357   0.867  14.055  0.2189 -0.2188  0.1481
16139TIP3    H169908   6.310   0.853  13.973 -0.1705  0.0267  0.3226
16139TIP3    H269909   6.288   0.869  14.122  0.3594  1.2329  0.2763
16140TIP3   OH269910   5.822   6.072   6.281  0.1330 -0.6971 -0.1558
16140TIP3    H169911   5.730   6.048   6.278  0.3476 -1.6231  0.1926
16140TIP3    H269912   5.866   5.994   6.314  0.8722  0.1926  1.0821
16141TIP3   OH269913   1.767   5.470  14.592 -0.2764 -0.0541  0.1694
16141TIP3    H169914   1.855   5.442  14.617  0.4015  0.3315 -1.5803
16141TIP3    H269915   1.759   5.558  14.628  0.5517  0.3820 -0.6592
16142TIP3   OH269916   4.367   1.466  15.273 -0.3817  0.0416 -0.1208
16142TIP3    H169917   4.373   1.424  15.188 -0.2280 -0.0459 -0.0660
16142TIP3    H269918   4.406   1.404  15.334  0.2541  0.4520 -0.1034
16143TIP3   OH269919   4.448   1.281  14.696  1.0835 -0.0914  0.8697
16143TIP3    H169920   4.404   1.199  14.718 -0.6340  0.1682 -1.2148
16143TIP3    H269921   4.434   1.337  14.772 -2.0606 -0.1478  0.4566
16144TIP3   OH269922   3.002   4.111  14.924  0.2009 -0.1147 -0.3766
16144TIP3    H169923   2.945   4.173  14.878 -2.8127 -0.8174  2.0312
16144TIP3    H269924   3.079   4.162  14.947 -0.6727  1.7777 -1.3812
16145TIP3   OH269925   2.327   1.363  15.023  0.0543  0.2824  0.2781
16145TIP3    H169926   2.356   1.298  14.959  0.5555 -0.3062  1.0919
16145TIP3    H269927   2.282   1.312  15.090  1.9360  0.5041  1.8179
16146TIP3   OH269928   5.852   2.135  14.955  0.2464 -0.6187  0.4486
16146TIP3    H169929   5.913   2.066  14.928  1.1517  0.3854 -0.1164
16146TIP3    H269930   5.804   2.157  14.875 -0.7747 -1.2767  0.8501
16147TIP3   OH269931   5.553   2.285   1.326  0.3205  0.6244 -0.2356
16147TIP3    H169932   5.506   2.288   1.243 -1.2043  0.3056  0.5767
16147TIP3    H269933   5.525   2.203   1.366  0.1786  1.2735  1.0529
16148TIP3   OH269934   0.254   6.482   0.529  0.0551  0.2420 -0.4435
16148TIP3    H169935   0.324   6.527   0.577 -0.9559  1.6105 -0.1585
16148TIP3    H269936   0.189   6.461   0.596 -0.1949 -0.2230 -0.8256
16149TIP3   OH269937   6.271   4.627  11.032  0.0924  0.5306  0.0813
16149TIP3    H169938   6.250   4.706  10.981  1.5598  0.5845 -0.4979
16149TIP3    H269939   6.204   4.624  11.101  0.6712  2.9270  0.8358
16150TIP3   OH269940   5.183   4.327  16.621 -0.7273  0.1478 -0.2651
16150TIP3    H169941   5.228   4.295  16.699 -0.1199  1.6395  0.0225
16150TIP3    H269942   5.250   4.327  16.552 -1.3294 -1.4288 -0.8874
16151TIP3   OH269943   6.405   1.578   3.526 -0.0627 -0.2157  0.1567
16151TIP3    H169944   6.481   1.565   3.468 -0.5826  0.2019 -0.6402
16151TIP3    H269945   6.408   1.504   3.586 -0.0567 -1.2068 -1.0345
16152TIP3   OH269946   6.084   3.782  17.033  0.3659  0.6435 -0.0590
16152TIP3    H169947   6.130   3.853  17.078 -0.3922  0.7798  0.5131
16152TIP3    H269948   6.003   3.821  17.002 -0.4620 -0.1546  1.0122
16153TIP3   OH269949   4.947   3.946   2.586  0.0830 -0.4798 -0.7477
16153TIP3    H169950   4.982   3.857   2.589  1.2582 -0.0530 -1.1413
16153TIP3    H269951   4.932   3.962   2.493 -0.2709 -0.3256 -0.6621
16154TIP3   OH269952   3.016   2.981  14.889  0.2387 -0.2142 -0.1416
16154TIP3    H169953   3.000   2.965  14.796  0.3468 -1.3806  0.0182
16154TIP3    H269954   2.981   2.903  14.933 -0.2576  0.5438  0.8385
16155TIP3   OH269955   5.717   0.943   0.803 -0.2828  0.2911 -0.4125
16155TIP3    H169956   5.659   1.011   0.838 -0.3828 -0.6937  1.4729
16155TIP3    H269957   5.805   0.975   0.822 -0.1967  1.1808 -2.1128
16156TIP3   OH269958   6.259   4.642  11.535  0.6387 -0.5490 -0.0314
16156TIP3    H169959   6.266   4.729  11.497  0.2848 -0.6687 -0.3804
16156TIP3    H269960   6.301   4.585  11.470 -0.4170 -0.8219 -0.4944
16157TIP3   OH269961   4.766   1.116  16.669 -0.1160 -0.7375  0.4136
16157TIP3    H169962   4.842   1.175  16.664 -1.3479  1.1069  2.0418
16157TIP3    H269963   4.704   1.152  16.605 -0.2759 -1.2356  0.2861
16158TIP3   OH269964   6.198   5.349  14.096  0.7667  0.0817  0.4130
16158TIP3    H169965   6.249   5.424  14.063  0.4115 -0.1832 -0.7788
16158TIP3    H269966   6.220   5.277  14.036 -0.5258 -0.2046  0.2677
16159TIP3   OH269967   1.273   5.322  16.109 -0.7916  0.7969 -0.2260
16159TIP3    H169968   1.366   5.344  16.102 -0.6106 -0.4002 -2.2010
16159TIP3    H269969   1.239   5.330  16.020 -2.3977  0.3958  0.3159
16160TIP3   OH269970   0.536   0.716  12.431  0.4326 -0.7499 -0.2363
16160TIP3    H169971   0.515   0.788  12.371  0.4562  0.3949  1.0624
16160TIP3    H269972   0.619   0.741  12.470  0.9500 -2.0104 -0.5066
16161TIP3   OH269973   2.796   5.655   4.584 -0.4988 -0.1061  0.0846
16161TIP3    H169974   2.777   5.669   4.492 -2.1598 -1.7128  0.1050
16161TIP3    H269975   2.717   5.685   4.630  0.1910  0.4214  0.9523
16162TIP3   OH269976   5.267   1.167  16.560  0.4648 -0.0114 -0.4679
16162TIP3    H169977   5.308   1.238  16.510  1.4988  0.5391  1.0966
16162TIP3    H269978   5.325   1.153  16.634 -2.2223  0.9776  2.0495
16163TIP3   OH269979   5.297   3.547  15.833 -0.2552  0.1158 -0.6918
16163TIP3    H169980   5.370   3.484  15.830 -0.9146 -0.6870 -0.1528
16163TIP3    H269981   5.232   3.511  15.773 -1.3513 -0.6424  0.8908
16164TIP3   OH269982   4.785   3.025   5.817  0.4761 -0.5759 -0.2550
16164TIP3    H169983   4.866   2.986   5.784  1.9170  1.5080  0.6063
16164TIP3    H269984   4.768   3.100   5.760 -0.9887 -1.0926 -0.5457
16165TIP3   OH269985   1.670   2.855  14.880 -0.4937 -0.3580  0.8249
16165TIP3    H169986   1.603   2.792  14.907  0.4256 -1.5221  0.4737
16165TIP3    H269987   1.673   2.848  14.785  1.1813 -1.4975  0.9075
16166TIP3   OH269988   3.692   6.214   0.690  0.0313 -0.3416 -0.4750
16166TIP3    H169989   3.606   6.228   0.651  0.3719 -0.2998 -1.2135
16166TIP3    H269990   3.754   6.230   0.619  0.7562  1.5072  0.5155
16167TIP3   OH269991   2.121   0.530   1.082  0.7333  0.1289  0.1631
16167TIP3    H169992   2.138   0.603   1.022 -1.9851  1.2706  0.6209
16167TIP3    H269993   2.108   0.454   1.025 -0.6842  0.9511 -0.6481
16168TIP3   OH269994   5.618   0.254  14.851  0.2106 -0.4925 -0.7394
16168TIP3    H169995   5.605   0.326  14.912 -0.3631 -0.4262 -0.9325
16168TIP3    H269996   5.581   0.285  14.769 -0.3857 -1.1444 -0.7239
16169TIP3   OH269997   0.377   1.669  16.287  0.4491 -0.1110 -0.4151
16169TIP3    H169998   0.307   1.733  16.291  1.2344  0.7396  0.3944
16169TIP3    H269999   0.441   1.706  16.226  1.5292  0.5661  1.0756
16170TIP3   OH270000   1.353   1.743   3.521  0.1561 -0.3992  0.7140
16170TIP3    H170001   1.362   1.732   3.427 -1.4426 -1.1860  0.6069
16170TIP3    H270002   1.442   1.758   3.553  0.7558 -0.4238 -0.8668
16171TIP3   OH270003   6.615   0.883  13.957 -0.5286 -0.0420  0.3952
16171TIP3    H170004   6.537   0.881  14.013 -0.0122  1.0430  1.2051
16171TIP3    H270005   6.587   0.844  13.874 -1.4395 -1.2661  1.2521
16172TIP3   OH270006   2.804   6.262   1.801 -0.5473  0.6286  0.3058
16172TIP3    H170007   2.759   6.185   1.835  1.6128  0.0869  2.1705
16172TIP3    H270008   2.855   6.294   1.875  0.2989  2.5859 -1.0484
16173TIP3   OH270009   3.513   5.016  13.790 -0.8454  0.3000 -0.5454
16173TIP3    H170010   3.543   4.983  13.705  1.4158  1.4299 -0.2406
16173TIP3    H270011   3.585   5.069  13.822 -1.2632 -0.7880  2.5142
16174TIP3   OH270012   1.084   0.570   1.043  0.1039 -0.2705  0.0347
16174TIP3    H170013   1.144   0.529   1.106  0.2156  0.0373  0.1281
16174TIP3    H270014   1.128   0.651   1.017 -0.6050  0.3357  0.6701
16175TIP3   OH270015   5.501   2.875  15.792 -0.1625 -0.3299 -0.1511
16175TIP3    H170016   5.434   2.817  15.755  0.9109 -0.4816 -1.9721
16175TIP3    H270017   5.573   2.816  15.815 -0.6283 -0.1801  1.8930
16176TIP3   OH270018   5.439   4.206  16.762  0.2508 -0.0910 -0.2641
16176TIP3    H170019   5.391   4.149  16.823  0.3598 -0.6385 -0.6747
16176TIP3    H270020   5.528   4.209  16.798  0.0166  0.5707  0.2618
16177TIP3   OH270021   4.579   2.291  16.176  0.2518  0.3607  0.2393
16177TIP3    H170022   4.576   2.232  16.101 -1.8845 -0.5133  0.9326
16177TIP3    H270023   4.637   2.362  16.149  0.1006 -0.2855 -1.9473
16178TIP3   OH270024   3.987   5.996   4.274 -0.3107  0.2627 -0.7762
16178TIP3    H170025   4.043   5.929   4.236 -0.1165 -0.8556  1.3336
16178TIP3    H270026   4.045   6.070   4.290 -0.1318  0.2807 -1.5111
16179TIP3   OH270027   4.936   0.800  11.713  0.4849 -0.0919 -0.1787
16179TIP3    H170028   4.936   0.705  11.700 -0.4702 -0.1331 -0.0044
16179TIP3    H270029   4.909   0.836  11.629  2.2372  0.1300 -0.6826
16180TIP3   OH270030   4.681   4.058  13.348 -0.2668  0.3980 -0.7918
16180TIP3    H170031   4.631   4.117  13.404  1.2436  0.8062  0.1758
16180TIP3    H270032   4.752   4.113  13.314 -0.0304 -0.3574 -1.5461
16181TIP3   OH270033   4.565   0.988  10.842 -0.3133  0.2336  0.2441
16181TIP3    H170034   4.633   0.929  10.810 -3.0729 -2.8118 -0.5230
16181TIP3    H270035   4.568   0.978  10.937  1.4723  1.6948  0.4112
16182TIP3   OH270036   2.312   1.299   0.850  0.2757  0.5577  0.1274
16182TIP3    H170037   2.233   1.265   0.893  0.8964 -0.4255  0.5341
16182TIP3    H270038   2.296   1.285   0.756 -0.3708  1.1284  0.1456
16183TIP3   OH270039   6.124   2.236  14.016  0.1603  0.3446  0.0963
16183TIP3    H170040   6.087   2.148  14.010  1.6630 -0.2320 -1.9822
16183TIP3    H270041   6.056   2.293  13.981  0.4224 -0.4757 -1.9095
16184TIP3   OH270042   5.489   1.533   3.493 -0.0096  0.4900  0.4375
16184TIP3    H170043   5.508   1.578   3.575  1.0185 -1.1669  1.1737
16184TIP3    H270044   5.570   1.487   3.472 -0.6545 -0.1137 -0.8439
16185TIP3   OH270045   4.294   6.529  13.641 -0.2911  0.0632  0.1087
16185TIP3    H170046   4.275   6.435  13.648  0.5769 -0.1965 -0.8522
16185TIP3    H270047   4.387   6.537  13.658  0.3010  0.3359 -2.7095
16186TIP3   OH270048   1.133   0.350   3.067  0.7821 -0.8196  0.0731
16186TIP3    H170049   1.174   0.425   3.110  0.7863 -0.1728 -1.0170
16186TIP3    H270050   1.202   0.285   3.060  0.9462 -0.6891  0.4756
16187TIP3   OH270051   0.210   4.939  11.345 -0.9883  0.1118  0.3928
16187TIP3    H170052   0.267   4.974  11.414 -0.0782 -0.0424 -0.2652
16187TIP3    H270053   0.261   4.870  11.303 -2.6915 -1.9917  1.5670
16188TIP3   OH270054   3.897   5.638  13.557 -0.1096  0.5642 -0.1438
16188TIP3    H170055   3.833   5.687  13.505  0.1267  1.8687  0.7539
16188TIP3    H270056   3.940   5.704  13.611  1.0638 -0.4819  0.2501
16189TIP3   OH270057   0.988   4.360  15.427  0.7082  0.5472  0.5893
16189TIP3    H170058   0.960   4.450  15.411  0.5468  0.1834 -1.5370
16189TIP3    H270059   1.075   4.368  15.465  0.3690  1.5978  1.1794
16190TIP3   OH270060   4.797   5.443   5.316 -0.0391  0.3223 -0.3907
16190TIP3    H170061   4.805   5.537   5.332  0.7462  0.1351  0.4087
16190TIP3    H270062   4.703   5.428   5.309 -0.4644  0.6495  2.9156
16191TIP3   OH270063   1.718   3.205  12.044 -0.5388  0.2079  0.1312
16191TIP3    H170064   1.630   3.217  12.081 -0.3589  0.7540  0.4070
16191TIP3    H270065   1.754   3.130  12.092 -0.7923  0.0879  0.1376
16192TIP3   OH270066   1.566   0.700  14.762  0.1532 -0.0095 -0.1815
16192TIP3    H170067   1.599   0.679  14.675  1.5098 -1.6684  0.6976
16192TIP3    H270068   1.561   0.617  14.808 -2.2678  0.5756  0.8099
16193TIP3   OH270069   3.378   0.025   1.280  0.2280  0.1207  0.4953
16193TIP3    H170070   3.413   0.071   1.356 -0.5752  1.0755  0.3042
16193TIP3    H270071   3.370   0.092   1.212  0.3952 -0.5974 -0.2566
16194TIP3   OH270072   0.251   0.337   5.675 -0.0235  0.1309 -0.0503
16194TIP3    H170073   0.269   0.244   5.688 -0.9378 -0.3525 -1.8359
16194TIP3    H270074   0.173   0.338   5.619 -0.7385  1.9979  0.9262
16195TIP3   OH270075   5.626   5.335  13.551  0.5107 -0.3625 -0.1650
16195TIP3    H170076   5.691   5.353  13.619  0.4712  0.0095 -0.2224
16195TIP3    H270077   5.601   5.421  13.518  1.0509 -0.5710 -1.1418
16196TIP3   OH270078   1.543   0.292  12.941 -0.2010  0.5641  0.4031
16196TIP3    H170079   1.630   0.331  12.955 -0.7761  1.4705  1.5886
16196TIP3    H270080   1.481   0.362  12.961 -1.2328 -0.2938  0.3142
16197TIP3   OH270081   2.653   3.285  15.000  0.5635  0.3741 -0.0810
16197TIP3    H170082   2.731   3.279  15.055 -0.5496  0.9138  1.6263
16197TIP3    H270083   2.653   3.376  14.968 -0.3556  0.9729  1.5179
16198TIP3   OH270084   1.155   0.798  13.955  0.4464  0.0048  0.4732
16198TIP3    H170085   1.225   0.759  14.007 -0.6807 -0.9981  1.2778
16198TIP3    H270086   1.157   0.891  13.979 -0.4712 -0.5207  2.9074
16199TIP3   OH270087   0.365   3.789   1.023 -0.2265 -0.6152 -0.1791
16199TIP3    H170088   0.310   3.743   1.085 -0.9203  0.4826  0.0397
16199TIP3    H270089   0.344   3.750   0.938  0.1048 -1.5358  0.1595
16200TIP3   OH270090   5.735   1.166   0.969 -0.1651 -0.1160  0.1847
16200TIP3    H170091   5.800   1.126   1.027  0.0604  1.1042  0.8139
16200TIP3    H270092   5.686   1.225   1.026  1.4520  2.7709 -1.1689
16201TIP3   OH270093   4.937   3.380  15.351 -0.7105  0.2504  0.0686
16201TIP3    H170094   4.967   3.456  15.401 -0.5228  0.2752 -0.0800
16201TIP3    H270095   4.842   3.379  15.363 -0.6092 -0.0524  0.8546
16202TIP3   OH270096   2.076   0.854  12.132 -0.5303 -0.8906  0.3882
16202TIP3    H170097   2.165   0.829  12.156 -0.0461 -0.6988 -1.1279
16202TIP3    H270098   2.060   0.935  12.181  0.2948 -0.6771  0.3208
16203TIP3   OH270099   5.749   2.838  12.187 -0.1677 -0.0252 -0.4811
16203TIP3    H170100   5.698   2.915  12.161 -0.6568 -0.3478 -0.5033
16203TIP3    H270101   5.716   2.817  12.275 -0.1320 -0.2832 -0.5278
16204TIP3   OH270102   0.761   2.100  10.644 -0.0262 -0.3981 -0.4376
16204TIP3    H170103   0.814   2.114  10.566  0.9493 -0.9850  0.1030
16204TIP3    H270104   0.721   2.186  10.661  2.2241  0.5951  0.1958
16205TIP3   OH270105   3.305   4.879  13.872 -0.3483  0.1328  0.0112
16205TIP3    H170106   3.370   4.948  13.855  1.6633 -1.5435  0.4071
16205TIP3    H270107   3.322   4.854  13.963 -2.1003  0.1360  0.3608
16206TIP3   OH270108   4.761   4.484   2.808 -0.0840  0.1418 -0.4939
16206TIP3    H170109   4.820   4.464   2.881 -1.2509  1.0349  0.7401
16206TIP3    H270110   4.819   4.499   2.733  1.3239  1.7522  0.8578
16207TIP3   OH270111   0.349   5.074   4.598 -0.8195  0.0034  0.0395
16207TIP3    H170112   0.283   5.055   4.664  1.4813  0.3570  2.6124
16207TIP3    H270113   0.323   5.159   4.562 -2.9626 -0.9059 -0.7346
16208TIP3   OH270114   1.517   2.856   4.757  0.1691 -0.1280 -0.4519
16208TIP3    H170115   1.545   2.941   4.791 -0.6658  0.1397 -0.4037
16208TIP3    H270116   1.503   2.803   4.835  0.6420 -0.2969 -0.4800
16209TIP3   OH270117   4.976   2.839   2.197 -0.0110  0.3515  0.5505
16209TIP3    H170118   5.052   2.895   2.210 -0.7055  1.2529  0.8374
16209TIP3    H270119   5.007   2.768   2.140  0.6838  1.4927 -0.5355
16210TIP3   OH270120   1.671   6.481  11.673  0.6538 -0.2096 -0.2572
16210TIP3    H170121   1.699   6.507  11.585 -0.6729  0.8977 -0.3746
16210TIP3    H270122   1.581   6.452  11.663  0.3285  0.3747  0.8167
16211TIP3   OH270123   0.925   6.170  15.439  0.3208  0.2474  0.4772
16211TIP3    H170124   0.965   6.234  15.379 -1.5817 -0.3061 -1.5199
16211TIP3    H270125   0.867   6.223  15.494  0.8604  0.5674  0.7484
16212TIP3   OH270126   0.593   3.539   4.384 -0.4359 -0.1556 -0.1113
16212TIP3    H170127   0.666   3.479   4.397 -0.1487 -0.0315 -1.0332
16212TIP3    H270128   0.622   3.596   4.313 -1.1985  0.2760 -0.0867
16213TIP3   OH270129   2.443   4.688   1.196  0.4322 -0.1362  0.2121
16213TIP3    H170130   2.433   4.779   1.170  2.0554 -0.4531 -1.8401
16213TIP3    H270131   2.525   4.686   1.245  0.3068 -0.4599  0.4114
16214TIP3   OH270132   3.233   3.099  14.547  0.5660  0.0078 -0.4094
16214TIP3    H170133   3.173   3.024  14.549 -1.4234  1.5051  0.1557
16214TIP3    H270134   3.175   3.175  14.557  2.4857  1.6283 -1.0840
16215TIP3   OH270135   6.791   5.827   3.645 -0.2386 -0.4343 -0.2874
16215TIP3    H170136   6.729   5.883   3.690  2.0554  1.0396  1.2237
16215TIP3    H270137   6.813   5.875   3.565 -0.5694 -0.6771 -0.5288
16216TIP3   OH270138   5.782   4.098   2.517 -0.3425 -0.5667  0.0708
16216TIP3    H170139   5.845   4.146   2.571  1.6182 -2.5047 -0.3105
16216TIP3    H270140   5.830   4.078   2.436 -1.7617 -1.3400 -0.6200
16217TIP3   OH270141   1.762   1.682  12.941 -0.1019  0.2263  0.2140
16217TIP3    H170142   1.767   1.712  13.032  0.4884 -0.3608  0.3840
16217TIP3    H270143   1.757   1.763  12.890  1.9123  0.6866  0.6361
16218TIP3   OH270144   2.429   6.286  13.075  0.0330  0.1365 -0.3503
16218TIP3    H170145   2.360   6.339  13.116  0.8398  1.2829 -0.4400
16218TIP3    H270146   2.429   6.314  12.983 -0.0991 -0.6496 -0.5999
16219TIP3   OH270147   4.004   1.253  11.965 -0.0203 -0.0477  0.4509
16219TIP3    H170148   4.081   1.198  11.979  0.0942 -0.3763 -1.2085
16219TIP3    H270149   4.032   1.340  11.993  0.1613 -0.5894  2.0615
16220TIP3   OH270150   0.119   4.083  11.345 -0.2761  0.0673 -0.8262
16220TIP3    H170151   0.025   4.067  11.335  0.0278 -2.6424 -0.1495
16220TIP3    H270152   0.129   4.109  11.437 -0.3648  0.5088 -0.9387
16221TIP3   OH270153   5.896   0.862  16.569  0.8723 -0.4396  0.0082
16221TIP3    H170154   5.911   0.832  16.658 -0.0726 -0.1372  0.2803
16221TIP3    H270155   5.983   0.859  16.528  1.2956 -0.6999  0.8909
16222TIP3   OH270156   1.888   5.594  13.248  0.6378 -0.4065  0.3967
16222TIP3    H170157   1.849   5.558  13.328 -1.0605  0.0473 -0.1829
16222TIP3    H270158   1.873   5.688  13.254  0.4984 -0.3654 -0.4352
16223TIP3   OH270159   1.080   0.196  12.144  0.4152  0.6289 -0.3370
16223TIP3    H170160   0.995   0.167  12.175  0.0045  0.8726 -1.1958
16223TIP3    H270161   1.141   0.171  12.213 -0.3590  0.5141  0.3174
16224TIP3   OH270162   5.905   4.559   2.667  0.1149  0.3977  0.4757
16224TIP3    H170163   5.985   4.515   2.695  0.5731  1.5653  1.0211
16224TIP3    H270164   5.933   4.619   2.598  0.1171  2.4104  2.1429
16225TIP3   OH270165   3.350   4.687   0.543  0.0884 -0.1512  0.4731
16225TIP3    H170166   3.441   4.685   0.514 -0.2520  1.6602 -0.9282
16225TIP3    H270167   3.337   4.605   0.591  2.0286 -1.1219 -0.5769
16226TIP3   OH270168   4.882   1.479   1.702  0.0652 -0.0717 -0.6170
16226TIP3    H170169   4.944   1.451   1.635 -1.1618 -2.1894 -0.9604
16226TIP3    H270170   4.937   1.497   1.779  1.2791  0.1499 -1.5064
16227TIP3   OH270171   1.427   3.608   3.879  0.3941 -0.3048  0.5882
16227TIP3    H170172   1.351   3.559   3.908  2.0713 -2.6647  1.2829
16227TIP3    H270173   1.450   3.663   3.954 -0.2714 -0.0189  0.5850
16228TIP3   OH270174   4.863   0.059  12.290 -0.1197 -0.3130 -0.0383
16228TIP3    H170175   4.913   0.028  12.214  0.4001 -1.4376  0.7256
16228TIP3    H270176   4.775   0.024  12.276  0.3380 -1.7970  0.5618
16229TIP3   OH270177   3.356   1.891  11.790  0.2787 -0.1259 -0.0965
16229TIP3    H170178   3.448   1.910  11.775  0.8056 -1.8456  0.7114
16229TIP3    H270179   3.324   1.965  11.841  1.5882 -0.1821  0.8543
16230TIP3   OH270180   5.107   6.125  12.824 -0.2593 -0.3100  0.3512
16230TIP3    H170181   5.070   6.115  12.737 -1.0022  1.4623  0.4209
16230TIP3    H270182   5.091   6.041  12.867 -2.4306 -0.2855 -0.2964
16231TIP3   OH270183   5.953   0.357  13.574 -0.1947 -0.5277  0.4773
16231TIP3    H170184   5.983   0.304  13.500 -2.0493 -3.2938  1.5440
16231TIP3    H270185   5.999   0.320  13.649  0.2306  1.0115  1.0085
16232TIP3   OH270186   1.107   6.043   0.339 -0.7769  0.2659 -0.3411
16232TIP3    H170187   1.056   6.102   0.394 -1.3700  0.8744 -1.4867
16232TIP3    H270188   1.053   5.965   0.331  1.1941 -1.7396  3.4557
16233TIP3   OH270189   6.475   0.950  16.744 -0.1260  1.0964  0.0856
16233TIP3    H170190   6.436   1.037  16.753  1.3923  1.6502  2.0821
16233TIP3    H270191   6.569   0.966  16.745  0.1832 -0.4992 -0.6892
16234TIP3   OH270192   2.050   5.698   3.345 -0.0792 -0.1816 -0.0388
16234TIP3    H170193   1.967   5.745   3.342 -0.6636 -1.1420  0.4836
16234TIP3    H270194   2.062   5.664   3.256 -1.3283 -1.7992  0.3587
16235TIP3   OH270195   4.235   6.366  16.830 -0.0454  0.6536  0.0497
16235TIP3    H170196   4.251   6.357  16.924 -0.3235 -0.2796  0.0209
16235TIP3    H270197   4.316   6.335  16.789 -0.3268 -0.0002 -0.0272
16236TIP3   OH270198   3.035   1.350   1.909 -0.1889 -0.0353 -0.0273
16236TIP3    H170199   3.114   1.315   1.868 -0.3607 -0.3243 -0.1137
16236TIP3    H270200   3.066   1.420   1.966  0.0737  0.2072 -0.4678
16237TIP3   OH270201   2.896   5.837   3.896  0.1139  0.1539  0.0496
16237TIP3    H170202   2.912   5.879   3.980 -0.4455 -2.1409  1.3839
16237TIP3    H270203   2.867   5.909   3.838 -0.4748  1.6289  2.0693
16238TIP3   OH270204   3.662   1.433   5.261  0.4016  0.1840  0.1437
16238TIP3    H170205   3.701   1.396   5.181  0.2439 -1.7155  0.8990
16238TIP3    H270206   3.568   1.426   5.247  0.3755 -0.2347  0.5281
16239TIP3   OH270207   6.342   1.981   4.601  0.4760  0.1786  0.2896
16239TIP3    H170208   6.355   1.886   4.596  1.1504  0.2972 -0.3799
16239TIP3    H270209   6.427   2.015   4.627 -0.3156  0.4499  2.7719
16240TIP3   OH270210   2.216   3.174   4.090  0.1352  0.2930  0.4430
16240TIP3    H170211   2.131   3.197   4.127 -0.7183 -0.5303 -0.9231
16240TIP3    H270212   2.196   3.137   4.004  2.0301  1.9945 -0.8209
16241TIP3   OH270213   5.225   5.863   1.371  0.3084  0.0776 -0.5210
16241TIP3    H170214   5.158   5.905   1.426 -0.4040 -1.8425  0.1803
16241TIP3    H270215   5.178   5.791   1.328  1.2759  0.4741 -2.3231
16242TIP3   OH270216   0.997   5.104  14.769 -0.1138  0.2658  0.0276
16242TIP3    H170217   1.055   5.093  14.844  0.4295  0.4740 -0.3579
16242TIP3    H270218   1.028   5.041  14.704  0.7835  1.5385 -0.8365
16243TIP3   OH270219   5.205   2.018  16.063  0.4181  0.8096 -0.3568
16243TIP3    H170220   5.258   1.944  16.093 -2.8058 -0.7999  2.1059
16243TIP3    H270221   5.196   2.073  16.141 -0.1349  1.8933 -1.1745
16244TIP3   OH270222   0.520   0.941  10.890 -0.2828 -0.2401  0.4034
16244TIP3    H170223   0.565   0.935  10.806  1.6073  0.4048  1.2982
16244TIP3    H270224   0.436   0.898  10.876  0.3007 -0.8313 -1.5915
16245TIP3   OH270225   2.546   3.677   1.315  0.3976  0.1212 -0.1717
16245TIP3    H170226   2.544   3.583   1.297  0.7528  0.3784 -1.6759
16245TIP3    H270227   2.537   3.718   1.229  0.3662  1.4639  0.4534
16246TIP3   OH270228   4.184   2.589   0.668 -0.3723 -0.1882  0.2374
16246TIP3    H170229   4.221   2.557   0.751 -0.9604 -1.0782  0.1787
16246TIP3    H270230   4.222   2.530   0.602  0.9137  1.1645 -0.2818
16247TIP3   OH270231   3.083   6.602   2.183 -0.1961 -0.0829  0.0919
16247TIP3    H170232   3.114   6.535   2.244 -1.7453 -0.7137  0.2062
16247TIP3    H270233   3.156   6.611   2.121  1.6531  0.9482  2.2507
16248TIP3   OH270234   6.424   5.096   5.201  0.0585 -0.5026  0.4669
16248TIP3    H170235   6.430   5.007   5.236  0.4155 -0.3563  0.7967
16248TIP3    H270236   6.427   5.086   5.106 -0.3902 -0.8737  0.4871
16249TIP3   OH270237   6.248   2.662   2.929  0.4062  0.4233  0.4208
16249TIP3    H170238   6.290   2.721   2.867 -0.6656  0.1538 -0.6092
16249TIP3    H270239   6.220   2.718   3.001  1.7251  0.7333  0.7217
16250TIP3   OH270240   5.185   5.710   4.432  0.3652 -0.0564  0.1877
16250TIP3    H170241   5.103   5.758   4.441 -0.6444 -1.7019  0.2306
16250TIP3    H270242   5.243   5.770   4.384 -1.2488  0.7048 -0.9112
16251TIP3   OH270243   6.510   2.301  12.762 -0.3675 -0.2771 -0.1796
16251TIP3    H170244   6.457   2.229  12.796  0.4190 -1.3309 -1.0973
16251TIP3    H270245   6.551   2.265  12.684  0.3238  1.0777 -0.4683
16252TIP3   OH270246   5.521   6.471   6.627 -0.1818  0.4580 -0.3304
16252TIP3    H170247   5.540   6.564   6.615 -1.3414  0.4364 -3.1435
16252TIP3    H270248   5.458   6.469   6.699 -0.3984  1.9267 -0.4321
16253TIP3   OH270249   5.383   4.651   3.551  0.6526 -0.0602 -0.0008
16253TIP3    H170250   5.287   4.654   3.557  0.5491 -2.8834  1.8647
16253TIP3    H270251   5.413   4.715   3.615  0.0274  0.8087 -0.5625
16254TIP3   OH270252   1.184   4.402  10.391  0.1429  0.2371  0.4455
16254TIP3    H170253   1.183   4.383  10.485  1.1876  1.8639  0.8154
16254TIP3    H270254   1.094   4.426  10.370 -0.2578 -0.8401  0.8528
16255TIP3   OH270255   2.664   0.323  14.182 -0.1207 -0.6772 -0.0789
16255TIP3    H170256   2.600   0.339  14.251  2.0543 -0.4068  2.0119
16255TIP3    H270257   2.744   0.366  14.213  1.0021 -0.6237 -2.7546
16256TIP3   OH270258   3.497   1.067  12.128  0.1773  0.6435  0.2551
16256TIP3    H170259   3.559   1.093  12.059  0.9455 -0.6129  0.4468
16256TIP3    H270260   3.427   1.021  12.081  0.5478  0.0552  0.2697
16257TIP3   OH270261   3.139   2.817   3.412 -0.1137 -0.0154  0.3109
16257TIP3    H170262   3.148   2.743   3.473 -0.7309 -0.3302  0.0324
16257TIP3    H270263   3.047   2.815   3.387  0.1212  0.1446 -0.5875
16258TIP3   OH270264   0.507   2.582  10.602  0.3327 -0.0930 -0.8967
16258TIP3    H170265   0.514   2.572  10.507 -1.9228  0.6926 -1.2128
16258TIP3    H270266   0.557   2.661  10.622 -0.0403  0.3260 -1.5997
16259TIP3   OH270267   1.941   5.786  10.872  0.5768 -0.0037 -0.3862
16259TIP3    H170268   1.975   5.758  10.956  0.8587  0.3688 -0.3742
16259TIP3    H270269   1.853   5.750  10.868 -0.2631  1.7687  0.9997
16260TIP3   OH270270   6.715   1.795   4.500 -0.2234  0.1013 -0.1614
16260TIP3    H170271   6.799   1.768   4.537 -0.9491  0.3249  1.7987
16260TIP3    H270272   6.724   1.888   4.484 -0.5798  0.5027  1.6720
16261TIP3   OH270273   2.299   3.109   2.142 -0.4567  0.2267 -0.5090
16261TIP3    H170274   2.278   3.139   2.054 -1.6988 -0.0409 -0.3198
16261TIP3    H270275   2.386   3.069   2.135 -0.2586  0.8106 -1.4588
16262TIP3   OH270276   6.079   1.156  11.914  0.2999 -0.0713 -0.0873
16262TIP3    H170277   6.091   1.163  11.819 -2.3560 -0.8732 -0.5656
16262TIP3    H270278   6.154   1.103  11.943  0.2902 -1.2628 -2.0265
16263TIP3   OH270279   2.251   3.889  10.420  0.0937  0.1109  0.5410
16263TIP3    H170280   2.327   3.890  10.362  0.9360  0.9715  1.6077
16263TIP3    H270281   2.272   3.822  10.485  0.6178  1.3316  1.6666
16264TIP3   OH270282   0.161   6.452   4.535 -0.0390 -0.0445  0.1661
16264TIP3    H170283   0.128   6.375   4.582  1.2274  0.0970  1.3671
16264TIP3    H270284   0.235   6.482   4.588 -1.2889  2.7996  0.4816
16265TIP3   OH270285   6.013   5.941   0.183 -0.3928  0.5134 -0.3049
16265TIP3    H170286   6.091   5.936   0.237 -0.0481  0.7852 -0.7718
16265TIP3    H270287   5.949   5.988   0.238 -0.5229 -0.4498  0.3987
16266TIP3   OH270288   3.383   4.719  15.275  0.3306 -0.7002  0.5762
16266TIP3    H170289   3.403   4.771  15.353  2.6281 -0.9923  0.2335
16266TIP3    H270290   3.293   4.743  15.254  0.9966  2.5546  0.8931
16267TIP3   OH270291   6.352   5.234   4.286 -0.2804 -0.2952 -0.1834
16267TIP3    H170292   6.401   5.170   4.338  1.2760  0.7819 -0.2644
16267TIP3    H270293   6.388   5.223   4.197 -2.1059 -1.3248 -0.8480
16268TIP3   OH270294   3.338   3.244  13.098 -0.1107 -0.7934 -0.5118
16268TIP3    H170295   3.333   3.264  13.004  1.9783 -0.1749 -0.5489
16268TIP3    H270296   3.391   3.164  13.102 -0.5112 -1.0280  0.1182
16269TIP3   OH270297   3.501   2.259   5.077  0.1078  0.1731  0.4658
16269TIP3    H170298   3.503   2.326   5.009 -3.6075  0.0159  0.0010
16269TIP3    H270299   3.497   2.308   5.159  1.1369  0.4182  0.3780
16270TIP3   OH270300   3.856   2.768   6.653  0.3831 -0.3876  0.7945
16270TIP3    H170301   3.796   2.705   6.691 -0.4342  0.4336  0.9072
16270TIP3    H270302   3.801   2.821   6.594  1.3802 -0.8907 -0.6567
16271TIP3   OH270303   3.605   0.830  14.265  0.4518 -0.1662  0.3276
16271TIP3    H170304   3.620   0.921  14.291 -0.0331 -0.3713  1.3874
16271TIP3    H270305   3.521   0.808  14.304  1.1741 -1.4741  1.1916
16272TIP3   OH270306   5.178   6.021   3.944 -0.6395 -0.0651  0.0491
16272TIP3    H170307   5.153   6.084   3.877 -1.6291  0.2530  0.6813
16272TIP3    H270308   5.212   5.946   3.896 -0.1697  0.6462 -0.7456
16273TIP3   OH270309   4.242   1.756  15.284 -0.0983 -0.3213 -0.5027
16273TIP3    H170310   4.289   1.673  15.274 -0.8092 -0.5417 -2.6053
16273TIP3    H270311   4.175   1.738  15.351 -2.1599 -2.4542 -2.9366
16274TIP3   OH270312   0.682   1.629   0.257  0.2077 -0.2731  0.2477
16274TIP3    H170313   0.690   1.571   0.181  1.3075  0.5100 -0.2756
16274TIP3    H270314   0.773   1.653   0.277 -0.1208  0.0254  1.4302
16275TIP3   OH270315   6.336   1.464  15.852 -0.1404  0.2153 -0.0159
16275TIP3    H170316   6.295   1.378  15.853  2.2195 -0.9924  1.1176
16275TIP3    H270317   6.325   1.496  15.762  0.2657 -1.9526 -0.8848
16276TIP3   OH270318   0.295   4.231  13.011 -0.4314 -0.3336  0.4038
16276TIP3    H170319   0.264   4.201  12.925  0.0563 -1.7024  0.6704
16276TIP3    H270320   0.288   4.153  13.067 -0.6945  0.5258  1.5997
16277TIP3   OH270321   3.138   1.832   2.475  0.0895  0.3827  0.1828
16277TIP3    H170322   3.087   1.775   2.533 -0.8252  1.7221  0.7529
16277TIP3    H270323   3.150   1.912   2.525  1.0525  0.8236 -0.7296
16278TIP3   OH270324   4.462   2.723   4.127 -0.2438 -0.3819  0.8056
16278TIP3    H170325   4.463   2.630   4.146  0.3250 -0.4245  0.5853
16278TIP3    H270326   4.449   2.729   4.032  2.6217 -0.3397  0.3401
16279TIP3   OH270327   1.533   2.040   1.511  0.0367  0.3399 -0.8676
16279TIP3    H170328   1.558   1.949   1.495  0.5923  0.2726  0.2881
16279TIP3    H270329   1.508   2.042   1.603  0.2877  1.4166 -0.8125
16280TIP3   OH270330   5.229   1.221   2.157 -0.0024  0.2700  0.4518
16280TIP3    H170331   5.279   1.299   2.133 -0.7541  1.4312  2.4052
16280TIP3    H270332   5.155   1.255   2.207 -1.0663 -1.6274  0.2337
16281TIP3   OH270333   1.581   0.969   5.631 -0.0843 -0.2166 -0.4829
16281TIP3    H170334   1.645   0.978   5.560  0.2117  0.0403 -0.1837
16281TIP3    H270335   1.526   1.047   5.624 -0.0049 -0.1514 -0.3787
16282TIP3   OH270336   2.500   1.546  11.046  0.2976  0.2775 -0.5179
16282TIP3    H170337   2.496   1.639  11.025  1.8484  0.7941  1.1974
16282TIP3    H270338   2.565   1.509  10.986  0.7810  0.6254 -0.2127
16283TIP3   OH270339   3.443   1.538   5.898 -0.0425  0.2769 -0.3413
16283TIP3    H170340   3.450   1.628   5.866  2.5954  0.1949 -0.2760
16283TIP3    H270341   3.415   1.546   5.989  1.4593  1.1688  0.0726
16284TIP3   OH270342   4.648   5.977  13.120  0.4332 -0.2221 -0.5607
16284TIP3    H170343   4.573   5.921  13.101  0.8665 -0.4113 -1.8698
16284TIP3    H270344   4.721   5.934  13.076  1.4879 -0.4512  1.3469
16285TIP3   OH270345   3.658   2.046  11.955 -0.0732 -0.2213  0.4080
16285TIP3    H170346   3.730   2.084  12.006 -0.0450 -0.6828  0.7131
16285TIP3    H270347   3.625   1.974  12.009 -0.0888 -0.6723 -0.1909
16286TIP3   OH270348   2.396   1.186   3.805  0.5631 -0.1430 -0.4631
16286TIP3    H170349   2.334   1.207   3.735 -1.2004  0.7950  1.2638
16286TIP3    H270350   2.373   1.097   3.831  0.1566  0.0597 -0.0954
16287TIP3   OH270351   3.665   2.397  15.887 -0.0024 -0.1008 -0.7086
16287TIP3    H170352   3.692   2.469  15.944 -0.3734 -0.1872 -0.4249
16287TIP3    H270353   3.701   2.319  15.929  2.9252  0.1119 -2.4739
16288TIP3   OH270354   0.661   5.259   4.347  0.4234 -0.1033  0.4537
16288TIP3    H170355   0.665   5.187   4.285  0.8328  0.0621  0.2798
16288TIP3    H270356   0.597   5.320   4.310  2.7502  1.4362 -1.4255
16289TIP3   OH270357   3.485   3.240   1.714 -0.0967 -0.7728 -0.4001
16289TIP3    H170358   3.439   3.267   1.794 -0.4144 -0.2675 -0.7430
16289TIP3    H270359   3.468   3.146   1.707 -1.4046 -0.5386 -0.7108
16290TIP3   OH270360   2.992   3.261   3.976  0.2672  0.2657 -0.2478
16290TIP3    H170361   2.955   3.349   3.962 -0.6730  0.1149  1.1093
16290TIP3    H270362   3.070   3.276   4.030  0.0580  0.2565  0.0562
16291TIP3   OH270363   2.465   4.221  16.392 -0.2664 -0.0984  0.4688
16291TIP3    H170364   2.503   4.134  16.394 -0.1641 -0.0442  1.1777
16291TIP3    H270365   2.450   4.239  16.299  1.3072 -0.1810  0.1658
16292TIP3   OH270366   3.536   6.648   3.326  0.0344 -0.3313 -0.5143
16292TIP3    H170367   3.579   6.575   3.282 -0.9052 -1.3385  0.1796
16292TIP3    H270368   3.446   6.645   3.296 -0.5016 -0.7182  1.0303
16293TIP3   OH270369   5.615   2.326  14.392 -0.0126 -0.2968 -0.7054
16293TIP3    H170370   5.682   2.381  14.433 -0.5751  1.6073 -2.1943
16293TIP3    H270371   5.623   2.345  14.298 -2.8732  0.3051 -0.8958
16294TIP3   OH270372   5.827   0.762  13.435 -0.1095  1.3225  0.0089
16294TIP3    H170373   5.742   0.771  13.391 -0.3846 -0.2535  0.1740
16294TIP3    H270374   5.890   0.751  13.363 -0.6049 -1.6167 -0.0813
16295TIP3   OH270375   0.070   1.420   3.663 -0.6631 -0.4020  0.1369
16295TIP3    H170376   0.071   1.441   3.570  0.0614 -0.0862  0.2090
16295TIP3    H270377   0.055   1.504   3.707 -1.8498 -0.6709  0.2851
16296TIP3   OH270378   4.745   3.182  12.628  0.5786 -0.0714 -0.0714
16296TIP3    H170379   4.697   3.119  12.681 -0.4420 -0.5429 -1.4720
16296TIP3    H270380   4.829   3.141  12.610 -0.7911 -2.1025 -2.6624
16297TIP3   OH270381   2.872   6.750   4.087  0.6391  0.2685 -0.3853
16297TIP3    H170382   2.964   6.731   4.072  0.9327  0.6289  0.8654
16297TIP3    H270383   2.857   6.835   4.045  0.5694 -0.3181 -1.5957
16298TIP3   OH270384   2.642   2.520  15.752  0.4282  0.5752  0.2472
16298TIP3    H170385   2.662   2.543  15.661  0.8468 -0.5314  0.0511
16298TIP3    H270386   2.564   2.572  15.772 -1.5711 -1.4223 -1.7612
16299TIP3   OH270387   5.103   0.987   6.119 -0.3491 -0.0729  0.6820
16299TIP3    H170388   5.048   0.956   6.192  1.1404 -2.2104  1.0053
16299TIP3    H270389   5.193   0.972   6.150  0.3938  1.5240 -0.5778
16300TIP3   OH270390   4.898   0.383   1.993 -0.6551 -0.1551 -0.4465
16300TIP3    H170391   4.841   0.306   1.984  0.9265 -1.2527 -1.6975
16300TIP3    H270392   4.860   0.432   2.066 -2.4917 -1.4275 -0.4640
16301TIP3   OH270393   1.488   0.864   2.711 -0.1996  0.1223 -0.3554
16301TIP3    H170394   1.515   0.956   2.717  1.4149 -0.3485  0.0179
16301TIP3    H270395   1.464   0.853   2.619 -0.1804  0.8577 -0.4593
16302TIP3   OH270396   0.477   1.489  13.746  0.0320  0.2806  0.0818
16302TIP3    H170397   0.496   1.485  13.839  0.7690  0.6501 -0.0502
16302TIP3    H270398   0.527   1.564  13.713 -1.3337  1.0433 -0.3564
16303TIP3   OH270399   1.512   4.046  16.520 -0.1929  0.2331 -0.2212
16303TIP3    H170400   1.489   3.959  16.486 -0.9220  1.5333 -3.4469
16303TIP3    H270401   1.468   4.051  16.605 -0.2761 -2.4426 -0.0177
16304TIP3   OH270402   2.327   3.028   0.508  0.0026  0.1042 -0.2846
16304TIP3    H170403   2.312   3.071   0.424  0.3965  0.7591 -0.0308
16304TIP3    H270404   2.318   3.098   0.572  1.5124  0.0141  0.0691
16305TIP3   OH270405   1.827   1.987  13.868  0.4733  0.1221 -0.0511
16305TIP3    H170406   1.857   1.917  13.926  0.5835 -0.0069 -0.2574
16305TIP3    H270407   1.739   1.960  13.841  0.1148  0.5704  0.6608
16306TIP3   OH270408   2.600   2.627   5.345 -0.3615 -0.0462  0.1156
16306TIP3    H170409   2.695   2.616   5.336 -0.4820 -0.0023 -1.5952
16306TIP3    H270410   2.583   2.716   5.314 -0.7233  0.8908  2.7609
16307TIP3   OH270411   1.370   5.892  15.521  0.5392  0.6587  0.5485
16307TIP3    H170412   1.437   5.849  15.574 -1.3596 -0.0178  2.5946
16307TIP3    H270413   1.287   5.870  15.565 -1.0688  1.2349 -1.9789
16308TIP3   OH270414   6.563   5.163   0.401 -0.4080 -0.3801 -0.1111
16308TIP3    H170415   6.593   5.118   0.480 -3.1365 -1.9289  0.1685
16308TIP3    H270416   6.572   5.099   0.331 -2.0494 -0.5733 -0.1820
16309TIP3   OH270417   0.689   0.947  15.433 -0.2444  0.1300  0.3790
16309TIP3    H170418   0.749   0.935  15.359 -0.1862 -0.5457  0.5266
16309TIP3    H270419   0.707   1.035  15.464  0.4174  0.0716  0.1846
16310TIP3   OH270420   5.672   2.765   5.819  0.2289 -0.0726  0.3912
16310TIP3    H170421   5.705   2.805   5.899 -0.5064  1.7004 -0.1584
16310TIP3    H270422   5.728   2.688   5.807 -0.2862 -0.9854  3.1275
16311TIP3   OH270423   2.184   3.739   1.010  0.1186  0.7188  0.4984
16311TIP3    H170424   2.141   3.770   1.089  0.1552 -0.0559  0.8405
16311TIP3    H270425   2.170   3.644   1.011  1.0598  0.5616  0.1563
16312TIP3   OH270426   0.741   6.331  11.178 -0.2948 -0.2499 -0.7269
16312TIP3    H170427   0.734   6.421  11.208  0.0356 -1.0053  1.9679
16312TIP3    H270428   0.829   6.324  11.141  0.2625  0.2235  0.4432
16313TIP3   OH270429   2.584   1.075   3.247  0.0342 -0.7367 -0.4651
16313TIP3    H170430   2.565   0.988   3.281 -1.9944 -1.0166 -2.0882
16313TIP3    H270431   2.545   1.136   3.310  1.7890 -0.9059  0.8736
16314TIP3   OH270432   3.521   6.768   5.637  0.2979 -0.5912 -0.1555
16314TIP3    H170433   3.513   6.769   5.732  1.1150 -2.6860 -0.0136
16314TIP3    H270434   3.548   6.679   5.616  1.7809  0.2612 -2.2221
16315TIP3   OH270435   1.309   1.842  16.222  0.3336 -0.2162 -0.1173
16315TIP3    H170436   1.303   1.805  16.310  0.3938  1.6074  0.6862
16315TIP3    H270437   1.262   1.925  16.227  1.4118  0.5263 -1.4635
16316TIP3   OH270438   6.301   0.031   5.059 -0.1837  0.0383  0.5808
16316TIP3    H170439   6.323  -0.003   5.145  0.1026 -0.0319  0.4806
16316TIP3    H270440   6.233  -0.028   5.026 -0.9813  0.6206  1.1485
16317TIP3   OH270441   0.798   5.255   0.860  0.3239 -0.5126 -0.2742
16317TIP3    H170442   0.856   5.266   0.936  0.4537  2.6300 -0.6749
16317TIP3    H270443   0.854   5.275   0.785 -0.3604 -1.3382 -1.0187
16318TIP3   OH270444   0.159   3.959   5.601 -0.5935 -0.9228 -0.0138
16318TIP3    H170445   0.204   3.885   5.562 -0.5145 -0.6756 -0.3957
16318TIP3    H270446   0.113   4.000   5.529  0.7506  0.4164 -0.1756
16319TIP3   OH270447   3.367   5.063  14.225 -0.4269 -0.1551 -0.4505
16319TIP3    H170448   3.378   4.979  14.270  0.6986  0.3310  0.2117
16319TIP3    H270449   3.291   5.103  14.268  0.7505  0.3956  1.2197
16320TIP3   OH270450   5.895   0.454   2.580  0.8059  0.0610  0.5813
16320TIP3    H170451   5.845   0.536   2.580  1.3244  0.3804  0.3892
16320TIP3    H270452   5.943   0.455   2.497 -1.6019 -1.9346 -0.9824
16321TIP3   OH270453   4.924   1.912  11.575 -0.5662 -0.1603 -0.0077
16321TIP3    H170454   4.921   1.859  11.495  0.7596 -1.0680  0.5090
16321TIP3    H270455   4.933   1.848  11.645 -3.0309  0.5181  1.0526
16322TIP3   OH270456   6.756   0.077  13.852 -0.3181  0.2818 -0.0103
16322TIP3    H170457   6.668   0.044  13.838 -0.0663  0.5363 -2.6398
16322TIP3    H270458   6.756   0.165  13.813  0.3871  1.4330  2.3876
16323TIP3   OH270459   2.300   5.234   0.966  0.2059 -0.0556  0.1954
16323TIP3    H170460   2.289   5.161   0.906 -0.0933 -0.5413  0.8252
16323TIP3    H270461   2.395   5.238   0.981  0.5019  1.3208 -1.8048
16324TIP3   OH270462   0.620   0.096  15.505  0.1648 -0.0214 -0.2280
16324TIP3    H170463   0.616   0.002  15.521  0.4728 -0.3740 -2.0030
16324TIP3    H270464   0.645   0.134  15.589 -0.2488 -1.4935  0.5862
16325TIP3   OH270465   4.022   4.591  13.352  0.1306 -0.4796  0.0359
16325TIP3    H170466   4.099   4.633  13.313 -0.5335 -0.0130 -0.8201
16325TIP3    H270467   3.952   4.604  13.287 -1.1634  0.7777  1.5841
16326TIP3   OH270468   5.707   2.662  13.979  0.0207 -0.0590  0.5110
16326TIP3    H170469   5.688   2.617  13.897  0.2907  1.9120 -0.6942
16326TIP3    H270470   5.621   2.689  14.012  0.0052  0.4370  0.0835
16327TIP3   OH270471   2.736   1.789  11.590 -0.3998  0.4555 -0.3020
16327TIP3    H170472   2.677   1.761  11.520 -0.7220  0.4010 -0.0133
16327TIP3    H270473   2.804   1.839  11.546  1.4952 -2.6126 -1.1515
16328TIP3   OH270474   2.769   5.281  11.665  0.1373 -0.3227  0.3891
16328TIP3    H170475   2.797   5.329  11.587 -1.2821  1.3301  0.8235
16328TIP3    H270476   2.758   5.191  11.635  0.1492  0.1628 -1.1884
16329TIP3   OH270477   2.125   0.824   4.574  0.0111 -0.4022 -0.0296
16329TIP3    H170478   2.083   0.740   4.590 -0.7515  0.0034  0.1716
16329TIP3    H270479   2.087   0.882   4.640  2.0873 -0.3893  1.2310
16330TIP3   OH270480   3.105   3.907   3.330  0.1242 -0.2799  0.4128
16330TIP3    H170481   3.198   3.913   3.348  0.2598 -2.4295  0.7070
16330TIP3    H270482   3.098   3.927   3.236  0.8506  0.0742  0.4257
16331TIP3   OH270483   0.973   2.736   3.785  0.2057 -0.0530  0.2676
16331TIP3    H170484   1.015   2.809   3.739 -0.1885  0.2775  0.4243
16331TIP3    H270485   1.044   2.675   3.802  0.9841  1.2233  1.9832
16332TIP3   OH270486   4.376   3.531   2.147 -0.4959 -0.0104 -0.2947
16332TIP3    H170487   4.373   3.607   2.205  0.2213 -0.0229 -0.2301
16332TIP3    H270488   4.285   3.503   2.139 -0.4139 -2.4899  4.1087
16333TIP3   OH270489   2.175   5.562   4.712 -0.3839  0.2953  0.2800
16333TIP3    H170490   2.207   5.490   4.658 -1.7614  1.7907 -2.7672
16333TIP3    H270491   2.245   5.577   4.776  1.4555 -1.4900 -1.1894
16334TIP3   OH270492   3.981   3.301   5.172  0.5893  0.1945 -0.2804
16334TIP3    H170493   3.987   3.225   5.231 -1.0507 -0.9920 -1.5541
16334TIP3    H270494   4.067   3.306   5.131  1.3050  0.1809  1.1606
16335TIP3   OH270495   2.970   2.688  12.140  0.0277  0.1665  0.0801
16335TIP3    H170496   2.899   2.728  12.090  0.4716 -0.9199 -1.4899
16335TIP3    H270497   3.030   2.654  12.073  0.5534 -1.5192  1.3429
16336TIP3   OH270498   2.390   2.812  14.038  0.2346  0.6013  0.1275
16336TIP3    H170499   2.423   2.745  13.978  0.0115  0.2991  0.3428
16336TIP3    H270500   2.373   2.887  13.982  2.0516  1.0510  0.1172
16337TIP3   OH270501   6.582   0.519   1.600  0.2785  0.6794  0.1950
16337TIP3    H170502   6.625   0.596   1.563  0.6410  0.2725 -0.2437
16337TIP3    H270503   6.636   0.445   1.572 -0.3486  0.2165  0.1765
16338TIP3   OH270504   0.863   2.451  16.863 -0.3428 -0.2154  0.1160
16338TIP3    H170505   0.957   2.442  16.878 -0.2370  1.6563  0.7935
16338TIP3    H270506   0.824   2.447  16.950 -0.4598  2.9469  0.3345
16339TIP3   OH270507   3.658   4.784   3.060 -0.1723  0.6881  0.6152
16339TIP3    H170508   3.589   4.787   2.994  0.8350 -0.2431 -0.5437
16339TIP3    H270509   3.619   4.739   3.134 -1.3256  1.7302  0.6566
16340TIP3   OH270510   1.891   1.988   2.918  0.9135 -0.0559 -0.4085
16340TIP3    H170511   1.968   2.043   2.935  0.5100  0.6289 -0.7759
16340TIP3    H270512   1.876   1.943   3.001  0.8481  0.9023  0.1205
16341TIP3   OH270513   3.075   3.424  11.858  0.1231  0.1068  0.2037
16341TIP3    H170514   3.139   3.387  11.919  2.0426 -0.3065 -1.9112
16341TIP3    H270515   3.066   3.515  11.884 -0.8485 -0.5434  2.4160
16342TIP3   OH270516   2.000   2.804  11.953  0.5001 -0.0309  0.5546
16342TIP3    H170517   2.013   2.731  12.013 -1.1548 -2.1639 -1.5218
16342TIP3    H270518   2.050   2.781  11.875 -0.0634  1.0536 -0.1578
16343TIP3   OH270519   4.540   1.079   5.978 -0.3447 -0.1464 -0.6287
16343TIP3    H170520   4.571   1.167   5.958 -1.4603  0.4487  0.2068
16343TIP3    H270521   4.563   1.028   5.900  1.2018  0.6268 -0.7274
16344TIP3   OH270522   3.931   2.097   3.036 -0.2855  0.2057  0.8565
16344TIP3    H170523   3.886   2.166   2.988  2.2402 -0.5900 -3.1470
16344TIP3    H270524   4.001   2.142   3.083 -1.5163  0.7610  2.2549
16345TIP3   OH270525   2.245   6.525  11.219  0.3102  0.2455 -0.4268
16345TIP3    H170526   2.259   6.610  11.260  0.0710 -0.1759  0.5595
16345TIP3    H270527   2.180   6.541  11.152  0.0176  0.7821 -0.0279
16346TIP3   OH270528   1.532   5.160   2.793 -0.1227  0.5209  0.2006
16346TIP3    H170529   1.610   5.208   2.764  0.0466  0.7072  0.9651
16346TIP3    H270530   1.460   5.202   2.746  0.1051  1.0814  0.3485
16347TIP3   OH270531   1.537   1.138  14.474 -0.1124 -0.2318  0.0677
16347TIP3    H170532   1.538   1.048  14.442 -2.4666  0.3470 -1.9494
16347TIP3    H270533   1.513   1.131  14.566 -4.2438 -1.6396 -0.9083
16348TIP3   OH270534   1.618   3.944  14.022 -0.0876 -0.2268 -0.3041
16348TIP3    H170535   1.665   4.025  14.002  0.9733 -1.2943 -2.3533
16348TIP3    H270536   1.530   3.974  14.047  1.2441  1.7515  2.7064
16349TIP3   OH270537   0.894   2.344   5.698 -0.5332 -0.2340 -0.2460
16349TIP3    H170538   0.949   2.420   5.716  1.1091 -1.0099 -1.6828
16349TIP3    H270539   0.952   2.269   5.712 -0.9542 -1.0636 -2.5900
16350TIP3   OH270540   2.578   0.564  17.111  0.1339 -0.0877 -0.5570
16350TIP3    H170541   2.492   0.533  17.141 -0.0011 -0.9436 -1.7835
16350TIP3    H270542   2.560   0.608  17.028  0.6308  1.4312  0.1099
16351TIP3   OH270543   6.522   0.998  16.075 -0.4564 -0.2328  0.1766
16351TIP3    H170544   6.501   0.952  15.994 -0.2514 -1.6602  0.9004
16351TIP3    H270545   6.603   0.956  16.105  0.5789  1.6216  0.1105
16352TIP3   OH270546   4.762   6.152  13.634  0.7255 -0.3092 -0.0712
16352TIP3    H170547   4.791   6.083  13.693  1.5327  0.8970  0.9946
16352TIP3    H270548   4.692   6.196  13.683 -0.6957 -1.1303 -1.2704
16353TIP3   OH270549   6.784   2.165  11.552  0.7758  0.7361  0.0363
16353TIP3    H170550   6.715   2.126  11.605  0.3589  2.3141  0.7168
16353TIP3    H270551   6.859   2.109  11.565  0.3125  0.3779  1.2924
16354TIP3   OH270552   2.241   0.232   1.770  0.2452  0.3514  0.0118
16354TIP3    H170553   2.194   0.155   1.803  0.6498  0.4296  0.8061
16354TIP3    H270554   2.243   0.292   1.845 -0.9563  1.5822 -0.8975
16355TIP3   OH270555   2.148   6.564  12.164 -0.3098 -0.5255  0.2116
16355TIP3    H170556   2.112   6.482  12.199 -2.5117  0.4020  0.2645
16355TIP3    H270557   2.087   6.590  12.095 -0.5030  1.7863  1.1507
16356TIP3   OH270558   6.075   0.646   2.403 -0.0786  0.0357  0.0451
16356TIP3    H170559   6.074   0.726   2.455 -2.3441  0.5103 -0.6323
16356TIP3    H270560   6.167   0.618   2.405  0.8199  2.6705  0.2305
16357TIP3   OH270561   5.586   2.492   1.511  0.2463 -0.1015  0.1873
16357TIP3    H170562   5.562   2.567   1.457  0.8543 -0.2060 -0.2324
16357TIP3    H270563   5.586   2.418   1.451  1.4975 -0.1213  0.1930
16358TIP3   OH270564   2.007   1.776   5.600 -0.9678  0.3925  0.2241
16358TIP3    H170565   2.055   1.726   5.534 -0.0427 -3.1477  3.2827
16358TIP3    H270566   1.916   1.750   5.588 -0.5147 -2.2261  1.6975
16359TIP3   OH270567   6.332   3.649   0.635  0.6540 -0.5313  0.2867
16359TIP3    H170568   6.299   3.679   0.719  0.4112 -0.2220  0.0857
16359TIP3    H270569   6.359   3.558   0.650 -0.0572 -0.7099  0.5218
16360TIP3   OH270570   3.373   1.325  12.144 -0.0909 -0.2179  0.5066
16360TIP3    H170571   3.403   1.234  12.144 -0.8569 -0.4770  0.1562
16360TIP3    H270572   3.330   1.336  12.059  0.0478  0.4907  0.5231
16361TIP3   OH270573   1.849   3.093   2.244 -0.3206 -0.2726 -0.4275
16361TIP3    H170574   1.867   3.147   2.321 -1.6562 -0.6101  0.1523
16361TIP3    H270575   1.925   3.034   2.238  2.0196  2.6167 -2.0415
16362TIP3   OH270576   0.873   2.620  15.446 -0.4030 -0.6716  0.0088
16362TIP3    H170577   0.868   2.604  15.352 -0.5240 -0.1484 -0.0791
16362TIP3    H270578   0.912   2.708  15.453 -0.7431 -0.5517  0.4387
16363TIP3   OH270579   3.243   1.978   1.625 -0.1827 -0.3511  0.0720
16363TIP3    H170580   3.263   1.902   1.679 -2.8725  0.4834  2.5292
16363TIP3    H270581   3.198   1.942   1.548 -1.1845 -1.2928  1.0724
16364TIP3   OH270582   4.841   1.369   3.040  0.2124  0.0755  0.0935
16364TIP3    H170583   4.794   1.287   3.032  1.4697 -1.0506  2.8105
16364TIP3    H270584   4.788   1.422   3.099 -0.4376  1.1567 -1.4000
16365TIP3   OH270585   1.255   3.007   4.971  1.1182  0.2210 -0.1847
16365TIP3    H170586   1.177   3.003   5.027  2.3150  0.3390  1.5625
16365TIP3    H270587   1.220   3.022   4.883 -0.8774 -0.7861  0.3741
16366TIP3   OH270588   0.194   3.072   5.581 -0.1924  0.6646 -0.2457
16366TIP3    H170589   0.194   3.168   5.576 -1.4360  0.6978  0.1280
16366TIP3    H270590   0.161   3.052   5.669  2.0112 -0.1104  0.4770
16367TIP3   OH270591   0.414   4.741  11.558 -0.5277  0.2433 -0.1197
16367TIP3    H170592   0.401   4.836  11.555  1.5299  0.5663 -0.8740
16367TIP3    H270593   0.469   4.727  11.635 -0.8280 -0.3574 -0.0081
16368TIP3   OH270594   1.321   2.413  15.635 -0.4580 -0.9687 -0.0325
16368TIP3    H170595   1.259   2.386  15.703 -1.9523 -2.7999 -1.9793
16368TIP3    H270596   1.271   2.472  15.579  1.2697  1.9590  1.2733
16369TIP3   OH270597   6.696   1.088   0.838  1.0168 -0.0125  0.1873
16369TIP3    H170598   6.754   1.074   0.763 -0.7405  0.0857 -1.2648
16369TIP3    H270599   6.638   1.011   0.838 -0.7471  1.2514 -0.2735
16370TIP3   OH270600   5.018   3.911  16.178  0.4029  0.1150  0.1746
16370TIP3    H170601   5.058   3.971  16.240  2.3074 -1.4784  0.6156
16370TIP3    H270602   4.961   3.855  16.232  2.1272 -1.3287  0.6217
16371TIP3   OH270603   3.847   4.385  14.416 -0.2627 -0.0414 -0.3115
16371TIP3    H170604   3.823   4.292  14.420  2.3500 -0.7644  0.2805
16371TIP3    H270605   3.845   4.406  14.322  0.2311 -1.0365 -0.5625
16372TIP3   OH270606   1.046   2.305   0.912  0.2463  0.5404 -0.3630
16372TIP3    H170607   1.029   2.320   1.005  0.7597  1.1590 -0.3609
16372TIP3    H270608   1.080   2.389   0.880 -0.6179  0.5763 -1.2737
16373TIP3   OH270609   5.569   5.238   3.647  0.4731  0.4106 -0.0467
16373TIP3    H170610   5.590   5.208   3.736  2.3980  1.0103 -0.2552
16373TIP3    H270611   5.557   5.332   3.656 -0.6283  0.3006 -0.2284
16374TIP3   OH270612   1.519   0.438  14.833  0.0966  0.3426 -0.3677
16374TIP3    H170613   1.437   0.429  14.785 -1.1431  0.7201  1.5668
16374TIP3    H270614   1.568   0.359  14.810 -2.5475 -2.0539  1.5215
16375TIP3   OH270615   4.168   6.009   2.838 -0.0597  0.6389 -0.4400
16375TIP3    H170616   4.135   5.920   2.828 -0.3625  0.9261 -2.3316
16375TIP3    H270617   4.249   5.999   2.888  0.7918 -0.9144 -2.0208
16376TIP3   OH270618   1.698   1.337  16.993  0.0603  0.4273  0.4274
16376TIP3    H170619   1.733   1.279  17.061  2.5706  0.6552 -0.5690
16376TIP3    H270620   1.741   1.308  16.913 -0.7174  1.9320 -0.5768
16377TIP3   OH270621   4.338   1.731   1.092 -0.2890 -0.3206  0.0966
16377TIP3    H170622   4.293   1.650   1.117 -1.1785 -0.3868 -1.5490
16377TIP3    H270623   4.411   1.738   1.153  2.3790 -4.6373 -2.1116
16378TIP3   OH270624   4.253   4.628  13.205 -0.4055  0.0256  0.0565
16378TIP3    H170625   4.282   4.717  13.224 -0.4119  0.3424 -1.3127
16378TIP3    H270626   4.226   4.631  13.113 -1.8521 -1.0121  0.4120
16379TIP3   OH270627   3.602   3.049  11.285 -0.1701  0.1767 -0.2406
16379TIP3    H170628   3.687   3.018  11.254 -0.6168 -0.1914 -1.1221
16379TIP3    H270629   3.540   2.981  11.260 -0.9037  0.9632 -0.6481
16380TIP3   OH270630   3.436   3.089  15.378 -0.0768 -0.2556  0.0544
16380TIP3    H170631   3.389   3.022  15.329  1.6502 -1.8863  0.5076
16380TIP3    H270632   3.401   3.082  15.467  0.9660 -1.4971  0.4014
16381TIP3   OH270633   0.807   6.490   0.385  0.0564 -0.5899 -0.2647
16381TIP3    H170634   0.740   6.558   0.400  1.4191  0.5712  0.8084
16381TIP3    H270635   0.877   6.536   0.339  2.3085 -0.4050  3.0029
16382TIP3   OH270636   2.916   0.223   2.224 -0.3482  0.1714  0.1415
16382TIP3    H170637   2.842   0.174   2.261 -0.5897  0.3824 -0.0646
16382TIP3    H270638   2.908   0.211   2.129 -1.0413  1.5097  0.0152
16383TIP3   OH270639   6.819   0.571   1.880 -0.3525 -0.0825  0.0034
16383TIP3    H170640   6.892   0.617   1.921 -0.1001 -1.4561  1.1494
16383TIP3    H270641   6.775   0.638   1.828  1.3885  0.9059 -0.2911
16384TIP3   OH270642   4.072   1.099  12.226 -0.2153 -0.4614  0.0569
16384TIP3    H170643   4.016   1.141  12.161  0.7955  0.9599  0.0567
16384TIP3    H270644   4.030   1.119  12.310  0.7980  1.5623  0.1482
16385TIP3   OH270645   5.202   4.910  14.954  0.3889 -0.4322  0.4774
16385TIP3    H170646   5.210   4.815  14.942  0.5887 -0.4729  0.9190
16385TIP3    H270647   5.266   4.931  15.022  0.2397 -0.0031  0.4875
16386TIP3   OH270648   6.461   1.598   0.065  0.1695 -0.2592 -0.1056
16386TIP3    H170649   6.437   1.571  -0.024  0.4313  2.8472 -1.2587
16386TIP3    H270650   6.431   1.689   0.071  0.9473 -0.0952  2.6966
16387TIP3   OH270651   2.383   5.164  14.586 -0.1828  0.4942  0.1508
16387TIP3    H170652   2.475   5.136  14.593 -0.7932 -1.6425  0.4276
16387TIP3    H270653   2.343   5.097  14.530 -2.1689 -0.2378  2.3177
16388TIP3   OH270654   3.935   2.499  12.078 -0.5480  0.0200 -0.2651
16388TIP3    H170655   3.905   2.558  12.009 -0.6822  1.0376  0.6359
16388TIP3    H270656   4.029   2.516  12.084 -0.7488  0.8970  0.6661
16389TIP3   OH270657   0.140   5.885   2.321 -0.0639  0.1907  0.6211
16389TIP3    H170658   0.157   5.949   2.390 -1.0370 -0.4062  1.4212
16389TIP3    H270659   0.086   5.818   2.362  0.1763 -0.6920 -0.4525
16390TIP3   OH270660   5.694   4.778   2.530  0.0630 -0.3777  0.1464
16390TIP3    H170661   5.686   4.763   2.624 -2.0645 -1.0003 -0.0767
16390TIP3    H270662   5.728   4.867   2.522 -1.2782  0.2842  1.4968
16391TIP3   OH270663   2.436   6.109   3.729  0.0794 -0.1935 -0.3370
16391TIP3    H170664   2.368   6.068   3.783 -0.5774  1.7048  0.3756
16391TIP3    H270665   2.496   6.149   3.792  1.0970 -0.6412 -0.9934
16392TIP3   OH270666   0.788   6.593   3.694  0.5478 -0.1892 -0.3565
16392TIP3    H170667   0.803   6.498   3.689  0.4227 -0.2731  0.6786
16392TIP3    H270668   0.747   6.615   3.610  0.4800 -1.0747 -0.5661
16393TIP3   OH270669   3.658   5.116  16.771 -0.2664 -0.3437  0.1049
16393TIP3    H170670   3.572   5.139  16.806  0.3719 -0.8644  2.1242
16393TIP3    H270671   3.717   5.119  16.847  0.9487 -2.8390 -0.6473
16394TIP3   OH270672   1.325   0.644   5.371 -0.2042 -0.1957  0.0190
16394TIP3    H170673   1.353   0.660   5.461 -0.4198 -0.2614  0.0995
16394TIP3    H270674   1.233   0.617   5.379 -0.5409  0.8116 -0.3062
16395TIP3   OH270675   5.977   3.368   5.685  0.7038  0.5138 -0.7674
16395TIP3    H170676   6.069   3.348   5.666  0.8866 -0.2320  0.7709
16395TIP3    H270677   5.927   3.319   5.620  1.3324 -0.9821 -0.1627
16396TIP3   OH270678   3.726   1.305  14.105  0.6868  1.0001  0.1114
16396TIP3    H170679   3.796   1.371  14.106  0.5479  1.2109 -1.4878
16396TIP3    H270680   3.667   1.335  14.036  0.1190 -0.3034  0.0162
16397TIP3   OH270681   2.707   1.723  15.988 -0.5233  0.3250 -0.1439
16397TIP3    H170682   2.760   1.749  16.064  0.5620  1.7831 -1.3403
16397TIP3    H270683   2.633   1.675  16.026  1.0749 -0.8603  1.6634
16398TIP3   OH270684   3.049   2.605   3.599  0.6706 -0.0928 -0.0615
16398TIP3    H170685   2.957   2.582   3.582  0.1684  1.4421  0.3723
16398TIP3    H270686   3.098   2.525   3.583 -0.7405 -0.9044 -0.4363
16399TIP3   OH270687   5.135   1.520   2.780 -0.1473  0.0799  0.0821
16399TIP3    H170688   5.139   1.484   2.869 -0.3091  2.1755  0.9983
16399TIP3    H270689   5.148   1.614   2.792 -1.1782  0.5486 -2.0289
16400TIP3   OH270690   3.554   6.698  16.585 -0.2295 -0.1435 -0.3528
16400TIP3    H170691   3.495   6.677  16.513 -1.1365 -1.2815  0.6684
16400TIP3    H270692   3.641   6.679  16.551 -0.6007 -0.2150 -1.3031
16401TIP3   OH270693   2.619   3.956   1.594  0.1013  0.4396 -0.1935
16401TIP3    H170694   2.590   4.045   1.613  0.9763  0.9382 -1.0950
16401TIP3    H270695   2.539   3.912   1.564 -0.2482  1.0509 -0.1940
16402TIP3   OH270696   4.813   2.914   5.028  0.8371 -0.1247 -0.0666
16402TIP3    H170697   4.767   2.974   5.087  2.3163  1.2772 -0.2624
16402TIP3    H270698   4.773   2.929   4.942 -1.0356 -1.8716  0.4122
16403TIP3   OH270699   2.800   2.052   0.692  1.0125  0.1743  0.0505
16403TIP3    H170700   2.849   2.039   0.773  1.3368 -0.5663 -0.2512
16403TIP3    H270701   2.729   1.988   0.697  0.8828  0.3033 -0.1306
16404TIP3   OH270702   2.067   3.289  13.331  0.0123  0.1295  0.2707
16404TIP3    H170703   2.157   3.289  13.297 -0.0347 -0.9002  0.1113
16404TIP3    H270704   2.063   3.367  13.386  1.5608 -0.6894  1.6553
16405TIP3   OH270705   5.858   0.681   0.712  0.2080  0.1095  0.7288
16405TIP3    H170706   5.798   0.669   0.639 -1.8738 -0.6732  2.4722
16405TIP3    H270707   5.872   0.776   0.717 -0.7229  0.2863  0.1579
16406TIP3   OH270708   5.122   4.574  15.719 -0.0763 -0.1239  0.1552
16406TIP3    H170709   5.203   4.565  15.670 -0.4451 -0.6365 -0.3710
16406TIP3    H270710   5.067   4.502  15.689 -1.0868  0.7651 -0.1918
16407TIP3   OH270711   0.202   4.791   4.525 -0.1907  0.4714 -0.1017
16407TIP3    H170712   0.250   4.768   4.445 -1.0622  1.4026 -0.9334
16407TIP3    H270713   0.110   4.783   4.500 -0.4768  0.9158  0.7776
16408TIP3   OH270714   3.970   0.629  15.863  0.7361 -0.1446 -0.4864
16408TIP3    H170715   4.004   0.632  15.953  1.8909 -0.9545 -0.8706
16408TIP3    H270716   4.049   0.624  15.809  0.0273 -0.4281 -1.5058
16409TIP3   OH270717   6.518   1.340   1.158  0.4401 -0.0963 -0.6283
16409TIP3    H170718   6.503   1.433   1.175 -0.4084 -0.4460  0.6632
16409TIP3    H270719   6.490   1.327   1.068 -0.0534  0.7699 -0.6067
16410TIP3   OH270720   1.846   3.380   1.690 -0.0791 -0.0405  0.2776
16410TIP3    H170721   1.882   3.429   1.616 -1.4861 -0.2253 -0.5685
16410TIP3    H270722   1.800   3.445   1.742  1.3700  0.1868  1.3326
16411TIP3   OH270723   2.504   2.986  16.822 -0.4402  0.9240  0.4888
16411TIP3    H170724   2.502   2.951  16.911 -0.4640  0.3938  0.2861
16411TIP3    H270725   2.428   2.946  16.779  0.0921  0.4450 -0.0313
16412TIP3   OH270726   4.993   4.584   5.992 -0.2391 -0.1603  0.2363
16412TIP3    H170727   5.072   4.533   5.977  0.6304  1.3798 -0.6640
16412TIP3    H270728   4.952   4.543   6.069 -0.4244 -3.0976 -1.3008
16413TIP3   OH270729   1.002   6.305  12.084  0.1767 -0.2623 -0.0315
16413TIP3    H170730   1.077   6.304  12.025 -0.1203  3.0326 -0.6900
16413TIP3    H270731   0.926   6.305  12.026 -0.2673 -0.9320  0.5304
16414TIP3   OH270732   0.670   4.079  12.440 -0.6862 -0.1380 -0.1048
16414TIP3    H170733   0.648   3.990  12.469 -1.5497 -0.0239 -0.3983
16414TIP3    H270734   0.586   4.118  12.416 -0.3393  0.8261  0.2049
16415TIP3   OH270735   2.198   0.603   3.953 -0.2271  0.4486 -0.0141
16415TIP3    H170736   2.106   0.614   3.979 -0.2367  2.0430 -0.6184
16415TIP3    H270737   2.245   0.671   4.001  0.6613 -0.3584  0.2944
16416TIP3   OH270738   3.327   2.012   2.784  0.3344 -0.4872  0.7605
16416TIP3    H170739   3.234   2.028   2.799  0.4429 -0.6231  1.6950
16416TIP3    H270740   3.337   2.013   2.689 -0.0961  2.4358  0.6588
16417TIP3   OH270741   0.035   0.306  11.730 -0.1669 -0.6344 -0.6192
16417TIP3    H170742   0.059   0.218  11.703 -0.4591 -0.7957 -0.3607
16417TIP3    H270743   0.056   0.309  11.824 -1.4388 -0.8879 -0.3061
16418TIP3   OH270744   6.553   6.231   0.927 -0.3847  0.0178  0.4668
16418TIP3    H170745   6.570   6.185   1.010  2.1717 -0.5179 -0.2762
16418TIP3    H270746   6.510   6.166   0.872 -0.7186 -0.0953  0.8529
16419TIP3   OH270747   4.993   4.192   2.198  0.1488  0.5504 -0.2833
16419TIP3    H170748   5.065   4.133   2.220  0.3537  1.2955  1.1171
16419TIP3    H270749   4.949   4.210   2.281 -1.7129  0.0758 -1.1186
16420TIP3   OH270750   0.760   5.513   2.225  0.2801  0.3328 -0.9082
16420TIP3    H170751   0.694   5.466   2.175  0.5409 -1.0537 -0.0252
16420TIP3    H270752   0.783   5.589   2.172 -2.6702  1.3863 -0.8175
16421TIP3   OH270753   0.455   3.604  15.436 -0.0605 -0.0742  0.7907
16421TIP3    H170754   0.497   3.646  15.361  2.9504 -1.2966  1.6486
16421TIP3    H270755   0.420   3.522  15.402  0.9635 -0.4442  0.5811
16422TIP3   OH270756   3.588   0.195   1.463 -0.0259  0.4247  0.4728
16422TIP3    H170757   3.510   0.252   1.461  0.7284  1.4776  0.2461
16422TIP3    H270758   3.655   0.245   1.416  0.2040 -1.3495 -1.2342
16423TIP3   OH270759   1.030   2.522  14.873  0.3899  0.0971  0.0789
16423TIP3    H170760   1.076   2.440  14.889  0.4760  0.1222 -0.0403
16423TIP3    H270761   0.958   2.497  14.814  0.2476  0.0574  0.2669
16424TIP3   OH270762   0.844   4.416   3.845  0.0622  0.0400  0.2206
16424TIP3    H170763   0.849   4.363   3.765  0.3044 -0.2134  0.4017
16424TIP3    H270764   0.779   4.372   3.899 -0.4882  0.5061 -0.0490
16425TIP3   OH270765   2.341   0.934   3.852 -0.4413  0.3830  0.1542
16425TIP3    H170766   2.282   0.894   3.789 -2.3888 -0.9190  2.5865
16425TIP3    H270767   2.392   0.861   3.888  0.7128  1.0998  0.0366
16426TIP3   OH270768   3.205   4.212   5.463 -0.4085 -0.1460  0.6501
16426TIP3    H170769   3.299   4.195   5.467 -0.3213  0.4026  1.4601
16426TIP3    H270770   3.164   4.127   5.478 -0.0452 -0.4528 -0.0832
16427TIP3   OH270771   1.911   4.510  14.445  0.4465 -0.2131 -0.2405
16427TIP3    H170772   1.898   4.551  14.359  2.6326  1.5796  0.1861
16427TIP3    H270773   2.006   4.508  14.456  0.2598 -1.7608  1.5599
16428TIP3   OH270774   3.964   1.638   6.374  0.0619  0.1090  0.6623
16428TIP3    H170775   3.949   1.700   6.303  1.0308  0.2872  0.6006
16428TIP3    H270776   3.965   1.691   6.454 -0.7594 -0.0552  0.7887
16429TIP3   OH270777   2.517   0.674  12.591  0.0488  0.3220  0.5325
16429TIP3    H170778   2.554   0.748  12.543  0.1130 -1.2528 -2.0801
16429TIP3    H270779   2.580   0.658  12.662  0.7985  1.8316  0.2548
16430TIP3   OH270780   6.683   4.165  12.440 -0.4392 -0.1841  0.0032
16430TIP3    H170781   6.682   4.233  12.372  3.2559 -0.2715 -0.3428
16430TIP3    H270782   6.678   4.214  12.523  0.6013  0.4220 -0.2751
16431TIP3   OH270783   0.584   2.736   5.842  0.0962 -0.2930 -0.2034
16431TIP3    H170784   0.551   2.647   5.834 -0.8121  0.0050  0.1496
16431TIP3    H270785   0.610   2.744   5.933 -1.0693  0.2141  0.0993
16432TIP3   OH270786   4.536   4.487   3.866  0.6289  0.1985 -0.0073
16432TIP3    H170787   4.496   4.510   3.782  1.9925 -1.3649 -1.1715
16432TIP3    H270788   4.630   4.497   3.851  0.9854 -1.4499  0.8465
16433TIP3   OH270789   2.066   2.259  14.873  0.0388 -0.9167 -1.1277
16433TIP3    H170790   2.084   2.334  14.816 -0.3251 -0.2363 -0.3827
16433TIP3    H270791   2.148   2.211  14.878  1.0058  0.7678  0.2707
16434TIP3   OH270792   5.971   4.866  16.246 -0.0423 -0.1111 -0.0771
16434TIP3    H170793   6.030   4.795  16.220 -1.2335 -0.8203 -1.0188
16434TIP3    H270794   5.915   4.826  16.313 -0.3194  0.1090 -0.1733
16435TIP3   OH270795   1.199   0.439  10.952 -0.3396 -0.3246 -0.6637
16435TIP3    H170796   1.205   0.473  10.862 -1.1411 -2.2353 -1.4992
16435TIP3    H270797   1.144   0.502  10.998  0.8709  1.2094 -1.2003
16436TIP3   OH270798   4.130   6.628   2.479  0.3777  0.2461  0.5549
16436TIP3    H170799   4.166   6.674   2.555  2.7583  1.6557 -1.2562
16436TIP3    H270800   4.100   6.544   2.514  0.2187  1.2990  3.2180
16437TIP3   OH270801   5.391   0.837  11.170  0.3097 -0.3036 -0.0054
16437TIP3    H170802   5.382   0.836  11.265  1.1670 -0.0166  0.0831
16437TIP3    H270803   5.395   0.930  11.147  0.0499 -0.3703 -0.3290
16438TIP3   OH270804   4.776   4.474  15.206 -0.3570 -0.2597 -0.0499
16438TIP3    H170805   4.695   4.425  15.194 -0.7035  0.2834  0.0340
16438TIP3    H270806   4.806   4.451  15.294 -0.2645 -0.6783 -0.1866
16439TIP3   OH270807   3.470   5.601   4.100 -0.3108  0.1383 -0.3563
16439TIP3    H170808   3.516   5.614   4.182  0.3334 -1.5843 -0.4121
16439TIP3    H270809   3.539   5.579   4.037 -0.8938  0.5365 -1.1536
16440TIP3   OH270810   0.404   0.973   5.042 -0.4159  0.0453 -0.5047
16440TIP3    H170811   0.480   0.915   5.046  1.0031  1.8078 -0.7142
16440TIP3    H270812   0.441   1.061   5.038 -2.4887  0.9787 -0.4201
16441TIP3   OH270813   6.118   6.622   0.284  0.6775  0.1893 -0.1925
16441TIP3    H170814   6.097   6.648   0.374  0.5857  0.8448 -0.3964
16441TIP3    H270815   6.195   6.675   0.262  0.7512 -0.0335 -0.4666
16442TIP3   OH270816   4.023   3.357  15.082 -0.1524 -0.5029 -0.3925
16442TIP3    H170817   4.099   3.320  15.037  1.1905 -0.3431  1.6363
16442TIP3    H270818   4.021   3.312  15.166 -1.3116  0.6963  0.2461
16443TIP3   OH270819   0.352   2.371  13.440 -0.0089 -0.4972  0.3181
16443TIP3    H170820   0.333   2.387  13.348  1.4462  1.1784  0.2628
16443TIP3    H270821   0.433   2.320  13.439  0.0981 -0.3379  0.6834
16444TIP3   OH270822   4.227   2.097   2.124  0.1586  0.3601  0.5069
16444TIP3    H170823   4.293   2.152   2.165  0.6052  0.8389 -0.8164
16444TIP3    H270824   4.188   2.152   2.056 -1.9798  0.2804  1.5719
16445TIP3   OH270825   1.329   1.264   6.486 -0.0649  0.1666 -0.3333
16445TIP3    H170826   1.331   1.337   6.424 -1.6908  1.3099  0.8834
16445TIP3    H270827   1.239   1.260   6.516 -0.6134 -3.7913 -1.9200
16446TIP3   OH270828   2.046   2.901   5.411  0.2030  0.2135 -0.0213
16446TIP3    H170829   2.094   2.826   5.444  0.7968  0.7935  0.4644
16446TIP3    H270830   2.064   2.971   5.474 -0.3470  0.7617 -0.4551
16447TIP3   OH270831   6.495   6.794  12.780  0.8955 -0.2852 -0.4438
16447TIP3    H170832   6.535   6.728  12.723 -1.3033 -1.4193 -0.7809
16447TIP3    H270833   6.483   6.749  12.863 -0.7005 -0.4168 -0.7011
16448TIP3   OH270834   4.679   1.549   6.351  0.1016  0.2578  0.0082
16448TIP3    H170835   4.622   1.511   6.417  1.0059  3.2718  2.7533
16448TIP3    H270836   4.619   1.583   6.284 -1.0127 -0.3680  0.6634
16449TIP3   OH270837   6.593   5.865  12.104 -0.3082 -0.4103  0.4312
16449TIP3    H170838   6.540   5.884  12.182 -0.9452  1.6401 -0.4422
16449TIP3    H270839   6.543   5.902  12.032 -0.3453 -3.3290 -1.2146
16450TIP3   OH270840   5.197   0.181   3.889 -0.0603 -0.1424 -0.0148
16450TIP3    H170841   5.270   0.183   3.951  0.0616  0.9940 -0.1630
16450TIP3    H270842   5.131   0.238   3.928 -0.5963 -0.6372 -0.1984
16451TIP3   OH270843   4.176   1.995   3.493 -0.3741 -0.0700  0.6332
16451TIP3    H170844   4.149   1.933   3.425  0.7366  0.3624 -0.2452
16451TIP3    H270845   4.269   1.976   3.507 -0.4878  0.1365  1.7360
16452TIP3   OH270846   1.657   3.320   3.151  0.2350  0.4080  0.0233
16452TIP3    H170847   1.608   3.352   3.227  0.4053  0.1025  0.2629
16452TIP3    H270848   1.633   3.228   3.144  0.1384  0.4589 -0.3614
16453TIP3   OH270849   3.369   6.330  14.346 -0.3173 -0.7814 -0.0434
16453TIP3    H170850   3.316   6.333  14.267  0.4819 -0.2057 -0.5625
16453TIP3    H270851   3.309   6.300  14.414 -0.9240 -1.6432 -0.9351
16454TIP3   OH270852   6.610   2.131   4.638  0.0503 -0.1943 -0.3529
16454TIP3    H170853   6.687   2.112   4.584  0.3383  1.3581 -0.5334
16454TIP3    H270854   6.639   2.113   4.727  0.6397  0.3343 -0.4217
16455TIP3   OH270855   5.918   6.480   5.055  0.0893  0.1813 -0.0391
16455TIP3    H170856   5.824   6.494   5.042  0.3488  0.2667 -2.1094
16455TIP3    H270857   5.923   6.423   5.132 -1.5281  2.0183  1.5161
16456TIP3   OH270858   2.346   1.358   2.713  0.2463 -0.4600 -1.4539
16456TIP3    H170859   2.432   1.332   2.745 -0.2230 -1.8721 -1.2706
16456TIP3    H270860   2.340   1.317   2.626 -0.7096 -1.3974 -0.9591
16457TIP3   OH270861   2.401   3.050  12.411 -0.7317 -0.0373  1.0056
16457TIP3    H170862   2.336   3.053  12.341 -1.6419 -0.1919  1.8205
16457TIP3    H270863   2.442   3.136  12.410  0.2387 -0.4685 -0.5785
16458TIP3   OH270864   0.755   1.905  13.640 -0.8990 -1.1838  0.8931
16458TIP3    H170865   0.764   1.988  13.688 -1.5084 -0.8112  0.3832
16458TIP3    H270866   0.778   1.838  13.704 -2.2118 -0.7329  1.8852
16459TIP3   OH270867   5.024   6.324  15.309  0.5440  0.0492 -0.5078
16459TIP3    H170868   5.073   6.368  15.379 -3.5978  1.0884  2.0803
16459TIP3    H270869   4.991   6.395  15.254 -1.7161 -0.1333  0.5188
16460TIP3   OH270870   6.654   1.393  16.823  0.0127  0.4737  0.7160
16460TIP3    H170871   6.594   1.456  16.863 -0.6604 -0.8617  1.9133
16460TIP3    H270872   6.714   1.368  16.894 -0.0489 -0.5855  0.4215
16461TIP3   OH270873   3.105   1.954   0.103 -0.1324 -0.2905  0.2093
16461TIP3    H170874   3.062   2.023   0.052  0.9935  0.1184 -0.2199
16461TIP3    H270875   3.086   1.873   0.054 -0.0445 -0.0552 -0.2190
16462TIP3   OH270876   6.341   4.839   5.794  0.2535  0.6588  0.1449
16462TIP3    H170877   6.411   4.865   5.735 -0.5801 -2.2349 -2.3280
16462TIP3    H270878   6.289   4.919   5.806  0.7548  1.5092 -2.7019
16463TIP3   OH270879   1.431   2.659   1.304  0.2294 -0.1386 -0.1588
16463TIP3    H170880   1.394   2.683   1.389  2.0787  2.7716 -0.0661
16463TIP3    H270881   1.457   2.567   1.315 -2.5768 -0.9048  1.2238
16464TIP3   OH270882   0.629   3.745   5.428  0.4857  0.2539  0.1680
16464TIP3    H170883   0.579   3.799   5.367  0.4974 -1.4461 -1.4254
16464TIP3    H270884   0.591   3.657   5.418  0.2770 -0.0482  2.8566
16465TIP3   OH270885   0.862   0.297  15.168 -0.2577 -0.1134  0.7705
16465TIP3    H170886   0.780   0.251  15.150 -0.6832  0.1221  2.0317
16465TIP3    H270887   0.929   0.241  15.128 -1.0061 -0.3246 -0.2494
16466TIP3   OH270888   6.307   1.333  13.657  0.2023 -0.1760 -0.2175
16466TIP3    H170889   6.231   1.340  13.599 -1.6295  0.6895  2.1368
16466TIP3    H270890   6.281   1.268  13.723  1.5508  0.0869  0.6052
16467TIP3   OH270891   3.423   5.638  12.579 -0.3750  0.0839 -0.2669
16467TIP3    H170892   3.436   5.688  12.499  2.3006  1.7543  1.0427
16467TIP3    H270893   3.489   5.673  12.639 -1.9582 -1.4082  2.5185
16468TIP3   OH270894   0.277   3.061   1.449 -0.3649 -0.0154 -0.5022
16468TIP3    H170895   0.244   3.006   1.378  0.8825 -0.1221 -1.0278
16468TIP3    H270896   0.355   3.015   1.482  0.5276  1.2515 -0.7601
16469TIP3   OH270897   4.758   3.433   2.587  0.0040 -0.9443  0.0736
16469TIP3    H170898   4.784   3.372   2.517  1.8166 -1.0281  0.7691
16469TIP3    H270899   4.791   3.392   2.667 -0.5349 -0.0146  0.7777
16470TIP3   OH270900   1.155   1.830   2.501 -0.3245  0.0040 -0.2447
16470TIP3    H170901   1.213   1.781   2.443 -0.7437  1.4185 -1.9447
16470TIP3    H270902   1.120   1.765   2.561  0.2220 -1.5068 -1.5040
16471TIP3   OH270903   5.916   4.727   3.756  0.1169 -0.0310  0.3967
16471TIP3    H170904   5.954   4.653   3.708  1.2605 -0.6809  2.2145
16471TIP3    H270905   5.895   4.791   3.688  0.1610 -1.5505 -1.1151
16472TIP3   OH270906   1.419   6.177  16.647 -0.1074  0.3613 -0.0478
16472TIP3    H170907   1.340   6.227  16.628  1.0832  2.2175 -0.2995
16472TIP3    H270908   1.445   6.205  16.735  0.4048 -0.0607 -0.0562
16473TIP3   OH270909   4.924   5.650  13.147 -0.3122  0.2858 -0.3302
16473TIP3    H170910   4.874   5.591  13.203 -1.3532  2.3135  1.0283
16473TIP3    H270911   4.874   5.656  13.066 -0.1587 -0.7092 -0.5059
16474TIP3   OH270912   3.037   6.628   0.208 -0.1650 -0.5468  0.1707
16474TIP3    H170913   3.065   6.658   0.295 -0.1089 -0.4455  0.1182
16474TIP3    H270914   3.048   6.533   0.210  0.8511 -0.4443 -0.0886
16475TIP3   OH270915   4.121   4.453   1.189  0.3019 -0.0743 -0.0900
16475TIP3    H170916   4.043   4.509   1.188  0.7293  0.6561 -3.7074
16475TIP3    H270917   4.087   4.365   1.171  0.0690 -0.2790  1.2620
16476TIP3   OH270918   1.537   5.184  16.319 -0.1385 -0.6706  0.0731
16476TIP3    H170919   1.543   5.233  16.237 -1.7716  0.3358  0.5027
16476TIP3    H270920   1.444   5.174  16.334  0.1474 -1.7041  1.3299
16477TIP3   OH270921   2.911   3.965   1.714  0.1844 -0.0335  0.0415
16477TIP3    H170922   2.948   3.933   1.796 -2.0964 -1.1981  0.6856
16477TIP3    H270923   2.876   3.886   1.672 -1.4043  0.9687 -0.5734
16478TIP3   OH270924   4.226   0.963   1.729 -0.5917  0.0723  0.1573
16478TIP3    H170925   4.189   0.885   1.689 -1.9055 -0.5211  2.3622
16478TIP3    H270926   4.247   0.936   1.818  1.6608  1.4768  0.1237
16479TIP3   OH270927   0.029   5.276   2.050 -0.2895 -0.5478  0.4102
16479TIP3    H170928   0.023   5.228   1.967  0.3691 -0.1113  0.1095
16479TIP3    H270929  -0.061   5.274   2.084 -1.4141  2.2466 -1.9860
16480TIP3   OH270930   5.392   4.127  11.487 -0.1005 -0.2383  1.0587
16480TIP3    H170931   5.374   4.035  11.470  0.2102  0.1456 -1.7278
16480TIP3    H270932   5.480   4.141  11.454 -0.8478  1.4556 -0.3619
16481TIP3   OH270933   0.762   5.711  16.105  0.1295  0.2491 -0.7268
16481TIP3    H170934   0.750   5.617  16.114  0.3169  0.1272 -1.6663
16481TIP3    H270935   0.783   5.724  16.013 -0.0322  1.2255 -0.6395
16482TIP3   OH270936   1.170   3.031   1.813 -0.6030 -0.2986  0.2971
16482TIP3    H170937   1.133   3.107   1.857  0.4916  1.1915 -1.2221
16482TIP3    H270938   1.246   3.007   1.866  1.2043  1.9993 -1.0544
16483TIP3   OH270939   4.168   4.119  14.152 -0.1035  0.3672 -0.7031
16483TIP3    H170940   4.187   4.050  14.216  1.7948  0.3999 -1.1661
16483TIP3    H270941   4.074   4.135  14.161  0.3205  1.5981  3.3064
16484TIP3   OH270942   3.442   3.039  16.816 -0.1466 -0.2135  0.1730
16484TIP3    H170943   3.351   3.018  16.834  0.1589 -1.2942  0.5572
16484TIP3    H270944   3.471   3.089  16.892  0.0460 -1.3865  0.9008
16485TIP3   OH270945   5.855   2.576   1.198  0.1841  0.5552 -0.3288
16485TIP3    H170946   5.943   2.541   1.186  0.6643  1.9363 -1.0642
16485TIP3    H270947   5.852   2.654   1.142 -1.0597  1.2845  0.6863
16486TIP3   OH270948   6.038   2.255   2.397  0.3471 -0.5263  0.7416
16486TIP3    H170949   6.088   2.178   2.424 -0.0542 -1.1952 -0.3560
16486TIP3    H270950   5.964   2.220   2.348  2.3210  0.5359 -3.5609
16487TIP3   OH270951   3.513   3.472   1.096  0.4473  1.2643 -0.1624
16487TIP3    H170952   3.534   3.399   1.037 -1.4325  0.1237  0.4881
16487TIP3    H270953   3.587   3.532   1.087  2.6660 -1.2290  0.1491
16488TIP3   OH270954   0.205   4.451   0.333  0.6629 -0.0846  0.6846
16488TIP3    H170955   0.191   4.398   0.254  0.8761  0.2913  0.3897
16488TIP3    H270956   0.201   4.542   0.302  1.2529  0.0609  1.0079
16489TIP3   OH270957   2.546   6.426  16.432  0.0286  0.5159  0.2609
16489TIP3    H170958   2.468   6.371  16.423  0.8341 -0.4608 -1.1577
16489TIP3    H270959   2.514   6.507  16.471 -1.6992  0.1551 -0.3155
16490TIP3   OH270960   3.614   5.049  11.556 -0.3286  0.8982  0.0621
16490TIP3    H170961   3.592   4.982  11.621 -0.8371  0.2499 -0.7511
16490TIP3    H270962   3.568   5.127  11.585 -0.9969  0.4644  0.2027
16491TIP3   OH270963   4.588   3.922   5.018 -0.1311 -0.2124  0.2360
16491TIP3    H170964   4.511   3.952   5.066  0.4584  0.1413  0.9998
16491TIP3    H270965   4.608   3.836   5.056  0.6645  0.3066  1.0698
16492TIP3   OH270966   3.028   4.510  15.043  0.1363  0.7867  0.3731
16492TIP3    H170967   2.939   4.539  15.064  0.6034  1.3403  1.7617
16492TIP3    H270968   3.070   4.498  15.129  1.0336 -0.6823 -0.2265
16493TIP3   OH270969   5.041   4.543  11.992  0.4348 -0.1904 -0.7857
16493TIP3    H170970   5.013   4.581  11.909  2.4059 -0.9738 -1.8943
16493TIP3    H270971   5.037   4.615  12.054  2.0996  1.3666 -2.3507
16494TIP3   OH270972   2.285   6.838  13.626  0.0040  0.0947  0.0988
16494TIP3    H170973   2.265   6.848  13.533  0.1316  0.4916  0.1112
16494TIP3    H270974   2.342   6.762  13.629  0.3706  0.3484 -0.2067
16495TIP3   OH270975   3.592   2.753   3.257  0.0966  0.4168  0.2031
16495TIP3    H170976   3.582   2.661   3.282 -0.6790 -0.1024 -1.8323
16495TIP3    H270977   3.652   2.752   3.182 -0.0756  1.5487  0.0270
16496TIP3   OH270978   5.956   0.478  10.582  0.1782 -0.4096  0.0781
16496TIP3    H170979   6.023   0.454  10.518 -0.3297  1.5905 -1.3252
16496TIP3    H270980   5.987   0.562  10.618 -0.8582 -0.1792  0.4641
16497TIP3   OH270981   1.530   0.518   3.070  0.1670 -0.1535  0.6294
16497TIP3    H170982   1.600   0.519   3.004  0.7716 -0.4167  1.2558
16497TIP3    H270983   1.486   0.602   3.058  0.6738  0.0802  0.3161
16498TIP3   OH270984   3.838   1.319  15.183  0.1613 -0.1294  0.3984
16498TIP3    H170985   3.880   1.254  15.238  1.2578 -1.1428 -1.5275
16498TIP3    H270986   3.911   1.366  15.142 -0.6034  0.3737 -0.4270
16499TIP3   OH270987   3.867   0.421  14.742 -0.9419  0.7414  0.0686
16499TIP3    H170988   3.836   0.459  14.660 -0.8913  0.8164  0.0836
16499TIP3    H270989   3.962   0.431  14.739 -0.9147  0.4449 -0.0081
16500TIP3   OH270990   2.587   5.425   1.477  0.2483 -0.3423  0.5876
16500TIP3    H170991   2.666   5.453   1.523  0.4180  0.2436 -0.0378
16500TIP3    H270992   2.601   5.332   1.460  1.3090 -0.0241 -0.4575
16501TIP3   OH270993   1.221   0.789   0.479  0.2368  0.1782  0.0180
16501TIP3    H170994   1.314   0.785   0.457 -0.2102  0.7780 -2.2714
16501TIP3    H270995   1.176   0.762   0.399 -1.5779  0.4610  0.8832
16502TIP3   OH270996   4.054   6.633   1.895  0.1976  0.2733  0.7334
16502TIP3    H170997   4.031   6.586   1.815  1.1386  0.4689  0.3357
16502TIP3    H270998   3.971   6.644   1.941 -0.4800  0.8041 -0.5615
16503TIP3   OH270999   4.058   6.777  12.198 -0.3540  0.6530  0.0451
16503TIP3    H171000   4.005   6.722  12.140 -0.1665  0.3215  0.1818
16503TIP3    H271001   4.016   6.863  12.196  1.1261  1.4604 -2.6856
16504TIP3   OH271002   1.303   1.726  14.367  0.1223  0.5268  0.0367
16504TIP3    H171003   1.229   1.702  14.311 -0.2260 -2.0112  1.4246
16504TIP3    H271004   1.373   1.747  14.305 -1.4341  2.0846 -1.3020
16505TIP3   OH271005   2.409   1.249  13.644 -0.5630  0.0226 -0.6999
16505TIP3    H171006   2.382   1.181  13.705 -0.4338 -0.0778 -0.7554
16505TIP3    H271007   2.450   1.316  13.700 -0.0177 -0.2831 -0.7245
16506TIP3   OH271008   1.341   4.838   5.113  0.2229  0.8491  0.6685
16506TIP3    H171009   1.273   4.901   5.136 -1.1315 -0.6366  0.8707
16506TIP3    H271010   1.298   4.779   5.051  2.5558  2.3375 -2.6718
16507TIP3   OH271011   0.046   0.706  15.457 -0.6716 -0.4067 -0.7052
16507TIP3    H171012  -0.039   0.717  15.500 -0.9387 -0.0296 -1.3348
16507TIP3    H271013   0.107   0.751  15.514 -0.5015 -2.5899  0.9951
16508TIP3   OH271014   3.748   0.775   1.279  0.5263  0.7972 -0.2795
16508TIP3    H171015   3.708   0.699   1.237  0.2468  0.4497  0.5863
16508TIP3    H271016   3.801   0.737   1.350  2.3565  1.2356 -1.3413
16509TIP3   OH271017   2.260   6.408  15.935 -0.1278 -0.3998  0.2849
16509TIP3    H171018   2.188   6.472  15.934 -1.2888 -1.6720 -0.0351
16509TIP3    H271019   2.308   6.427  16.016 -1.1565  0.1055  0.7962
16510TIP3   OH271020   6.142   1.589   3.234 -0.3575 -0.2690 -0.2778
16510TIP3    H171021   6.193   1.656   3.190  0.9073 -0.6928  0.5121
16510TIP3    H271022   6.092   1.547   3.164 -0.1056  0.5638 -0.9648
16511TIP3   OH271023   6.184   3.607   2.288 -0.6089  0.3556  0.0854
16511TIP3    H171024   6.141   3.649   2.213  2.9009  2.4824 -0.9712
16511TIP3    H271025   6.227   3.530   2.252 -0.2470  0.4777  0.2507
16512TIP3   OH271026   1.511   4.201  14.059  0.1344  0.1957 -0.0446
16512TIP3    H171027   1.495   4.287  14.099  0.9332 -0.2198  1.2530
16512TIP3    H271028   1.487   4.212  13.967 -0.2637  1.6590  0.2062
16513TIP3   OH271029   0.882   1.383   4.539 -0.0549 -0.0749 -0.2756
16513TIP3    H171030   0.940   1.306   4.533  0.8482  0.6802 -1.8171
16513TIP3    H271031   0.830   1.367   4.618  1.2755 -1.4691  0.3821
16514TIP3   OH271032   3.246   5.224  12.086  0.1146  0.1334  0.1009
16514TIP3    H171033   3.283   5.300  12.130  1.3160  0.2495 -1.0171
16514TIP3    H271034   3.221   5.164  12.157  0.5542  0.9436  0.9560
16515TIP3   OH271035   0.876   4.988   4.237  0.2042 -0.2765 -0.2047
16515TIP3    H171036   0.941   4.976   4.168  1.0512 -1.3560  0.7291
16515TIP3    H271037   0.806   5.039   4.197  1.0189 -0.2455 -1.6275
16516TIP3   OH271038   0.421   3.764  10.444 -0.0601 -0.2957  0.1274
16516TIP3    H171039   0.333   3.727  10.433 -0.5519  0.5389  1.1162
16516TIP3    H271040   0.452   3.728  10.527  0.0774  0.2637  0.3246
16517TIP3   OH271041   4.894   2.263   5.377  0.1316 -0.2197  0.7841
16517TIP3    H171042   4.879   2.348   5.418 -0.0518  0.1820 -0.0771
16517TIP3    H271043   4.854   2.200   5.436 -2.1798  0.5284  0.1261
16518TIP3   OH271044   6.427   6.172   2.271  0.3005 -0.2388 -0.3599
16518TIP3    H171045   6.357   6.233   2.298 -0.8322 -1.2609 -0.8869
16518TIP3    H271046   6.452   6.203   2.184 -0.2916 -0.5231 -0.6386
16519TIP3   OH271047   0.471   1.978   0.000  0.1766 -0.5386 -0.2738
16519TIP3    H171048   0.492   2.071   0.008  0.4401 -0.4234 -1.9974
16519TIP3    H271049   0.557   1.936  -0.010  0.1965 -1.1971  1.9485
16520TIP3   OH271050   2.431   2.723   5.720  0.0624 -0.0425 -0.4524
16520TIP3    H171051   2.382   2.713   5.802  0.1494 -0.2934 -0.4298
16520TIP3    H271052   2.416   2.813   5.694  1.2421  0.4990  0.6275
16521TIP3   OH271053   3.857   5.929   5.320 -0.1844 -0.3284 -0.0330
16521TIP3    H171054   3.833   5.850   5.271 -0.7658 -0.8167  0.9963
16521TIP3    H271055   3.774   5.962   5.354 -0.1079  1.4062 -1.3684
16522TIP3   OH271056   6.176   5.636   1.298  0.5589  0.0403 -0.3333
16522TIP3    H171057   6.256   5.585   1.307 -0.6255 -1.6397  1.9577
16522TIP3    H271058   6.132   5.626   1.383 -2.1121  0.7841 -1.5088
16523TIP3   OH271059   6.420   5.596  14.455  0.4378 -0.3458 -0.5227
16523TIP3    H171060   6.395   5.545  14.377  0.4075 -1.3022  0.0951
16523TIP3    H271061   6.342   5.648  14.475 -0.3911 -1.7866  0.1837
16524TIP3   OH271062   6.265   4.417   4.657 -0.1736 -0.5614 -0.0608
16524TIP3    H171063   6.223   4.490   4.613  0.0233 -0.0884  0.5288
16524TIP3    H271064   6.210   4.341   4.635  1.1923 -0.8298 -3.0514
16525TIP3   OH271065   4.260   4.391   0.797 -0.0236 -0.4081  0.1822
16525TIP3    H171066   4.280   4.435   0.879 -0.3836 -0.9576  0.5676
16525TIP3    H271067   4.166   4.401   0.785 -0.2138 -1.5502  0.5712
16526TIP3   OH271068   6.615   6.822  14.791 -0.0549  0.2275  0.2029
16526TIP3    H171069   6.675   6.756  14.757  0.9565  0.6758  1.0830
16526TIP3    H271070   6.556   6.772  14.849 -0.1048 -0.1024 -0.1270
16527TIP3   OH271071   3.247   3.832  14.060  0.6135  0.0377  0.2768
16527TIP3    H171072   3.166   3.793  14.027 -0.3655  2.5567 -0.5008
16527TIP3    H271073   3.274   3.774  14.131 -0.5014 -2.2246 -1.0207
16528TIP3   OH271074   4.678   4.699   4.357 -0.2393  0.3247  0.0131
16528TIP3    H171075   4.610   4.701   4.290 -0.0859  0.2504 -0.1453
16528TIP3    H271076   4.675   4.610   4.392  1.1731 -0.3515 -1.4439
16529TIP3   OH271077   3.409   5.347   3.218 -0.3773 -0.3556  0.1229
16529TIP3    H171078   3.479   5.290   3.250  0.4237  0.5162  0.0038
16529TIP3    H271079   3.447   5.389   3.140 -1.7135 -1.2478 -1.0463
16530TIP3   OH271080   3.447   3.192   4.391  0.2943  0.1746  0.3434
16530TIP3    H171081   3.492   3.256   4.335  0.8584 -0.6038 -0.1059
16530TIP3    H271082   3.357   3.224   4.396  0.4408  0.7167 -0.3124
16531TIP3   OH271083   5.979   0.298   0.946  0.1004 -0.2461 -0.3957
16531TIP3    H171084   6.035   0.255   1.011  1.1958 -0.0622 -1.1969
16531TIP3    H271085   5.962   0.231   0.880  2.8413  0.7618 -2.3008
16532TIP3   OH271086   0.226   4.172  14.787  0.0859  0.6029 -0.4289
16532TIP3    H171087   0.212   4.256  14.832  0.7464  0.4829  0.0277
16532TIP3    H271088   0.174   4.109  14.837  0.3587  0.5751 -0.1731
16533TIP3   OH271089   6.591   5.874   1.250 -0.2337  0.3105 -0.3603
16533TIP3    H171090   6.502   5.891   1.219 -0.0954 -0.0114 -0.9546
16533TIP3    H271091   6.647   5.888   1.173  0.2815  0.9134  0.1066
16534TIP3   OH271092   1.950   2.893   0.795  0.1194  0.4581  0.2644
16534TIP3    H171093   1.894   2.952   0.844 -3.8883  0.3370 -3.6108
16534TIP3    H271094   1.924   2.805   0.824 -2.2235  0.3887 -1.6926
16535TIP3   OH271095   0.312   3.106  15.137  0.0213 -0.4514  0.5889
16535TIP3    H171096   0.273   3.188  15.169 -0.9112 -0.6071 -0.1056
16535TIP3    H271097   0.237   3.047  15.125  0.3169 -0.4468 -1.6871
16536TIP3   OH271098   1.666   4.966   5.669  0.2188  0.2257 -0.4632
16536TIP3    H171099   1.608   4.896   5.696  1.9762 -1.7236 -1.4731
16536TIP3    H271100   1.616   5.016   5.605 -0.7048 -0.7723 -0.5468
16537TIP3   OH271101   3.577   6.155  12.787 -0.1029  0.2624  0.0659
16537TIP3    H171102   3.496   6.105  12.787 -0.8889  1.3967 -2.2502
16537TIP3    H271103   3.618   6.135  12.703  1.1369  1.1071  0.4324
16538TIP3   OH271104   3.439   5.551  16.260 -0.4948 -0.5336 -0.6179
16538TIP3    H171105   3.394   5.470  16.236  0.2898 -1.0931 -0.2363
16538TIP3    H271106   3.460   5.540  16.352  0.1730 -0.1618 -0.7239
16539TIP3   OH271107   2.599   1.251  12.613 -0.3590  0.3200  0.2329
16539TIP3    H171108   2.560   1.165  12.593  2.0096 -0.7111 -0.2853
16539TIP3    H271109   2.597   1.256  12.708  0.9981 -1.1314  0.3823
16540TIP3   OH271110   3.569   5.630   0.399  0.0680  0.4163 -0.2064
16540TIP3    H171111   3.652   5.666   0.369 -0.1151  0.4334 -0.6897
16540TIP3    H271112   3.590   5.541   0.427  0.1758  0.2982 -0.6688
16541TIP3   OH271113   0.854   3.925   4.494 -0.4859  0.2108  0.2849
16541TIP3    H171114   0.864   4.002   4.551 -2.1190  0.0945  0.7834
16541TIP3    H271115   0.848   3.962   4.406  1.6483  0.4223  0.1878
16542TIP3   OH271116   0.454   2.824   4.093  0.0700 -1.0209 -0.6263
16542TIP3    H171117   0.382   2.885   4.106 -0.2488 -1.3728 -0.7332
16542TIP3    H271118   0.531   2.879   4.085 -0.3197 -0.5855 -1.5248
16543TIP3   OH271119   3.093   1.787  14.443 -0.4671 -0.2141 -0.7288
16543TIP3    H171120   3.079   1.857  14.380  0.0557  0.6926  0.1327
16543TIP3    H271121   3.168   1.738  14.408  0.3753  0.8018 -0.3952
16544TIP3   OH271122   1.199   5.227   0.544  0.4397  0.0681  0.3782
16544TIP3    H171123   1.215   5.301   0.603  0.4892  1.9207 -1.8378
16544TIP3    H271124   1.283   5.211   0.501  0.3457 -1.1020  0.5774
16545TIP3   OH271125   0.373   6.765   3.871  0.1590  0.0354  0.6398
16545TIP3    H171126   0.329   6.759   3.956 -1.7974  0.5958 -0.2671
16545TIP3    H271127   0.323   6.831   3.822  2.5292  1.3258 -0.2300
16546TIP3   OH271128   5.520   4.525  14.494  0.2828 -0.9914 -0.2429
16546TIP3    H171129   5.578   4.586  14.450  1.2850 -1.7937 -0.0717
16546TIP3    H271130   5.448   4.513  14.432 -0.7543  1.5104  0.3625
16547TIP3   OH271131   1.179   6.123   1.079  0.9127 -0.3412  0.6808
16547TIP3    H171132   1.219   6.036   1.087  1.0706 -0.1148  2.7669
16547TIP3    H271133   1.244   6.183   1.116  0.5297  0.6231 -0.1354
16548TIP3   OH271134   3.999   5.742  11.177  0.6555  0.4328 -0.4033
16548TIP3    H171135   3.954   5.687  11.113 -0.1358 -0.6495  1.0212
16548TIP3    H271136   4.019   5.823  11.130 -0.4362 -0.0891 -1.8235
16549TIP3   OH271137   3.980   6.825   0.499  0.4454 -0.4502 -0.3229
16549TIP3    H171138   3.997   6.731   0.505  1.5132 -0.2045  1.2766
16549TIP3    H271139   4.007   6.849   0.411  0.8357 -1.5258 -0.5107
16550TIP3   OH271140   3.037   1.458  12.455 -0.1074  0.2034  0.5455
16550TIP3    H171141   3.009   1.457  12.363 -0.5161 -0.0037  0.6736
16550TIP3    H271142   3.119   1.509  12.454 -0.4053  0.6908  0.1499
16551TIP3   OH271143   2.278   1.070  13.848 -0.0379 -0.1684  0.1526
16551TIP3    H171144   2.252   1.151  13.891 -1.6395  0.9114 -2.5721
16551TIP3    H271145   2.200   1.014  13.852  0.2860 -0.6446 -0.0413
16552TIP3   OH271146   5.846   4.189   3.933 -0.8705 -0.1549 -0.1516
16552TIP3    H171147   5.812   4.276   3.953  0.6566  0.3606  0.3013
16552TIP3    H271148   5.939   4.202   3.918 -0.5585 -1.7576  0.2102
16553TIP3   OH271149   5.953   6.591   2.094 -0.2762  0.0859  0.2699
16553TIP3    H171150   6.026   6.649   2.116 -0.1046  0.0399 -0.1561
16553TIP3    H271151   5.966   6.571   2.001  0.1598 -1.2935  0.5931
16554TIP3   OH271152   0.270   1.683   3.168 -0.4233 -0.3667 -0.0039
16554TIP3    H171153   0.339   1.674   3.233 -0.9132 -2.7695  0.2636
16554TIP3    H271154   0.270   1.776   3.145  1.9199 -0.0596  1.0263
16555TIP3   OH271155   5.782   1.198   5.157  0.0969 -0.0663 -0.2938
16555TIP3    H171156   5.787   1.120   5.102 -1.7817 -0.1044 -0.4644
16555TIP3    H271157   5.789   1.271   5.095  1.1725 -0.0810 -0.2072
16556TIP3   OH271158   0.754   3.196   0.233 -0.0549  0.4680 -0.1188
16556TIP3    H171159   0.767   3.264   0.299  1.2162 -0.3898  0.5581
16556TIP3    H271160   0.677   3.225   0.183  1.2262  3.0848 -0.7391
16557TIP3   OH271161   3.777   2.851   3.811  0.5455  0.0887 -0.0286
16557TIP3    H171162   3.719   2.859   3.735  0.7926  0.6472 -0.1686
16557TIP3    H271163   3.739   2.911   3.876 -0.2373 -1.1300  0.6734
16558TIP3   OH271164   0.856   3.377   4.753  0.1016  0.2949 -0.6403
16558TIP3    H171165   0.883   3.337   4.836 -1.3476  1.7780  0.5949
16558TIP3    H271166   0.790   3.318   4.718  1.6320 -1.0185 -1.4527
16559TIP3   OH271167   6.610   5.239   2.151  0.3603  0.4865 -0.3352
16559TIP3    H171168   6.548   5.312   2.142  0.9510  0.9502 -0.7542
16559TIP3    H271169   6.588   5.198   2.234 -1.1092  0.0753 -0.9041
16560TIP3   OH271170   1.521   2.638  14.788 -0.2265 -0.1597 -0.1548
16560TIP3    H171171   1.471   2.712  14.752  0.4658  1.3790  1.8746
16560TIP3    H271172   1.456   2.569  14.798 -0.7734 -0.1154 -2.6836
16561TIP3   OH271173   6.265   0.422   6.595  0.5368  0.6791  0.7929
16561TIP3    H171174   6.218   0.405   6.677  1.1850 -0.0905  1.0220
16561TIP3    H271175   6.200   0.406   6.526 -0.1488  1.7993  1.1545
16562TIP3   OH271176   6.352   4.635  16.601 -0.1779 -0.2797  0.1685
16562TIP3    H171177   6.378   4.644  16.509 -2.8352  0.3366 -0.6241
16562TIP3    H271178   6.363   4.722  16.637 -2.0998  0.2906 -0.5030
16563TIP3   OH271179   4.781   4.559   2.189  0.2735 -0.1306 -0.0142
16563TIP3    H171180   4.763   4.633   2.130 -0.1183 -0.0850  0.1576
16563TIP3    H271181   4.834   4.499   2.136  0.3043  0.1163 -0.2677
16564TIP3   OH271182   5.670   0.028  13.095  0.2488  0.2877  0.6461
16564TIP3    H171183   5.608   0.099  13.076  0.0361  0.2774  1.2909
16564TIP3    H271184   5.755   0.071  13.099  0.8083 -0.0788 -3.2024
16565TIP3   OH271185   1.928   4.707   4.832 -0.3327  0.0272 -0.2861
16565TIP3    H171186   2.006   4.666   4.871 -1.4053 -1.7812  0.0736
16565TIP3    H271187   1.913   4.785   4.885  0.3266 -0.4565  0.6428
16566TIP3   OH271188   1.014   1.980  11.831  0.5104  0.6953 -0.1704
16566TIP3    H171189   1.064   2.001  11.910  1.5745 -1.1943 -0.2813
16566TIP3    H271190   0.996   2.064  11.790  2.3296  1.5307  0.6641
16567TIP3   OH271191   0.640   2.236   0.919  0.4901  0.1473 -0.1175
16567TIP3    H171192   0.565   2.272   0.966  0.6889  1.7584 -0.9735
16567TIP3    H271193   0.606   2.219   0.831  0.7906 -0.4106 -0.1279
16568TIP3   OH271194   5.884   6.821  16.555  0.3831  0.1888  0.5859
16568TIP3    H171195   5.948   6.839  16.624  3.0995 -1.1549 -1.4183
16568TIP3    H271196   5.893   6.728  16.537 -1.7799  0.0682 -0.2229
16569TIP3   OH271197   5.791   2.879  11.893  0.2532  0.0860 -0.5940
16569TIP3    H171198   5.854   2.940  11.855  1.6049 -1.9250 -1.7908
16569TIP3    H271199   5.788   2.901  11.986 -0.2068  2.6519 -1.1452
16570TIP3   OH271200   4.773   2.830   2.886 -0.4551 -0.0315 -0.6581
16570TIP3    H171201   4.827   2.769   2.936 -2.1801 -0.7884  0.3844
16570TIP3    H271202   4.796   2.813   2.795  1.0547 -0.3012 -0.2562
16571TIP3   OH271203   4.055   6.017   4.794 -0.6031 -0.1781 -0.0197
16571TIP3    H171204   4.057   6.073   4.716 -2.5024  0.5925  0.4234
16571TIP3    H271205   3.972   5.970   4.787 -0.7873 -0.1269  1.5053
16572TIP3   OH271206   2.498   4.614  13.403  0.5254 -0.4187  0.0047
16572TIP3    H171207   2.496   4.621  13.498 -0.4607  0.4972 -0.0649
16572TIP3    H271208   2.591   4.610  13.380  0.7962  0.3597  0.9370
16573TIP3   OH271209   3.072   0.712  11.366 -0.7362 -0.7509  0.1650
16573TIP3    H171210   3.158   0.680  11.341 -0.1542  0.8086  0.1031
16573TIP3    H271211   3.039   0.758  11.289 -0.3129  1.2536  1.0994
16574TIP3   OH271212   5.949   3.581  14.768  0.3454  0.3417 -0.0800
16574TIP3    H171213   6.034   3.538  14.777  0.0311 -0.4685 -0.7970
16574TIP3    H271214   5.912   3.580  14.856 -0.1889 -2.0575 -0.2554
16575TIP3   OH271215   4.712   3.767  13.789  0.0634 -0.6799 -0.0926
16575TIP3    H171216   4.782   3.781  13.853 -0.0368  0.8337 -0.2818
16575TIP3    H271217   4.758   3.746  13.707  0.2613 -0.8013  0.0491
16576TIP3   OH271218   4.428   3.502   4.669 -0.4310 -0.4559 -0.3284
16576TIP3    H171219   4.468   3.482   4.584 -0.8510 -0.6170 -0.4924
16576TIP3    H271220   4.482   3.573   4.704 -0.7382  0.1830 -1.0993
16577TIP3   OH271221   0.432   3.756   1.632  0.5887  0.0993  0.6074
16577TIP3    H171222   0.479   3.698   1.693 -1.5257 -0.7938  1.4841
16577TIP3    H271223   0.345   3.764   1.670 -0.6447  0.0042 -1.9964
16578TIP3   OH271224   5.351   6.639   0.224  0.3361  0.5917 -0.4919
16578TIP3    H171225   5.431   6.588   0.211  0.6541  1.2577 -1.3062
16578TIP3    H271226   5.317   6.652   0.135 -1.9939 -1.6645 -0.0328
16579TIP3   OH271227   4.637   1.187   1.028  0.2531  0.8058  0.4823
16579TIP3    H171228   4.600   1.174   0.941 -0.0697 -0.2684  0.7637
16579TIP3    H271229   4.722   1.228   1.011  0.2654  0.4653 -0.3476
16580TIP3   OH271230   0.918   3.078  11.747  0.2919  0.0378 -0.1728
16580TIP3    H171231   0.990   3.028  11.707 -0.4415 -1.9746  0.8792
16580TIP3    H271232   0.951   3.102  11.833 -1.2184 -3.6222  1.6342
16581TIP3   OH271233   4.717   2.800  16.806  0.4963  0.1068  0.1438
16581TIP3    H171234   4.782   2.745  16.849  1.2132  1.5216  0.9205
16581TIP3    H271235   4.768   2.857  16.748 -0.0338  1.1501  0.6764
16582TIP3   OH271236   0.244   5.225  11.265  0.3064  0.2259  0.3746
16582TIP3    H171237   0.212   5.275  11.340 -1.4703 -0.3489  0.0343
16582TIP3    H271238   0.204   5.138  11.274  0.8296 -0.1547 -0.7285
16583TIP3   OH271239   5.274   0.589   0.864 -0.5884 -0.3762  0.1543
16583TIP3    H171240   5.260   0.498   0.837 -2.5596 -0.0321 -0.1315
16583TIP3    H271241   5.323   0.582   0.946 -1.2235 -1.7206  0.4524
16584TIP3   OH271242   4.960   0.953   5.168  0.1539  0.2358 -0.1220
16584TIP3    H171243   4.886   0.898   5.193  0.4507  1.0939  3.0969
16584TIP3    H271244   5.014   0.896   5.113 -1.6923 -1.1878 -0.5554
16585TIP3   OH271245   3.270   6.837  16.487  0.0130  0.2247  0.1221
16585TIP3    H171246   3.321   6.826  16.407  0.1113 -0.8593  0.3206
16585TIP3    H271247   3.209   6.909  16.468 -0.7766 -0.7981 -1.3456
16586TIP3   OH271248   3.843   4.009  11.460 -0.2280  0.3505 -0.7030
16586TIP3    H171249   3.775   4.057  11.507 -0.1544  1.8272 -2.0293
16586TIP3    H271250   3.799   3.976  11.381  0.4773  1.0467 -1.4121
16587TIP3   OH271251   5.667   0.924  13.283 -0.2406 -1.0733 -0.0124
16587TIP3    H171252   5.600   0.959  13.225 -0.5634 -1.0113  0.3933
16587TIP3    H271253   5.746   0.975  13.263 -0.4745 -0.7330 -0.0652
16588TIP3   OH271254   5.401   6.044  15.694 -0.1058  0.2196  0.3336
16588TIP3    H171255   5.470   6.019  15.633 -0.1761  3.3817 -1.2130
16588TIP3    H271256   5.438   6.024  15.780  0.9369 -2.1339 -0.5644
16589TIP3   OH271257   2.037   6.285   2.082  0.0481  0.5682 -0.2863
16589TIP3    H171258   2.124   6.326   2.088 -1.0120  2.9878 -0.4713
16589TIP3    H271259   2.022   6.275   1.988  0.1946 -0.0855 -0.2481
16590TIP3   OH271260   6.109   3.390   0.941  0.1913  0.0442  0.0872
16590TIP3    H171261   6.173   3.442   0.989  0.9730 -1.3588  0.6364
16590TIP3    H271262   6.024   3.419   0.973  0.5767  1.2568  0.0583
16591TIP3   OH271263   1.196   4.870  13.684  0.7752 -0.7431  0.3529
16591TIP3    H171264   1.272   4.813  13.684 -0.0806 -1.9379  1.3422
16591TIP3    H271265   1.123   4.814  13.709 -0.4115  0.4174 -0.3224
16592TIP3   OH271266   2.019   0.764   3.120 -0.5112  0.2979  0.1210
16592TIP3    H171267   2.041   0.796   3.032 -0.1634  0.2333  0.1842
16592TIP3    H271268   1.924   0.772   3.125 -0.4916  0.7131 -0.1035
16593TIP3   OH271269   1.687   3.267   2.094  0.1361  0.9287  0.1041
16593TIP3    H171270   1.655   3.189   2.049 -0.2477  0.8474  0.5046
16593TIP3    H271271   1.762   3.236   2.144 -0.3440  0.6850  0.6947
16594TIP3   OH271272   6.512   3.925   4.278  0.5293 -0.3162 -0.0361
16594TIP3    H171273   6.464   3.912   4.196  1.8846  1.4239 -1.1942
16594TIP3    H271274   6.569   3.849   4.285  0.6994 -0.2767 -0.9364
16595TIP3   OH271275   5.194   6.637  15.311 -0.0559  0.7047  0.3228
16595TIP3    H171276   5.124   6.612  15.251  0.9961  0.7980 -0.9787
16595TIP3    H271277   5.185   6.732  15.321  0.1732  0.7846 -0.2216
16596TIP3   OH271278   5.661   0.485  12.795 -0.0009 -0.5525  0.0951
16596TIP3    H171279   5.651   0.578  12.776  0.7297 -0.1191  1.6371
16596TIP3    H271280   5.615   0.440  12.724  0.0043  0.9655 -0.9063
16597TIP3   OH271281   5.170   0.784   3.980 -0.5415  0.2027 -0.0099
16597TIP3    H171282   5.081   0.756   3.998  0.1868 -1.8717  0.7012
16597TIP3    H271283   5.223   0.705   3.991  1.5303  1.5898  0.7518
16598TIP3   OH271284   1.982   6.156  14.645  0.2065 -0.4619 -0.1861
16598TIP3    H171285   1.946   6.240  14.617 -0.5790 -1.1777 -1.4504
16598TIP3    H271286   2.076   6.165  14.634  0.0949  0.1170 -0.7290
16599TIP3   OH271287   3.514   5.530  13.241  0.3055  0.0287 -0.7714
16599TIP3    H171288   3.520   5.622  13.215 -1.8500  0.6643  0.6391
16599TIP3    H271289   3.423   5.506  13.224 -0.0172 -0.8548  1.6833
16600TIP3   OH271290   6.092   0.581   1.585  0.4604 -0.0031 -0.0155
16600TIP3    H171291   6.163   0.554   1.527  1.4593  1.0989  0.6562
16600TIP3    H271292   6.013   0.579   1.530  1.0851 -0.7459 -0.9016
16601TIP3   OH271293   3.113   0.034   0.928 -0.1599 -0.0814 -0.4114
16601TIP3    H171294   3.061   0.054   1.006 -1.2793 -0.5423 -1.0133
16601TIP3    H271295   3.108   0.113   0.874  1.2260  0.5146  0.2710
16602TIP3   OH271296   3.216   6.215  11.401  0.3629 -0.9100 -0.6534
16602TIP3    H171297   3.131   6.252  11.427  0.5494 -0.4601 -0.6875
16602TIP3    H271298   3.240   6.263  11.323  1.9123  0.8386  0.8099
16603TIP3   OH271299   5.344   0.022  17.024 -0.2803 -0.6054 -0.0118
16603TIP3    H171300   5.341   0.086  16.952  2.3109 -0.9802 -0.5234
16603TIP3    H271301   5.320   0.072  17.102  2.1362  1.1979 -0.3211
16604TIP3   OH271302   5.179   6.497   4.388  0.7189  0.7449 -0.7890
16604TIP3    H171303   5.252   6.516   4.446  0.9695 -0.1311 -0.8039
16604TIP3    H271304   5.176   6.401   4.383  0.3061  0.7930 -1.7155
16605TIP3   OH271305   6.132   2.550   5.279 -0.1251 -0.5172 -0.2867
16605TIP3    H171306   6.195   2.540   5.207 -2.0218 -0.5774 -2.0251
16605TIP3    H271307   6.051   2.512   5.245 -1.4060  0.5307  1.4589
16606TIP3   OH271308   4.244   5.208   4.824 -0.2731 -0.3361  0.0831
16606TIP3    H171309   4.207   5.175   4.743 -2.1635  1.4253  0.1427
16606TIP3    H271310   4.187   5.281   4.849  0.8667 -0.1336  2.4329
16607TIP3   OH271311   4.998   0.298  12.266  0.2062 -0.0356  0.7893
16607TIP3    H171312   4.925   0.347  12.228 -1.9815 -2.8385  1.0624
16607TIP3    H271313   4.962   0.212  12.285  3.4588 -1.3767  1.5849
16608TIP3   OH271314   2.034   2.931   4.385 -0.3461  0.4335 -0.7844
16608TIP3    H171315   2.026   2.892   4.472  1.9295  1.8379  0.1330
16608TIP3    H271316   2.006   3.022   4.397  0.4830  0.7816 -1.3839
16609TIP3   OH271317   3.978   5.492   6.425  0.9813  0.5272  0.1698
16609TIP3    H171318   4.030   5.475   6.503 -1.3697  1.1850  2.0256
16609TIP3    H271319   3.887   5.485   6.456 -0.0348  2.2980 -2.1656
16610TIP3   OH271320   3.399   2.942   1.752 -0.4005 -0.8929  0.1017
16610TIP3    H171321   3.342   2.939   1.829 -0.1206 -0.7789  0.3159
16610TIP3    H271322   3.418   2.850   1.732 -0.8730 -0.9430 -0.1335
16611TIP3   OH271323   1.717   2.135   1.726 -0.0860  0.2662  0.0838
16611TIP3    H171324   1.734   2.219   1.770 -1.3047 -0.5305  2.2070
16611TIP3    H271325   1.646   2.095   1.777 -0.4170 -1.4972 -1.6577
16612TIP3   OH271326   2.473   1.418  11.270  0.6343  0.1960  0.3974
16612TIP3    H171327   2.479   1.454  11.182  1.7141  2.0464  1.1555
16612TIP3    H271328   2.538   1.348  11.272  1.6237  1.0708  0.0927
16613TIP3   OH271329   4.926   6.350   1.535  0.1843  0.4424 -0.4606
16613TIP3    H171330   4.837   6.382   1.518  0.1358  1.4092  1.3735
16613TIP3    H271331   4.914   6.281   1.600  0.9233  2.6291  2.1654
16614TIP3   OH271332   3.947   0.366  11.391 -0.1924  0.0453 -0.0359
16614TIP3    H171333   3.982   0.319  11.466 -1.5469 -1.1142 -0.0853
16614TIP3    H271334   3.985   0.321  11.315 -0.9329 -0.5543 -0.0683
16615TIP3   OH271335   3.342   0.587  15.444 -0.5158 -0.4419 -0.0168
16615TIP3    H171336   3.301   0.501  15.454 -1.5527  0.0982  0.5481
16615TIP3    H271337   3.306   0.639  15.516 -0.5781  0.7293 -0.8742
16616TIP3   OH271338   5.412   3.322  11.571  0.7810  0.1520 -0.1899
16616TIP3    H171339   5.365   3.405  11.584  1.9168  1.1610 -2.0128
16616TIP3    H271340   5.420   3.285  11.659 -0.2891  1.6645  0.6078
16617TIP3   OH271341   6.774   1.026  14.317 -0.0583  0.0822 -0.1030
16617TIP3    H171342   6.737   0.939  14.307 -3.6898  1.2174  1.6649
16617TIP3    H271343   6.807   1.029  14.407 -0.5481  0.7173  0.0630
16618TIP3   OH271344   0.702   6.304  15.512 -0.1526 -0.0187  0.2376
16618TIP3    H171345   0.748   6.377  15.555  2.4505  1.3780 -4.2150
16618TIP3    H271346   0.613   6.336  15.499  0.6625  2.0543 -0.7029
16619TIP3   OH271347   0.541   5.818  12.276  0.1746 -0.2771  0.1379
16619TIP3    H171348   0.446   5.801  12.272  0.0647  0.3944 -0.2472
16619TIP3    H271349   0.579   5.757  12.213 -0.2552  1.0955 -1.5253
16620TIP3   OH271350   6.599   0.054   1.659  0.6977 -0.2203  0.6532
16620TIP3    H171351   6.694   0.045   1.664  0.6707 -0.1091  1.7751
16620TIP3    H271352   6.574   0.085   1.746 -0.2019  1.4049 -0.1421
16621TIP3   OH271353   1.609   1.603  10.773  0.0987 -0.2905  0.0595
16621TIP3    H171354   1.517   1.592  10.795 -0.4451  0.2172 -1.7980
16621TIP3    H271355   1.648   1.643  10.851 -1.4057  0.2612  0.5557
16622TIP3   OH271356   1.982   0.280  10.236 -0.1025 -0.1575 -1.0284
16622TIP3    H171357   1.969   0.263  10.143 -1.3608  2.0173 -1.3106
16622TIP3    H271358   1.949   0.201  10.279 -1.4642 -0.3721 -2.3615
16623TIP3   OH271359   4.490   0.119   0.970 -0.1603  0.6227 -0.7633
16623TIP3    H171360   4.511   0.194   0.916  0.3614  0.8293 -0.2846
16623TIP3    H271361   4.395   0.110   0.963  0.0341 -0.3349 -2.9761
16624TIP3   OH271362   6.345   0.391   3.767  0.1186  0.1041 -0.5580
16624TIP3    H171363   6.389   0.411   3.684 -0.3866  0.0147 -0.8549
16624TIP3    H271364   6.402   0.429   3.834  0.0338  1.0797 -1.0094
16625TIP3   OH271365   2.317   0.294  13.256 -0.4075 -0.0624 -0.2038
16625TIP3    H171366   2.354   0.229  13.316 -2.1377 -0.0696  0.9511
16625TIP3    H271367   2.389   0.317  13.197  1.0279 -0.9678  1.1149
16626TIP3   OH271368   1.254   5.489  15.587 -0.3341 -0.0884  0.0134
16626TIP3    H171369   1.287   5.462  15.673  0.8859 -1.5984 -0.8743
16626TIP3    H271370   1.204   5.414  15.556 -0.5269  0.3373 -0.7229
16627TIP3   OH271371   0.867   5.763  14.197  0.5860 -0.0397  0.0638
16627TIP3    H171372   0.867   5.739  14.290 -0.2764  1.1471  0.3916
16627TIP3    H271373   0.955   5.741  14.166  1.2490  0.5896  1.4417
16628TIP3   OH271374   0.663   4.516  11.999  0.3396  0.2169  0.2705
16628TIP3    H171375   0.706   4.449  11.945 -1.0546  0.2569 -0.9732
16628TIP3    H271376   0.733   4.553  12.052  1.2475 -1.9320  0.6936
16629TIP3   OH271377   5.607   6.477  12.690  0.3900  0.7386  0.2231
16629TIP3    H171378   5.638   6.532  12.762  2.2811  1.9596 -1.4031
16629TIP3    H271379   5.563   6.538  12.631  1.5513  0.3922 -1.0750
16630TIP3   OH271380   5.852   6.214   5.196 -0.8652 -0.3630  0.4929
16630TIP3    H171381   5.841   6.138   5.138  0.2234 -0.4171  0.3368
16630TIP3    H271382   5.928   6.192   5.249 -0.3982  0.7113  0.2853
16631TIP3   OH271383   5.303   2.101   2.995 -0.0937 -0.2728 -0.1272
16631TIP3    H171384   5.263   2.048   3.064  0.1652  0.7172  0.8163
16631TIP3    H271385   5.394   2.072   2.991 -0.0133 -0.0796  0.2227
16632TIP3   OH271386   0.975   2.912   2.844 -0.4641 -1.1911  0.4142
16632TIP3    H171387   1.039   2.841   2.846 -2.2668 -2.8650  0.8640
16632TIP3    H271388   0.918   2.892   2.770 -1.5602 -0.7605  1.1137
16633TIP3   OH271389   1.277   5.431   0.276 -0.2563  0.1208  0.6393
16633TIP3    H171390   1.271   5.413   0.183 -2.3797  2.1878  0.2793
16633TIP3    H271391   1.189   5.415   0.310  0.0054  1.1100  1.8904
16634TIP3   OH271392   0.841   2.975  14.666 -0.1528 -0.1046 -0.1220
16634TIP3    H171393   0.811   3.033  14.596 -2.8252 -1.0716  0.1175
16634TIP3    H271394   0.847   3.031  14.743 -0.3585  0.3275 -0.4150
16635TIP3   OH271395   3.869   2.836  15.794 -1.0237 -0.1613  0.4549
16635TIP3    H171396   3.909   2.750  15.799  1.7914  1.0652  1.0048
16635TIP3    H271397   3.878   2.862  15.702  0.8966  0.6541  0.8113
16636TIP3   OH271398   0.743   6.539   2.988 -0.0908 -0.7967  0.5377
16636TIP3    H171399   0.690   6.487   3.048 -1.9335 -0.1462 -0.4615
16636TIP3    H271400   0.801   6.475   2.945 -1.7396 -1.9410 -0.0825
16637TIP3   OH271401   4.299   2.282   0.108  0.2971  0.1473 -0.6654
16637TIP3    H171402   4.301   2.375   0.088  0.0089  0.3679  0.2890
16637TIP3    H271403   4.224   2.248   0.058  0.4255  0.4098 -1.0405
16638TIP3   OH271404   1.413   2.256  11.810  0.1063 -0.9215  0.0966
16638TIP3    H171405   1.357   2.243  11.887 -1.2302 -2.3078 -1.0531
16638TIP3    H271406   1.489   2.201  11.826  0.2971 -0.4685  0.8258
16639TIP3   OH271407   6.828   5.087   4.418  0.0905  0.3224  0.3239
16639TIP3    H171408   6.844   5.141   4.495 -0.4000  1.4054 -0.3021
16639TIP3    H271409   6.863   5.001   4.440  1.0793  0.9513  1.2784
16640TIP3   OH271410   5.307   5.906   5.356  0.3443 -0.0014 -1.1831
16640TIP3    H171411   5.397   5.876   5.346  0.2364 -0.7757 -0.0123
16640TIP3    H271412   5.315   5.995   5.390  0.6954 -0.4553 -0.0180
16641TIP3   OH271413   0.883   0.476   0.569  0.0652  0.1932  0.7956
16641TIP3    H171414   0.944   0.402   0.572 -1.2216 -0.8912  2.5754
16641TIP3    H271415   0.835   0.465   0.487  1.7279  0.6516 -0.2675
16642TIP3   OH271416   6.261   3.433  13.990  0.9707  0.0150  0.3031
16642TIP3    H171417   6.190   3.496  13.978  0.3022 -0.8067 -0.2328
16642TIP3    H271418   6.328   3.460  13.929  0.9367  0.5510  0.5020
16643TIP3   OH271419   2.192   1.612  15.359 -0.1567  0.5525  0.1303
16643TIP3    H171420   2.274   1.586  15.319 -0.4502  0.3637 -0.3529
16643TIP3    H271421   2.181   1.552  15.433  1.0201  1.7218  1.3087
16644TIP3   OH271422   0.676   0.109   5.667 -0.0986 -0.6036 -0.2559
16644TIP3    H171423   0.761   0.091   5.705 -0.5680 -0.3578  0.9688
16644TIP3    H271424   0.618   0.042   5.704 -0.9743  0.8023  1.0447
16645TIP3   OH271425   4.859   1.816   1.424 -0.2772  0.2441  0.7740
16645TIP3    H171426   4.939   1.765   1.412 -2.1825 -2.7961 -0.2575
16645TIP3    H271427   4.825   1.788   1.509 -1.4245 -0.3864  0.1304
16646TIP3   OH271428   5.664   2.799  15.224 -0.3625  0.0704  0.4048
16646TIP3    H171429   5.627   2.871  15.275  0.2088  0.8890 -0.3291
16646TIP3    H271430   5.627   2.720  15.265 -3.3530  0.8330 -0.5884
16647TIP3   OH271431   2.556   3.706   1.035  0.2886 -0.2348 -0.3072
16647TIP3    H171432   2.474   3.667   1.006  1.1103 -1.7444 -0.6801
16647TIP3    H271433   2.615   3.696   0.961  0.2557  2.7946 -0.8638
16648TIP3   OH271434   5.341   6.649  16.744  0.1509  0.2378 -0.1000
16648TIP3    H171435   5.393   6.573  16.769  0.0207 -0.2429 -1.2290
16648TIP3    H271436   5.383   6.722  16.789  0.5138 -0.4379  0.6870
16649TIP3   OH271437   1.144   2.556   5.628  0.0437  0.5049 -0.7489
16649TIP3    H171438   1.114   2.465   5.622 -1.5135  1.0826 -3.1007
16649TIP3    H271439   1.239   2.551   5.613  0.3353 -0.8599  1.2188
16650TIP3   OH271440   6.600   3.446   0.499 -0.2210  0.0713 -0.3799
16650TIP3    H171441   6.544   3.399   0.560 -0.5768  0.4285 -0.4290
16650TIP3    H271442   6.666   3.382   0.474 -0.8036 -0.4657 -0.5840
16651TIP3   OH271443   5.270   2.051  14.481 -0.1503 -0.3148 -0.4284
16651TIP3    H171444   5.344   2.050  14.420 -0.1321  0.4817 -0.4229
16651TIP3    H271445   5.242   2.142  14.484 -1.5877 -0.7077 -0.9647
16652TIP3   OH271446   6.431   2.171   0.742  0.0511  0.3426 -0.4001
16652TIP3    H171447   6.463   2.132   0.661  0.6531 -0.5759  0.2621
16652TIP3    H271448   6.510   2.193   0.791 -0.3030 -0.1308  0.4075
16653TIP3   OH271449   4.467   3.154  14.824 -0.0384 -0.5252 -0.0779
16653TIP3    H171450   4.453   3.137  14.731 -0.9615  0.0397 -0.0579
16653TIP3    H271451   4.541   3.098  14.848 -0.1133 -1.0524 -1.0315
16654TIP3   OH271452   4.652   0.768   5.194 -0.5387  0.7184  0.4389
16654TIP3    H171453   4.727   0.752   5.250 -1.3271 -2.0033  0.8632
16654TIP3    H271454   4.690   0.801   5.112  1.6460 -3.6447 -0.6333
16655TIP3   OH271455   0.912   5.042   5.022  0.8577  0.2804 -0.1496
16655TIP3    H171456   0.831   5.077   5.060  0.8866 -0.3904  0.5574
16655TIP3    H271457   0.921   5.088   4.939 -0.5813 -0.0653 -0.5333
16656TIP3   OH271458   0.418   3.330  16.340  0.2473  0.2589 -0.1943
16656TIP3    H171459   0.366   3.387  16.396  0.2528 -0.7055  0.8504
16656TIP3    H271460   0.356   3.293  16.278  0.5882  2.9383 -2.2829
16657TIP3   OH271461   5.415   3.857   5.843  0.7983  0.6458 -0.3090
16657TIP3    H171462   5.426   3.944   5.804 -0.3357  0.5110 -0.9761
16657TIP3    H271463   5.428   3.871   5.937 -1.7896  2.0334 -0.0807
16658TIP3   OH271464   3.847   3.702  11.433 -0.1779 -0.0585  0.5041
16658TIP3    H171465   3.759   3.713  11.397 -0.6979  0.1636  1.8132
16658TIP3    H271466   3.843   3.741  11.520  0.7285 -1.5619  1.2689
16659TIP3   OH271467   3.233   0.175   2.065 -0.6592  0.1854  0.0907
16659TIP3    H171468   3.314   0.148   2.108 -1.2563 -0.8325  0.6358
16659TIP3    H271469   3.171   0.188   2.137 -1.0259  0.7747 -0.3258
16660TIP3   OH271470   2.666   2.590  14.313  0.4636  0.3081  0.2876
16660TIP3    H171471   2.689   2.606  14.405  0.7648 -0.1668  0.3012
16660TIP3    H271472   2.682   2.673  14.269  0.6996  0.4245  0.5926
16661TIP3   OH271473   0.296   1.411  16.468 -0.3416 -0.2038  0.3792
16661TIP3    H171474   0.304   1.435  16.375  0.1989  0.2701  0.5424
16661TIP3    H271475   0.325   1.489  16.515  0.4197 -0.8018  0.9335
16662TIP3   OH271476   5.375   0.048   0.953  0.2563  0.1310 -0.4042
16662TIP3    H171477   5.360  -0.036   0.910 -0.4724 -0.1435  0.3547
16662TIP3    H271478   5.372   0.028   1.047 -0.1591  1.0369 -0.2056
16663TIP3   OH271479   1.383   3.973  12.882 -0.0845 -0.3395  0.2870
16663TIP3    H171480   1.375   4.068  12.894 -0.9283 -0.3034 -0.4509
16663TIP3    H271481   1.364   3.937  12.969 -2.0870  0.0794  0.0646
16664TIP3   OH271482   4.800   5.963  17.127 -0.7816  0.6400  0.3148
16664TIP3    H171483   4.745   5.903  17.178 -0.1404 -1.1788 -1.0318
16664TIP3    H271484   4.889   5.940  17.152 -0.3122 -1.8215 -3.0107
16665TIP3   OH271485   4.409   0.950   0.913 -0.0173 -0.0498  0.9327
16665TIP3    H171486   4.379   1.031   0.872  0.8943 -0.6618 -1.0688
16665TIP3    H271487   4.397   0.883   0.846 -0.9905 -1.6790  2.6072
16666TIP3   OH271488   1.067   3.653  14.494  0.7223  0.0232 -0.3526
16666TIP3    H171489   1.116   3.571  14.488  0.3089 -0.3024  0.5097
16666TIP3    H271490   1.120   3.709  14.551  0.0172 -0.4116  0.7708
16667TIP3   OH271491   6.572   0.135   1.917  0.1272  0.1432 -0.2754
16667TIP3    H171492   6.497   0.125   1.976  0.7904 -0.9129  0.4315
16667TIP3    H271493   6.612   0.217   1.944  1.1889 -0.9480  1.7298
16668TIP3   OH271494   0.140   0.201   1.397 -0.0637  0.7360  0.0148
16668TIP3    H171495   0.199   0.139   1.354  0.3066  1.4554 -0.5551
16668TIP3    H271496   0.146   0.280   1.343 -0.6650  1.2041  0.6166
16669TIP3   OH271497   6.504   2.408   4.576  0.6280 -0.2337 -0.4338
16669TIP3    H171498   6.549   2.405   4.491  2.4650 -1.6065  0.5404
16669TIP3    H271499   6.519   2.322   4.615  0.7366  0.7040  1.7436
16670TIP3   OH271500   5.062   6.399   1.878  0.5128 -0.4415  0.0530
16670TIP3    H171501   4.967   6.406   1.884  0.3936 -1.2238 -0.7827
16670TIP3    H271502   5.085   6.444   1.796  0.9461  0.3300  0.5782
16671TIP3   OH271503   0.912   4.961  16.721  0.8047 -0.3339 -0.0685
16671TIP3    H171504   0.878   4.904  16.651 -1.4497  0.2336  0.4768
16671TIP3    H271505   0.970   5.022  16.675  0.5614 -0.9206 -1.2124
16672TIP3   OH271506   1.333   6.127   2.396  0.1796  0.2736  0.1784
16672TIP3    H171507   1.256   6.112   2.341  0.3258 -1.1549  0.3241
16672TIP3    H271508   1.375   6.204   2.358 -1.9180  1.8288  0.7900
16673TIP3   OH271509   3.625   0.247  13.135  0.3660  0.3063 -0.1683
16673TIP3    H171510   3.715   0.236  13.104 -0.2561 -3.6844 -1.1775
16673TIP3    H271511   3.607   0.167  13.185 -2.6471  0.8674 -0.1438
16674TIP3   OH271512   2.990   5.367  14.694  0.2810 -0.4870 -0.1252
16674TIP3    H171513   2.989   5.274  14.669  0.9847 -0.4610 -0.2645
16674TIP3    H271514   2.925   5.407  14.636  1.6392 -0.4935 -1.7321
16675TIP3   OH271515   3.457   3.281  12.471  0.0577  0.3671 -0.0764
16675TIP3    H171516   3.512   3.317  12.541 -0.8332  0.3285  0.6654
16675TIP3    H271517   3.380   3.339  12.470 -0.9326 -0.9021  0.4482
16676TIP3   OH271518   1.336   3.152   3.634  0.0526 -0.0765 -0.4189
16676TIP3    H171519   1.414   3.207   3.641  1.3209 -1.8960  0.0878
16676TIP3    H271520   1.264   3.215   3.625  1.4472  1.6648  0.0781
16677TIP3   OH271521   0.711   1.371  16.784 -0.0244  0.0986  0.2771
16677TIP3    H171522   0.717   1.404  16.874  1.1476  0.6177  0.0151
16677TIP3    H271523   0.771   1.425  16.734 -0.9930  0.0977 -0.9205
16678TIP3   OH271524   5.893   2.233   3.019  0.0026  0.1277 -0.3779
16678TIP3    H171525   5.810   2.213   3.062  0.8638  0.4132  1.5154
16678TIP3    H271526   5.890   2.327   3.004  0.1761  0.2160  0.1315
16679TIP3   OH271527   5.387   4.857  14.536  0.1960  0.1159  0.3311
16679TIP3    H171528   5.325   4.787  14.555  0.7280 -0.5145 -0.2426
16679TIP3    H271529   5.333   4.926  14.497 -0.5327  0.5241  1.9662
16680TIP3   OH271530   4.165   3.891  14.748 -0.1552  0.3012 -0.3796
16680TIP3    H171531   4.219   3.858  14.677  3.0095  2.0114  1.0474
16680TIP3    H271532   4.109   3.817  14.772 -1.3017 -0.4044 -4.4075
16681TIP3   OH271533   4.237   4.056  12.284 -0.3132  0.6076  0.2511
16681TIP3    H171534   4.311   4.046  12.224  0.9899  0.4461  1.8079
16681TIP3    H271535   4.185   4.128  12.247  0.7569  0.8909 -0.7481
16682TIP3   OH271536   0.097   1.672   4.569 -1.0424  0.1644  0.7032
16682TIP3    H171537   0.081   1.599   4.508 -0.9391  0.3099  0.5016
16682TIP3    H271538   0.183   1.705   4.545 -1.4298  0.8733  0.2626
16683TIP3   OH271539   5.399   0.631  14.894  0.0470 -0.5028 -0.1610
16683TIP3    H171540   5.333   0.673  14.949  0.4805  1.4742 -1.0467
16683TIP3    H271541   5.359   0.549  14.866 -0.4864 -1.2150  2.4036
16684TIP3   OH271542   5.273   1.470  11.988 -0.3223 -0.1565  0.0813
16684TIP3    H171543   5.317   1.385  11.996  0.0476  0.1037  0.9585
16684TIP3    H271544   5.181   1.449  11.972 -0.6490 -0.7620  2.4503
16685TIP3   OH271545   5.252   1.460  12.930 -0.3488  0.4426  0.3724
16685TIP3    H171546   5.179   1.470  12.869  0.4288 -2.2896 -1.1283
16685TIP3    H271547   5.306   1.391  12.893  1.1005 -0.1535  3.3035
16686TIP3   OH271548   2.024   1.335   2.056 -0.7348  0.2163  0.1560
16686TIP3    H171549   2.019   1.425   2.088  0.5854 -0.4913  2.6265
16686TIP3    H271550   2.029   1.282   2.136 -0.5466 -1.9868 -1.2496
16687TIP3   OH271551   4.362   2.525   1.343 -0.6779 -0.5982  0.4372
16687TIP3    H171552   4.417   2.484   1.411  0.1523 -0.5137 -0.1616
16687TIP3    H271553   4.286   2.557   1.390 -0.4973 -1.2570  1.2056
16688TIP3   OH271554   4.235   1.126   5.198  0.6397 -0.2345  0.5838
16688TIP3    H171555   4.300   1.098   5.263  0.6520  0.8337  1.0522
16688TIP3    H271556   4.232   1.054   5.135  2.1393 -0.4042  0.6616
16689TIP3   OH271557   4.709   5.572   2.352 -0.0717 -0.2889 -0.4671
16689TIP3    H171558   4.769   5.641   2.325 -0.7988  0.6147  0.1583
16689TIP3    H271559   4.685   5.528   2.271  1.2634 -0.5281 -0.7432
16690TIP3   OH271560   0.558   5.027  14.660 -0.1642 -0.8763 -0.8567
16690TIP3    H171561   0.613   5.106  14.661 -0.0418 -0.9607  0.8415
16690TIP3    H271562   0.620   4.955  14.670 -0.3719 -1.1371 -1.4169
16691TIP3   OH271563   1.507   5.533  15.438 -0.4686 -0.4634 -0.4625
16691TIP3    H171564   1.425   5.531  15.487 -0.8987 -0.5348 -1.1722
16691TIP3    H271565   1.499   5.461  15.375  0.9246 -1.6911  0.7005
16692TIP3   OH271566   0.887   0.901  12.790 -0.3350 -0.5274  0.1707
16692TIP3    H171567   0.797   0.931  12.776 -0.5089 -0.9465  0.3775
16692TIP3    H271568   0.925   0.968  12.848 -0.0823  0.3849 -1.0018
16693TIP3   OH271569   4.941   6.839   2.796  0.2832  0.0306  0.1392
16693TIP3    H171570   4.864   6.814   2.847  0.7008  1.1939  1.3988
16693TIP3    H271571   4.963   6.927   2.827  2.5739 -0.5610  0.3616
16694TIP3   OH271572   3.431   3.332   6.620  0.1348 -0.6713 -1.0556
16694TIP3    H171573   3.352   3.313   6.671 -0.4415  2.4457 -0.5865
16694TIP3    H271574   3.502   3.299   6.674 -0.6364  0.3175  0.6635
16695TIP3   OH271575   3.118   2.579  16.489  0.1398 -0.1421  0.0849
16695TIP3    H171576   3.031   2.618  16.501  0.9525  1.7836  0.0957
16695TIP3    H271577   3.113   2.533  16.406 -0.3205  1.7336 -0.9887
16696TIP3   OH271578   4.930   3.619  16.541 -0.1655 -0.0527 -0.1282
16696TIP3    H171579   4.948   3.624  16.634 -1.6618 -0.3010  0.1966
16696TIP3    H271580   5.016   3.607  16.500  0.6662  1.4187  1.0817
16697TIP3   OH271581   4.814   4.151  15.809 -0.8467 -0.4148 -0.2996
16697TIP3    H171582   4.790   4.063  15.781 -0.3795 -0.9832  1.0070
16697TIP3    H271583   4.760   4.209  15.755  0.0861 -1.4118 -2.4058
16698TIP3   OH271584   2.893   1.530   0.073  0.1335  0.5413  0.1134
16698TIP3    H171585   2.975   1.481   0.076  0.8352  1.6725  0.3038
16698TIP3    H271586   2.902   1.596   0.142 -0.3761  1.5348 -0.7360
16699TIP3   OH271587   4.649   3.073   5.574 -0.6739 -0.4307  0.3788
16699TIP3    H171588   4.553   3.068   5.577 -0.7049 -0.1138  0.0075
16699TIP3    H271589   4.667   3.157   5.531 -0.2263 -0.3466  0.7256
16700TIP3   OH271590   3.470   2.358  16.629 -0.3808 -0.3129 -0.1877
16700TIP3    H171591   3.476   2.403  16.713  1.4972 -2.5586  0.9569
16700TIP3    H271592   3.552   2.379  16.584 -0.0491 -1.5333 -0.1769
16701TIP3   OH271593   0.795   0.350   4.641  0.3365 -0.2141 -0.0331
16701TIP3    H171594   0.704   0.359   4.670  0.3098  2.1483 -0.6685
16701TIP3    H271595   0.847   0.387   4.713  0.4663  2.4158 -1.3408
16702TIP3   OH271596   4.029   5.817   1.992  0.4309 -0.0600 -0.4242
16702TIP3    H171597   4.094   5.758   2.030 -1.8235 -1.0859  2.1057
16702TIP3    H271598   4.014   5.782   1.904 -1.0635 -3.6876  1.0672
16703TIP3   OH271599   5.145   6.033  12.172 -0.0528  0.0250 -0.2804
16703TIP3    H171600   5.076   5.966  12.162  0.2029 -0.4824  1.0983
16703TIP3    H271601   5.141   6.084  12.091 -1.4511 -0.5584 -0.6102
16704TIP3   OH271602   3.074   2.199   3.791 -0.4886 -0.3612 -0.2081
16704TIP3    H171603   2.983   2.211   3.816 -0.3156  0.6023  0.0001
16704TIP3    H271604   3.122   2.200   3.874 -0.1699  0.3501 -0.3928
16705TIP3   OH271605   4.569   1.754  15.261 -0.7052 -0.5128  0.3687
16705TIP3    H171606   4.567   1.659  15.266 -0.4411 -0.5565 -0.2969
16705TIP3    H271607   4.510   1.776  15.189 -3.4335  0.0207  2.5962
16706TIP3   OH271608   4.071   5.166   0.297  0.0394  0.3275 -0.3905
16706TIP3    H171609   4.150   5.216   0.280  0.6974 -0.0524  1.3761
16706TIP3    H271610   4.066   5.159   0.392 -1.0097 -1.3885 -0.5150
16707TIP3   OH271611   3.120   4.649   5.578 -0.2890 -0.3354 -0.1128
16707TIP3    H171612   3.080   4.736   5.577 -0.6680 -0.3273  3.3935
16707TIP3    H271613   3.055   4.594   5.622  0.5795 -2.0992 -0.9298
16708TIP3   OH271614   2.704   3.609   1.543  0.8848  0.0047  0.0325
16708TIP3    H171615   2.673   3.622   1.453  0.5456 -0.1421  0.1267
16708TIP3    H271616   2.642   3.547   1.581 -0.5825  2.1123  1.2324
16709TIP3   OH271617   2.821   2.738   5.220 -0.0049 -0.5171  0.6320
16709TIP3    H171618   2.764   2.765   5.147  0.0094 -0.7481  0.5351
16709TIP3    H271619   2.907   2.772   5.196 -0.6119  2.5195  2.1878
16710TIP3   OH271620   6.483   5.591   1.087 -0.4768 -0.2846 -0.2565
16710TIP3    H171621   6.562   5.644   1.098 -1.2333  0.5045  2.0105
16710TIP3    H271622   6.446   5.620   1.004  1.1905 -0.1282 -0.9847
16711TIP3   OH271623   1.759   5.195   4.024 -0.1212  0.0918  0.2475
16711TIP3    H171624   1.809   5.114   4.028 -1.4690 -0.8210 -0.4826
16711TIP3    H271625   1.701   5.183   3.949 -0.3093  1.7696  0.0906
16712TIP3   OH271626   3.989   5.139   5.244  0.4623 -0.5217  0.5065
16712TIP3    H171627   4.007   5.101   5.158 -0.0089  1.4679 -0.5408
16712TIP3    H271628   4.074   5.149   5.285  0.7448 -0.9369  0.0283
16713TIP3   OH271629   3.984   4.380  15.901  0.4253 -0.3875  0.1013
16713TIP3    H171630   3.988   4.290  15.869 -1.7411 -0.5189  0.0859
16713TIP3    H271631   3.991   4.373  15.996 -1.5739 -0.7669  0.2461
16714TIP3   OH271632   2.431   2.649  14.513  0.7213  0.3887  0.2132
16714TIP3    H171633   2.465   2.625  14.599  0.5836  0.4654  0.2885
16714TIP3    H271634   2.395   2.567  14.478  3.3601 -0.3792 -1.0024
16715TIP3   OH271635   3.616   1.734  10.901 -0.2085 -0.5031  0.2817
16715TIP3    H171636   3.702   1.769  10.878 -0.0716  0.4828  2.0523
16715TIP3    H271637   3.562   1.812  10.914 -0.8849 -1.0521  0.8565
16716TIP3   OH271638   4.988   6.792  11.395 -0.2487 -0.5920 -0.0553
16716TIP3    H171639   5.028   6.715  11.354  1.4459 -0.7124  1.7006
16716TIP3    H271640   5.053   6.861  11.386 -0.7835 -0.0109  0.4554
16717TIP3   OH271641   3.809   1.468   5.598  0.2941  0.8280  0.5389
16717TIP3    H171642   3.784   1.379   5.625  1.3289 -0.5037 -2.4458
16717TIP3    H271643   3.725   1.513   5.586 -0.4237 -0.6436 -0.4224
16718TIP3   OH271644   6.537   4.465  12.855  0.3864 -0.1569  0.0006
16718TIP3    H171645   6.507   4.550  12.885  2.1501  0.1795  0.9276
16718TIP3    H271646   6.550   4.414  12.935 -0.9343 -1.4385 -0.5467
16719TIP3   OH271647   5.761   6.425  12.979  0.7151 -0.3419 -0.0823
16719TIP3    H171648   5.742   6.440  13.072  3.0562  1.6575  0.1754
16719TIP3    H271649   5.676   6.434  12.936 -0.3960 -1.1483  1.8217
16720TIP3   OH271650   6.446   2.477  14.516 -0.1420 -0.0229 -0.3428
16720TIP3    H171651   6.381   2.413  14.489  1.2541 -1.4277 -0.4842
16720TIP3    H271652   6.517   2.469  14.452  1.1643 -0.1348  1.0448
16721TIP3   OH271653   6.117   4.337  16.331 -0.3642  0.0006 -0.0375
16721TIP3    H171654   6.107   4.241  16.331 -1.0297  0.0250  2.3781
16721TIP3    H271655   6.093   4.364  16.419  0.3010  2.3817 -0.5247
16722TIP3   OH271656   1.439   5.184  10.351 -0.3575 -0.0643 -0.4473
16722TIP3    H171657   1.523   5.142  10.336  1.1182  3.0882 -2.0673
16722TIP3    H271658   1.408   5.207  10.263 -1.4306  1.4312  0.2730
16723TIP3   OH271659   2.963   6.617  16.777  0.5034 -0.0341 -0.0355
16723TIP3    H171660   3.031   6.629  16.710  0.6118 -0.6835 -0.0453
16723TIP3    H271661   3.007   6.632  16.860  0.7889 -0.9851 -0.0117
16724TIP3   OH271662   5.221   5.220  11.139 -0.0213 -0.3291  0.3232
16724TIP3    H171663   5.207   5.207  11.045 -1.0690 -1.3612  0.5998
16724TIP3    H271664   5.207   5.134  11.177  2.0614 -0.3184  1.2819
16725TIP3   OH271665   3.492   6.560   3.575 -0.4448  0.3094 -0.0462
16725TIP3    H171666   3.449   6.476   3.556 -0.5555 -0.0836  1.7846
16725TIP3    H271667   3.510   6.597   3.489 -1.0618 -1.2530 -0.8946
16726TIP3   OH271668   6.379   5.328   0.086 -0.4587  0.2640  0.2568
16726TIP3    H171669   6.393   5.264   0.015  0.4904  0.5386  0.1777
16726TIP3    H271670   6.289   5.312   0.115 -1.2713  0.8670 -1.7360
16727TIP3   OH271671   2.796   1.005   5.124 -0.5430  0.0693  0.1495
16727TIP3    H171672   2.874   0.955   5.147 -0.8364  0.3044  1.7464
16727TIP3    H271673   2.728   0.973   5.184 -1.6021  0.1038 -0.9772
16728TIP3   OH271674   0.268   5.087   5.440  0.8231  0.3113  0.7853
16728TIP3    H171675   0.324   5.129   5.505  2.1257  0.2168 -0.2453
16728TIP3    H271676   0.282   4.993   5.452 -0.7602  0.1844  1.9258
16729TIP3   OH271677   3.820   0.824  15.038 -0.7313  0.5733 -0.1894
16729TIP3    H171678   3.786   0.906  15.074 -0.7739 -0.0779  1.3110
16729TIP3    H271679   3.832   0.842  14.945  0.1385  2.5746  0.2589
16730TIP3   OH271680   4.184   6.446  11.077 -0.1743 -0.5396  0.2066
16730TIP3    H171681   4.220   6.407  11.157  0.9767 -0.5896 -0.3129
16730TIP3    H271682   4.236   6.525  11.064  0.6153 -1.2624 -1.2423
16731TIP3   OH271683   4.399   4.174   2.058  0.2014  0.0495  0.2339
16731TIP3    H171684   4.429   4.087   2.034  0.1928  0.5007 -1.6392
16731TIP3    H271685   4.415   4.181   2.152 -1.0451 -2.4387  0.7077
16732TIP3   OH271686   3.257   0.391   3.544 -0.4905  0.9112 -0.1248
16732TIP3    H171687   3.191   0.322   3.557  0.1779  0.3782  0.5185
16732TIP3    H271688   3.301   0.368   3.462  1.1912 -0.6916  1.1473
16733TIP3   OH271689   3.457   6.385   2.793  0.0678 -0.3783 -0.4179
16733TIP3    H171690   3.440   6.472   2.829 -1.6686 -0.9755  0.3452
16733TIP3    H271691   3.551   6.372   2.803  0.1087  0.7663  0.9855
16734TIP3   OH271692   5.747   2.511   5.649 -0.3426 -0.1749  0.3617
16734TIP3    H171693   5.744   2.512   5.744 -0.1870  1.1984  0.3629
16734TIP3    H271694   5.834   2.475   5.628  0.1923  0.8548  0.7644
16735TIP3   OH271695   6.580   2.363  11.995  0.4021 -0.2204 -0.4520
16735TIP3    H171696   6.562   2.346  11.902 -2.4842  0.3522 -0.0881
16735TIP3    H271697   6.504   2.328  12.041  0.3797  2.0851  1.4384
16736TIP3   OH271698   5.550   3.188  15.397  0.2171  0.0848 -0.1810
16736TIP3    H171699   5.501   3.249  15.451 -0.7175 -0.8968  0.0905
16736TIP3    H271700   5.640   3.221  15.399  0.2189  0.0526  1.9906
16737TIP3   OH271701   3.355   3.988   0.907  0.6346 -0.0789 -0.3016
16737TIP3    H171702   3.447   4.013   0.892  1.2646 -0.2647  2.6457
16737TIP3    H271703   3.347   3.902   0.867  1.7154  0.0159 -0.7685
16738TIP3   OH271704   2.653   2.849  16.585  0.3471 -0.3979  0.2033
16738TIP3    H171705   2.615   2.889  16.663 -0.4203 -1.2967  0.3211
16738TIP3    H271706   2.607   2.890  16.512  0.9569  0.3347  0.2255
16739TIP3   OH271707   0.144   4.833   1.093  0.3485 -0.1569 -0.1580
16739TIP3    H171708   0.229   4.872   1.116  0.5031 -0.2485 -0.5641
16739TIP3    H271709   0.119   4.876   1.012  0.0790 -0.2441 -0.1213
16740TIP3   OH271710   6.532   1.686   2.406 -0.1564  0.1922  0.9449
16740TIP3    H171711   6.504   1.602   2.371  1.8742 -0.4870  0.8377
16740TIP3    H271712   6.580   1.728   2.335  1.4707  0.0728  1.9115
16741TIP3   OH271713   4.711   6.450   1.850 -0.2864 -0.3343  0.1423
16741TIP3    H171714   4.650   6.390   1.892 -1.5932  2.3285  2.4475
16741TIP3    H271715   4.658   6.499   1.787  0.3590 -0.4492 -0.5104
16742TIP3   OH271716   1.501   0.607  11.537  0.1046 -0.1745 -0.0268
16742TIP3    H171717   1.414   0.588  11.502 -1.1528 -1.5329  3.4417
16742TIP3    H271718   1.548   0.524  11.530  0.2958 -0.0897  0.2444
16743TIP3   OH271719   2.125   0.014  10.381 -0.2555  0.1888 -0.5134
16743TIP3    H171720   2.103  -0.067  10.427  0.3966 -0.2259 -0.9208
16743TIP3    H271721   2.044   0.065  10.384 -0.3730 -0.0231  0.6640
16744TIP3   OH271722   0.125   3.793   2.575  0.1365 -0.0188  0.1703
16744TIP3    H171723   0.054   3.832   2.625  0.3619 -0.8422  1.1583
16744TIP3    H271724   0.118   3.699   2.593  1.3793 -0.1225  0.1525
16745TIP3   OH271725   2.125   2.461   3.753 -0.3742 -0.1667  0.3728
16745TIP3    H171726   2.149   2.519   3.825  2.2479  0.4119 -0.8418
16745TIP3    H271727   2.148   2.374   3.783  0.3462  0.0301  0.4107
16746TIP3   OH271728   4.550   4.934   3.405  0.3612 -0.1093  0.5149
16746TIP3    H171729   4.482   4.892   3.458 -0.6287  0.1464 -0.5025
16746TIP3    H271730   4.535   5.028   3.418  0.5916 -0.0525  0.3651
16747TIP3   OH271731   1.214   5.645   2.040 -0.6225  0.2795  0.7462
16747TIP3    H171732   1.293   5.599   2.070 -1.1967 -0.5994  0.9386
16747TIP3    H271733   1.227   5.736   2.067  0.9297  0.4463 -0.3999
16748TIP3   OH271734   2.039   0.572  14.185  0.3810 -0.8130  0.2027
16748TIP3    H171735   2.081   0.658  14.185  1.3111 -1.2537  0.0112
16748TIP3    H271736   2.055   0.537  14.097 -0.9192 -0.7447 -0.0682
16749TIP3   OH271737   3.268   0.604   4.763  0.2283  0.2486  0.3973
16749TIP3    H171738   3.204   0.671   4.789 -0.7240 -1.4984  2.9888
16749TIP3    H271739   3.238   0.575   4.677 -0.8564  1.3654  0.3706
16750TIP3   OH271740   5.884   6.284   0.662  0.0318 -0.4278 -0.0195
16750TIP3    H171741   5.902   6.333   0.743 -0.1636 -0.7536  0.2210
16750TIP3    H271742   5.790   6.295   0.648  0.4914  2.0111 -1.7552
16751TIP3   OH271743   6.026   3.847   0.633  0.0689  0.0779  0.2331
16751TIP3    H171744   6.068   3.877   0.552 -0.2844  0.0495  0.0408
16751TIP3    H271745   6.099   3.835   0.694  0.5631 -1.6496 -0.6112
16752TIP3   OH271746   0.540   5.631   0.395  0.3190  0.4924 -0.4404
16752TIP3    H171747   0.564   5.625   0.302  1.2823  2.1633 -0.3315
16752TIP3    H271748   0.475   5.562   0.407  0.1301  0.2766 -2.3719
16753TIP3   OH271749   0.676   1.826  15.458 -0.5088  0.9404  0.0814
16753TIP3    H171750   0.714   1.912  15.476  1.0820  0.1102  0.8765
16753TIP3    H271751   0.676   1.820  15.362  3.1225  0.3442 -0.0427
16754TIP3   OH271752   4.168   0.388   5.518  0.0156  0.0883  0.5331
16754TIP3    H171753   4.185   0.296   5.541  0.0851  0.6534  2.9774
16754TIP3    H271754   4.160   0.433   5.602  1.7525  2.6746 -0.5689
16755TIP3   OH271755   5.026   4.609   0.466  0.0927 -0.6937  0.2075
16755TIP3    H171756   5.061   4.689   0.506 -1.1095  0.0669 -0.2341
16755TIP3    H271757   4.933   4.609   0.488  0.5065 -3.4964  2.7275
16756TIP3   OH271758   5.928   0.085  14.234 -0.3233 -0.2183 -0.0869
16756TIP3    H171759   5.968  -0.001  14.245  0.8033  0.3000  0.0710
16756TIP3    H271760   5.851   0.084  14.290  0.5460 -0.5982  1.1396
16757TIP3   OH271761   4.696   4.025   1.095  0.4070  0.2340  0.4406
16757TIP3    H171762   4.700   4.121   1.087 -1.7084  0.6325  2.8814
16757TIP3    H271763   4.605   4.004   1.075  1.0777 -1.4423 -1.0349
16758TIP3   OH271764   1.851   0.121   1.357  0.5919 -0.4066  0.1149
16758TIP3    H171765   1.854   0.103   1.264 -0.3925 -0.6109  0.1143
16758TIP3    H271766   1.884   0.041   1.399 -0.3956 -0.8838 -0.0084
16759TIP3   OH271767   1.984   1.824   1.359  0.7863  0.5272  0.1573
16759TIP3    H171768   1.936   1.884   1.417  1.5893  1.0374  0.3103
16759TIP3    H271769   2.008   1.751   1.416  0.5740  0.4776  0.1852
16760TIP3   OH271770   6.277   6.371   1.329  0.5529 -0.0745 -0.2689
16760TIP3    H171771   6.252   6.449   1.378  1.0920 -1.4949  2.4844
16760TIP3    H271772   6.372   6.379   1.317  0.5007  0.0142 -0.6593
16761TIP3   OH271773   5.488   3.531   5.378 -0.1436  0.3005 -0.6456
16761TIP3    H171774   5.499   3.491   5.292  0.0040 -1.0777 -0.0134
16761TIP3    H271775   5.553   3.601   5.380 -0.8171  1.0053 -2.0102
16762TIP3   OH271776   4.663   2.667  15.577 -0.7013  0.2653  0.5160
16762TIP3    H171777   4.601   2.740  15.572  1.1334  1.9711  1.5919
16762TIP3    H271778   4.679   2.656  15.671  0.5859 -0.1864  0.2613
16763TIP3   OH271779   5.831   5.631   3.767 -0.1083 -0.1854 -0.4016
16763TIP3    H171780   5.864   5.548   3.735 -2.6344 -0.7769 -1.7345
16763TIP3    H271781   5.814   5.617   3.860  0.7374 -0.7158 -0.3243
16764TIP3   OH271782   4.403   5.294  17.157  0.0752 -0.1381  0.3841
16764TIP3    H171783   4.350   5.242  17.097  1.4432 -1.9549  0.6223
16764TIP3    H271784   4.425   5.373  17.108  1.0683 -1.5060 -1.5506
16765TIP3   OH271785   1.985   1.628   4.450 -0.2292  0.0598  0.5801
16765TIP3    H171786   1.953   1.704   4.402 -0.4387  0.0398  0.6828
16765TIP3    H271787   1.919   1.560   4.435  0.2594 -0.2902  0.0046
16766TIP3   OH271788   4.410   1.562   3.401 -0.0467  0.2178  0.5744
16766TIP3    H171789   4.439   1.472   3.414  0.6957  0.0850 -1.5031
16766TIP3    H271790   4.323   1.567   3.441 -0.5658 -1.7448 -0.2274
16767TIP3   OH271791   2.157   5.689  14.729 -0.3108  0.3032  0.2561
16767TIP3    H171792   2.116   5.766  14.689  1.4320  1.5969  0.8491
16767TIP3    H271793   2.135   5.694  14.821 -1.9986 -1.1621 -0.0051
16768TIP3   OH271794   6.098   5.001  13.044 -0.6215  0.0407  0.4666
16768TIP3    H171795   6.139   5.067  12.987 -1.3462 -0.2128 -0.3648
16768TIP3    H271796   6.166   4.980  13.108  0.8596 -0.9538 -1.3535
16769TIP3   OH271797   0.577   4.774   5.220  0.2019  0.0975 -0.0069
16769TIP3    H171798   0.514   4.738   5.281  0.3673 -0.7419 -0.3256
16769TIP3    H271799   0.538   4.760   5.134 -0.0868  1.3799 -0.1079
16770TIP3   OH271800   3.070   4.875   4.826 -0.0830  0.0089 -0.4537
16770TIP3    H171801   3.062   4.791   4.872  0.5034  1.2916  2.1648
16770TIP3    H271802   2.980   4.900   4.807 -0.7679  1.1671  3.5120
16771TIP3   OH271803   0.305   5.012   1.865 -0.2464  0.1898 -0.1634
16771TIP3    H171804   0.215   5.045   1.873 -0.8067 -1.0609 -0.8846
16771TIP3    H271805   0.294   4.918   1.850  1.0753  0.3520 -2.7332
16772TIP3   OH271806   2.781   6.522  11.027 -0.4229  0.4118 -0.1305
16772TIP3    H171807   2.770   6.608  11.066  0.8986  0.3742  0.3733
16772TIP3    H271808   2.695   6.501  10.990 -1.2030  1.2260  1.1583
16773TIP3   OH271809   3.479   0.014  11.184  0.5830  0.0961 -0.7532
16773TIP3    H171810   3.424   0.093  11.188  0.6948  0.1360  1.0994
16773TIP3    H271811   3.520   0.017  11.098 -0.9618  0.9992 -1.4965
16774TIP3   OH271812   6.718   2.863   5.013  0.3458 -0.2551 -0.0586
16774TIP3    H171813   6.807   2.870   4.978 -0.4604  0.8035 -2.1122
16774TIP3    H271814   6.667   2.925   4.960 -1.5858 -0.6892  1.1857
16775TIP3   OH271815   0.149   4.903   5.686 -0.4680 -0.1841  0.1254
16775TIP3    H171816   0.055   4.908   5.704 -0.4772  1.4950 -0.2831
16775TIP3    H271817   0.182   4.991   5.705  1.2130 -0.9903  1.1815
16776TIP3   OH271818   0.357   2.779  14.341  0.3032  0.5115 -0.0777
16776TIP3    H171819   0.399   2.712  14.394  1.7261  0.2451 -1.4785
16776TIP3    H271820   0.275   2.797  14.386  0.0724 -1.8623  0.5803
16777TIP3   OH271821   2.009   1.614   2.129  0.3035  0.3034  0.0313
16777TIP3    H171822   2.028   1.708   2.136  1.4589  0.1564 -0.8840
16777TIP3    H271823   1.922   1.610   2.088  1.5696  0.9946 -2.9289
16778TIP3   OH271824   3.944   4.604   3.260 -0.2917 -0.0043 -0.6529
16778TIP3    H171825   3.938   4.643   3.347 -1.8496  0.6110 -0.9991
16778TIP3    H271826   4.028   4.634   3.226 -0.0018  0.3653  0.3518
16779TIP3   OH271827   4.524   1.211   0.762  0.1642  0.4014  0.1960
16779TIP3    H171828   4.560   1.148   0.701  0.3774 -2.2109  2.8007
16779TIP3    H271829   4.429   1.203   0.752  0.1974  0.8344 -0.5411
16780TIP3   OH271830   0.674   5.224   4.621  0.3898 -0.3213 -0.8526
16780TIP3    H171831   0.704   5.225   4.531  0.3886 -0.2965 -0.8525
16780TIP3    H271832   0.634   5.137   4.632 -1.9531  0.5964 -1.6354
16781TIP3   OH271833   6.768   0.552  16.911 -0.0152 -0.1846 -0.0508
16781TIP3    H171834   6.693   0.556  16.970 -1.4207  0.0038 -1.7376
16781TIP3    H271835   6.735   0.505  16.834  1.8459 -0.7923 -0.5429
16782TIP3   OH271836   4.072   5.891  16.396 -0.2914 -0.2927 -0.5996
16782TIP3    H171837   4.003   5.880  16.462 -0.3606  0.5439 -0.5239
16782TIP3    H271838   4.078   5.986  16.384  0.7237 -0.3684 -0.7410
16783TIP3   OH271839   3.794   0.546  13.183 -0.0761 -0.0399 -0.0195
16783TIP3    H171840   3.699   0.557  13.183  0.1010  2.0235  0.5996
16783TIP3    H271841   3.822   0.579  13.269  1.1935 -0.7220 -0.1441
16784TIP3   OH271842   6.464   4.056  15.001 -0.5393 -0.3233 -0.0745
16784TIP3    H171843   6.437   4.138  14.960 -0.9533 -0.8280 -0.8276
16784TIP3    H271844   6.492   4.081  15.089 -0.1822  0.6941 -0.4641
16785TIP3   OH271845   0.238   2.552   2.801 -0.4623 -0.4961  0.0614
16785TIP3    H171846   0.172   2.621   2.804  0.0285 -0.0514  2.4716
16785TIP3    H271847   0.227   2.504   2.883  1.4285 -1.1473 -0.0160
16786TIP3   OH271848   5.708   6.198   3.360  0.1554  0.8814 -0.0819
16786TIP3    H171849   5.801   6.205   3.343 -0.3584  1.2116 -3.3865
16786TIP3    H271850   5.668   6.270   3.311 -1.9417 -0.1157  0.0129
16787TIP3   OH271851   6.254   3.892   5.454  0.4598 -0.7339  0.1630
16787TIP3    H171852   6.209   3.815   5.421  0.7755 -0.4586 -0.9536
16787TIP3    H271853   6.343   3.862   5.474  0.6830 -0.5920 -0.5981
16788TIP3   OH271854   2.522   4.913  12.621  0.0521  0.0836 -1.0014
16788TIP3    H171855   2.449   4.851  12.624  0.5742 -0.5729 -1.6181
16788TIP3    H271856   2.576   4.883  12.548 -0.1236  1.7582 -1.8622
16789TIP3   OH271857   4.673   6.146  12.039  0.2756 -0.5232 -0.3849
16789TIP3    H171858   4.625   6.136  11.957 -1.7086  1.8448  0.3678
16789TIP3    H271859   4.608   6.131  12.107  1.0169  0.9843  0.7058
16790TIP3   OH271860   0.828   3.276  11.490 -0.1239 -0.2403  0.0146
16790TIP3    H171861   0.773   3.213  11.536  0.4705  0.1247  1.2678
16790TIP3    H271862   0.896   3.299  11.553  0.3489  0.7686 -0.8352
16791TIP3   OH271863   5.865   4.482  14.347 -0.2458 -0.2120  0.6061
16791TIP3    H171864   5.812   4.433  14.284 -1.3908 -1.5191  2.4751
16791TIP3    H271865   5.948   4.433  14.352  0.8534  1.2847 -1.6019
16792TIP3   OH271866   2.561   6.096  14.245 -0.4015  0.4512  0.4449
16792TIP3    H171867   2.636   6.096  14.185  0.9039  1.2904  1.9928
16792TIP3    H271868   2.534   6.188  14.250  0.6434  0.7137  2.4149
16793TIP3   OH271869   4.223   2.225   4.346  0.2624 -0.4237 -0.6365
16793TIP3    H171870   4.213   2.196   4.255  0.5427 -0.8253 -0.5416
16793TIP3    H271871   4.312   2.258   4.351 -0.1059  0.6356 -0.7853
16794TIP3   OH271872   6.580   5.352   0.960 -0.0710  0.6257 -0.5970
16794TIP3    H171873   6.551   5.443   0.972  1.1502  1.1287 -1.2268
16794TIP3    H271874   6.675   5.359   0.945  0.1116 -0.7940 -0.2624
16795TIP3   OH271875   3.255   3.683  14.568  0.0065 -0.4956 -0.2267
16795TIP3    H171876   3.328   3.738  14.598  0.2624 -1.0390  0.1583
16795TIP3    H271877   3.176   3.729  14.599  0.1890 -0.0373 -0.4272
16796TIP3   OH271878   0.555   1.555   5.652 -0.1606 -0.0621 -0.2977
16796TIP3    H171879   0.647   1.542   5.628 -0.0877  0.6099 -0.3870
16796TIP3    H271880   0.531   1.474   5.696  0.3531 -0.4134 -0.6470
16797TIP3   OH271881   1.443   3.936  16.784 -0.1116 -0.0064 -0.5557
16797TIP3    H171882   1.412   3.846  16.775 -0.1355  0.0419 -0.9585
16797TIP3    H271883   1.477   3.941  16.874  0.0634 -0.4705 -0.5945
16798TIP3   OH271884   6.343   4.101  13.095  0.1559  0.2670  0.8193
16798TIP3    H171885   6.342   4.048  13.174  0.9795  0.8878  1.2613
16798TIP3    H271886   6.434   4.129  13.086  0.1296  0.0090 -0.4817
16799TIP3   OH271887   0.674   1.889   3.197 -0.5380 -0.2085  0.1758
16799TIP3    H171888   0.709   1.968   3.239  1.3559 -0.5736 -0.6543
16799TIP3    H271889   0.638   1.837   3.269  2.6458 -0.8389  1.4512
16800TIP3   OH271890   0.075   3.192  10.729 -0.1216  0.0118 -0.2147
16800TIP3    H171891   0.039   3.279  10.713  0.3699 -0.2708 -3.4636
16800TIP3    H271892   0.005   3.132  10.705  0.7481 -0.4791 -1.6316
16801TIP3   OH271893   3.278   1.445   0.436 -0.1404  0.2380 -0.2531
16801TIP3    H171894   3.258   1.469   0.345  0.2796  1.9227  0.0671
16801TIP3    H271895   3.218   1.373   0.455  0.2218 -0.6073 -2.0650
16802TIP3   OH271896   6.345   1.230   3.243  0.2856  0.0113  0.1316
16802TIP3    H171897   6.323   1.267   3.157  1.7164  0.3817 -0.1042
16802TIP3    H271898   6.297   1.284   3.306 -2.0349 -1.2120 -0.4534
16803TIP3   OH271899   3.361   0.838  11.220 -0.9725  0.3225 -0.1220
16803TIP3    H171900   3.418   0.857  11.146  0.3169 -0.6790  0.5846
16803TIP3    H271901   3.346   0.743  11.215 -1.3882  0.3472  0.5532
16804TIP3   OH271902   1.868   3.568   0.262  0.2290  0.1625 -0.7125
16804TIP3    H171903   1.928   3.494   0.259  2.1984  1.5724  1.0100
16804TIP3    H271904   1.889   3.613   0.343 -1.0731  2.4869 -1.5667
16805TIP3   OH271905   1.367   2.079   2.067 -0.2001 -0.5260 -0.3694
16805TIP3    H171906   1.316   2.051   2.143 -2.4705  0.7361 -1.3342
16805TIP3    H271907   1.414   2.156   2.097 -1.9114  0.5999 -0.4642
16806TIP3   OH271908   1.688   2.552   0.921  0.4213 -0.4112  0.1922
16806TIP3    H171909   1.634   2.532   0.844  0.2278  0.2690  0.1392
16806TIP3    H271910   1.693   2.470   0.969  1.0143 -0.9940 -0.8347
16807TIP3   OH271911   1.770   4.023   4.803  0.1537  0.0406 -0.1275
16807TIP3    H171912   1.680   4.034   4.772 -0.4388  0.7124  1.7066
16807TIP3    H271913   1.820   4.002   4.724 -1.9103 -2.2730 -0.9380
16808TIP3   OH271914   1.590   5.567   3.442  0.5780 -0.3326  0.2794
16808TIP3    H171915   1.623   5.592   3.528  1.1674 -0.4707  0.0983
16808TIP3    H271916   1.668   5.546   3.391  0.1847 -1.0642 -0.0376
16809TIP3   OH271917   4.026   1.064  14.572  0.4557 -0.5177  0.3323
16809TIP3    H171918   4.111   1.107  14.560 -0.5638  1.2220 -1.1333
16809TIP3    H271919   3.964   1.136  14.584 -0.8316 -1.7565  1.4330
16810TIP3   OH271920   5.738   5.601   4.012  0.2267  0.0226 -0.7569
16810TIP3    H171921   5.650   5.637   4.024 -0.1748 -0.8839 -0.8522
16810TIP3    H271922   5.748   5.540   4.085  1.2739  1.0303 -0.0398
16811TIP3   OH271923   2.325   0.557   5.584 -0.0721  0.0368 -0.2772
16811TIP3    H171924   2.415   0.588   5.574  0.0545 -1.0459 -4.6374
16811TIP3    H271925   2.273   0.619   5.533 -0.8915 -2.3250 -2.5072
16812TIP3   OH271926   6.549   6.740  12.133 -0.3115 -0.0620  0.7788
16812TIP3    H171927   6.472   6.688  12.153 -1.2219  1.2660  0.8390
16812TIP3    H271928   6.606   6.681  12.084 -2.2492 -0.5102 -1.0612
16813TIP3   OH271929   5.733   6.212  14.656  0.1764 -0.4776  0.8433
16813TIP3    H171930   5.747   6.255  14.571 -1.4237 -1.6520 -0.0606
16813TIP3    H271931   5.816   6.224  14.702  1.3659 -0.4384 -1.1830
16814TIP3   OH271932   0.443   0.007  15.821 -0.3247 -0.3459 -0.4511
16814TIP3    H171933   0.501  -0.059  15.858  1.6578  2.4655  1.7925
16814TIP3    H271934   0.500   0.063  15.768 -1.9404 -0.2501 -2.2322
16815TIP3   OH271935   0.504   6.301  16.820  0.0197  0.1971 -0.2878
16815TIP3    H171936   0.472   6.279  16.908  0.2689  1.3423  0.1180
16815TIP3    H271937   0.585   6.252  16.811 -0.6374 -0.8983 -0.3816
16816TIP3   OH271938   2.129   3.563  15.376 -0.0654  0.2997 -0.1458
16816TIP3    H171939   2.060   3.531  15.434  1.1232  1.3004  1.9205
16816TIP3    H271940   2.210   3.530  15.414  0.7280  0.4774 -1.6059
16817TIP3   OH271941   4.103   3.643   2.418  0.4407 -0.4060  0.1065
16817TIP3    H171942   4.153   3.566   2.445  0.4700 -0.2328  0.5524
16817TIP3    H271943   4.027   3.644   2.476  0.2534 -0.3014 -0.1383
16818TIP3   OH271944   1.606   2.582   0.166  0.1124  0.2354  0.0988
16818TIP3    H171945   1.577   2.494   0.189  0.2253  0.6035  1.7906
16818TIP3    H271946   1.528   2.625   0.130 -0.8258  0.4081  2.2047
16819TIP3   OH271947   3.016   0.926   0.958  0.1153  0.6974 -0.0338
16819TIP3    H171948   2.998   1.015   0.988  0.2123  0.8815 -0.5117
16819TIP3    H271949   2.968   0.870   1.019 -1.0032  1.1314 -0.4922
16820TIP3   OH271950   6.499   0.850   2.265 -0.0856  0.0774  0.0448
16820TIP3    H171951   6.574   0.868   2.322 -0.7151  0.8030  0.6725
16820TIP3    H271952   6.538   0.826   2.181  0.8622 -1.0868  0.7899
16821TIP3   OH271953   4.677   1.504   3.264 -0.3050 -0.1204  0.1546
16821TIP3    H171954   4.693   1.597   3.278 -0.6874 -0.3039  2.0358
16821TIP3    H271955   4.592   1.488   3.303  0.3342 -1.4960  1.0542
16822TIP3   OH271956   6.077   2.852  17.061 -0.1812  0.3851  0.2954
16822TIP3    H171957   6.092   2.764  17.025 -1.6806 -0.0883  0.7410
16822TIP3    H271958   6.157   2.901  17.040 -0.1564 -0.4604 -1.8768
16823TIP3   OH271959   3.475   1.947   4.679 -0.6412  0.7606 -0.1785
16823TIP3    H171960   3.398   2.002   4.690  0.3017  1.7351  2.2668
16823TIP3    H271961   3.547   2.008   4.668  0.2646  0.0271  1.3370
16824TIP3   OH271962   3.676   6.060   1.631 -0.2784 -0.5024  0.1227
16824TIP3    H171963   3.751   6.006   1.603  0.6676  0.1665  1.2902
16824TIP3    H271964   3.712   6.118   1.697 -1.1427  2.0066 -1.4955
16825TIP3   OH271965   3.748   2.532   1.556 -0.5301 -0.1189 -0.6124
16825TIP3    H171966   3.717   2.478   1.629  0.7194 -1.7114 -1.2032
16825TIP3    H271967   3.747   2.621   1.590 -3.4628 -0.3306  0.1289
16826TIP3   OH271968   4.903   2.461   4.830  0.6644  0.4547 -0.4621
16826TIP3    H171969   4.823   2.502   4.862  0.9032  0.0459  0.7041
16826TIP3    H271970   4.898   2.371   4.862  1.7962  0.5479  0.0047
16827TIP3   OH271971   0.145   3.989   1.221  0.4887 -0.5917  0.1406
16827TIP3    H171972   0.106   4.075   1.236  1.0499 -0.4385  0.7633
16827TIP3    H271973   0.227   4.008   1.176  0.8001 -0.7715  0.6299
16828TIP3   OH271974   4.219   5.112  16.190 -0.3122 -0.0147 -0.3751
16828TIP3    H171975   4.278   5.185  16.175  0.8877 -0.9135 -0.1328
16828TIP3    H271976   4.202   5.076  16.103 -0.9938  0.5843 -0.5080
16829TIP3   OH271977   2.345   5.304   3.468  0.3271 -0.4152  0.1675
16829TIP3    H171978   2.432   5.341   3.479  0.0130  0.3186  0.2056
16829TIP3    H271979   2.354   5.213   3.498  0.5904  0.2220  2.1671
16830TIP3   OH271980   6.156   2.337   1.987  0.2536 -0.4790 -0.7788
16830TIP3    H171981   6.125   2.427   1.990 -1.7639 -1.1206  0.1544
16830TIP3    H271982   6.101   2.291   2.051  1.3304 -2.3365 -1.1073
16831TIP3   OH271983   0.787   1.659   0.864 -0.0832 -0.3776  0.5880
16831TIP3    H171984   0.858   1.649   0.801 -0.3189  1.4636 -0.0197
16831TIP3    H271985   0.823   1.717   0.931 -1.3899  1.6999 -0.4192
16832TIP3   OH271986   0.949   4.251  12.601 -0.1095  0.3259 -0.1302
16832TIP3    H171987   1.039   4.220  12.595 -0.2516 -0.9612  2.7338
16832TIP3    H271988   0.951   4.323  12.664 -1.1002 -0.0483  0.3715
16833TIP3   OH271989   6.138   1.132  14.637 -0.2692 -0.2685 -0.1404
16833TIP3    H171990   6.073   1.069  14.667 -1.0929 -0.1493 -1.5933
16833TIP3    H271991   6.221   1.085  14.641 -0.4952 -0.6053  1.1901
16834TIP3   OH271992   5.314   4.648  13.746 -0.3301  1.1002 -0.0296
16834TIP3    H171993   5.310   4.621  13.838  0.5579  0.1584 -0.2523
16834TIP3    H271994   5.360   4.732  13.748 -0.0425  0.9364  0.3617
16835TIP3   OH271995   5.874   5.914   1.653 -0.0615  0.0014 -0.5498
16835TIP3    H171996   5.928   5.908   1.732  1.3034  0.7652 -1.3990
16835TIP3    H271997   5.930   5.882   1.583 -0.9032  0.3129 -1.3876
16836TIP3   OH271998   3.702   1.608  16.876  0.0010 -0.0337  0.2468
16836TIP3    H171999   3.644   1.670  16.918  2.1356  1.8622  0.5934
16836TIP3    H272000   3.749   1.566  16.948  0.2622 -0.2954 -0.0706
16837TIP3   OH272001   1.085   6.638  13.032  0.5165  0.2588 -0.2894
16837TIP3    H172002   1.011   6.694  13.058  1.4450  1.9133 -1.0570
16837TIP3    H272003   1.077   6.561  13.088 -1.3080  0.7556  0.2213
16838TIP3   OH272004   1.171   0.861   4.837 -0.1073 -0.4904 -0.1780
16838TIP3    H172005   1.151   0.843   4.928 -2.1847  0.2165 -0.4457
16838TIP3    H272006   1.110   0.806   4.787 -1.2710  1.4744 -1.0564
16839TIP3   OH272007   4.169   1.163  13.343  0.2740 -0.3292  0.0345
16839TIP3    H172008   4.214   1.232  13.392  0.0833  0.9683 -1.5160
16839TIP3    H272009   4.147   1.097  13.408  2.6253 -0.0742  1.1949
16840TIP3   OH272010   0.103   6.807   4.391 -0.0369  0.4304  0.3556
16840TIP3    H172011   0.081   6.740   4.327 -2.6554  1.8091 -0.3125
16840TIP3    H272012   0.019   6.845   4.417  1.1858  2.0865  2.2277
16841TIP3   OH272013   2.058   3.383  11.110  0.3778 -0.4642  0.0836
16841TIP3    H172014   2.049   3.464  11.060  0.1213 -0.5137  0.0504
16841TIP3    H272015   2.088   3.319  11.045  0.0867 -0.5179  0.0024
16842TIP3   OH272016   1.805   3.235  13.519  0.9501  0.5765  0.3039
16842TIP3    H172017   1.777   3.229  13.610  1.4471  1.5553  0.5322
16842TIP3    H272018   1.892   3.194  13.518  0.7067  0.0519  0.1476
16843TIP3   OH272019   1.519   2.240  14.886 -0.3053  0.4791  0.1091
16843TIP3    H172020   1.480   2.197  14.963 -1.4977 -1.9947 -1.7117
16843TIP3    H272021   1.611   2.214  14.888 -0.4094  0.1290  0.5453
16844TIP3   OH272022   6.225   2.797   1.759 -0.1912 -0.0960 -0.5902
16844TIP3    H172023   6.153   2.744   1.724 -1.1579  1.3854 -0.9163
16844TIP3    H272024   6.304   2.753   1.729 -0.8542 -2.7388  1.1420
16845TIP3   OH272025   3.190   5.058   5.013  0.5394 -0.2136  0.4727
16845TIP3    H172026   3.144   5.056   5.097  1.9770  0.5601  1.3227
16845TIP3    H272027   3.153   4.986   4.963  0.6569 -1.6390  2.3301
16846TIP3   OH272028   1.948   2.776   4.885 -0.0594  0.4471  0.2976
16846TIP3    H172029   1.870   2.817   4.922  0.6705 -0.3918  3.0218
16846TIP3    H272030   1.920   2.687   4.863  0.2631 -0.1836  2.2028
16847TIP3   OH272031   6.701   0.671   4.943  0.0425 -0.1338  0.2338
16847TIP3    H172032   6.627   0.717   4.983  1.2326  0.0969  2.3371
16847TIP3    H272033   6.774   0.684   5.004  1.2441 -2.2457 -0.6098
16848TIP3   OH272034   3.186   1.159   3.810 -0.1931  0.2261  0.1507
16848TIP3    H172035   3.192   1.064   3.801  1.9586  0.3136  0.2635
16848TIP3    H272036   3.240   1.180   3.887  2.7684  1.8439 -2.1489
16849TIP3   OH272037   0.997   4.063  12.359  0.3491 -0.2119 -0.0672
16849TIP3    H172038   1.070   4.003  12.341 -0.6007 -1.3167 -0.3725
16849TIP3    H272039   0.931   4.008  12.400 -0.3417  0.7617  0.1528
16850TIP3   OH272040   4.862   6.307  13.946  0.5256 -0.8425 -0.0046
16850TIP3    H172041   4.816   6.339  14.024 -0.3541  0.5646 -1.0432
16850TIP3    H272042   4.821   6.222  13.928 -1.3517  0.1127 -0.5632
16851TIP3   OH272043   5.040   2.273   3.683  0.2982  0.3818 -0.2847
16851TIP3    H172044   4.971   2.211   3.705  0.3241  0.3919 -0.1792
16851TIP3    H272045   4.996   2.338   3.628  0.0480  0.8289  0.4461
16852TIP3   OH272046   6.533   3.910   3.840 -0.6623  0.0143  0.2892
16852TIP3    H172047   6.466   3.849   3.871  0.4692 -0.5947  1.6231
16852TIP3    H272048   6.577   3.862   3.770 -1.4440  0.3358 -0.4482
16853TIP3   OH272049   2.503   4.233   1.615 -0.2210 -0.5358 -0.1911
16853TIP3    H172050   2.495   4.283   1.696  1.1112 -1.3091  0.4473
16853TIP3    H272051   2.432   4.266   1.559 -2.2480 -1.1791  1.8798
16854TIP3   OH272052   0.764   5.949  13.053  0.6163 -0.8393 -0.0022
16854TIP3    H172053   0.772   5.858  13.024 -0.4991 -0.4738 -1.5450
16854TIP3    H272054   0.810   5.999  12.986  1.1131 -0.2452  0.7776
16855TIP3   OH272055   2.249   2.694   5.316 -0.0904 -0.6947  0.0850
16855TIP3    H172056   2.279   2.606   5.295 -0.5839 -1.1469  1.1998
16855TIP3    H272057   2.198   2.683   5.397 -0.2403  0.5935  0.1790
16856TIP3   OH272058   1.434   4.910   2.082  0.1884  0.0065 -0.2611
16856TIP3    H172059   1.475   4.825   2.069  0.5625  0.1997 -0.3692
16856TIP3    H272060   1.507   4.969   2.102 -0.1769  0.0873  0.8781
16857TIP3   OH272061   0.736   0.891   0.461 -0.3552  0.0415 -0.4994
16857TIP3    H172062   0.691   0.816   0.423 -0.0787 -0.8833  0.9270
16857TIP3    H272063   0.816   0.901   0.409 -0.8291 -0.0682 -1.2614
16858TIP3   OH272064   1.958   3.068   1.561  0.2429 -0.6212 -0.4462
16858TIP3    H172065   2.035   3.040   1.511  0.4747 -0.3604 -0.2371
16858TIP3    H272066   1.993   3.100   1.644 -0.0843 -0.4297 -0.3800
16859TIP3   OH272067   4.640   3.571  10.811 -0.2658 -0.1269 -0.1137
16859TIP3    H172068   4.569   3.508  10.822  0.6674 -0.9483  1.5259
16859TIP3    H272069   4.711   3.519  10.772  1.5630 -1.0177  3.9091
16860TIP3   OH272070   5.753   2.249   6.028  0.4908  0.0626 -0.6113
16860TIP3    H172071   5.678   2.234   5.971 -0.3904  0.1410  0.4957
16860TIP3    H272072   5.784   2.161   6.051 -0.4593 -0.0161  0.4437
16861TIP3   OH272073   4.896   6.177  14.254  0.4058 -0.0707  0.5132
16861TIP3    H172074   4.976   6.195  14.206  0.2124  0.3835  0.3561
16861TIP3    H272075   4.921   6.113  14.321  0.6941 -0.6449 -0.1318
16862TIP3   OH272076   5.919   6.001  12.955 -0.3764  0.2315  0.2982
16862TIP3    H172077   5.848   5.960  12.905 -1.3584 -0.8191  2.4534
16862TIP3    H272078   5.889   6.091  12.969  0.1694  0.7168 -1.4077
16863TIP3   OH272079   1.005   3.683  15.496 -0.2241  0.3672  0.1825
16863TIP3    H172080   0.962   3.729  15.568 -0.2951 -3.3236  2.7249
16863TIP3    H272081   1.099   3.692  15.514 -0.2231 -0.0044  0.3679
16864TIP3   OH272082   1.112   5.911  13.924  0.4339  0.0971  0.0653
16864TIP3    H172083   1.125   5.979  13.991 -0.3314  1.0457 -0.7243
16864TIP3    H272084   1.200   5.887  13.897  0.8317 -1.2762  2.3351
16865TIP3   OH272085   5.569   2.933   4.489  0.2270  0.1655  0.0339
16865TIP3    H172086   5.537   2.917   4.400 -0.4611 -1.1211  0.4860
16865TIP3    H272087   5.663   2.947   4.479  0.8924 -3.6948 -0.5791
16866TIP3   OH272088   0.370   1.176  15.524 -0.2281  0.2280 -0.2684
16866TIP3    H172089   0.401   1.115  15.458  0.1144 -0.6090  0.6528
16866TIP3    H272090   0.429   1.165  15.598 -1.5037  0.0249  0.7719
16867TIP3   OH272091   5.112   0.350  14.417 -0.1407 -0.2171 -0.1108
16867TIP3    H172092   5.107   0.441  14.386  1.4171 -0.0869 -0.0685
16867TIP3    H272093   5.156   0.356  14.502 -1.4845 -0.8756  0.6610
16868TIP3   OH272094   0.505   3.335   0.137 -0.1833  0.0188 -0.4185
16868TIP3    H172095   0.503   3.377   0.051 -1.1983  0.1424 -0.3495
16868TIP3    H272096   0.415   3.341   0.169 -0.5224 -2.6890 -0.6205
16869TIP3   OH272097   6.840   3.818   5.195  0.4248 -0.4329  0.1914
16869TIP3    H172098   6.930   3.788   5.210  0.3175 -0.7010  0.3113
16869TIP3    H272099   6.835   3.902   5.241  0.6994 -0.2743 -0.0628
16870TIP3   OH272100   3.708   2.489  11.720 -0.6333  0.6900  0.0674
16870TIP3    H172101   3.624   2.532  11.706 -0.3376  0.9838 -0.8908
16870TIP3    H272102   3.756   2.548  11.778 -0.5552  1.2424 -0.5453
16871TIP3   OH272103   3.520   1.852   4.410  0.1081  0.4283 -0.1767
16871TIP3    H172104   3.534   1.945   4.397  0.3623  0.5579  0.9163
16871TIP3    H272105   3.492   1.845   4.502  2.2944 -0.7700  0.4835
16872TIP3   OH272106   2.376   2.966   3.614  0.1259  0.6211 -0.1356
16872TIP3    H172107   2.370   3.028   3.541 -1.3913  0.0509 -0.5356
16872TIP3    H272108   2.332   2.887   3.582  0.7619 -0.1670  0.8742
16873TIP3   OH272109   1.331   0.069   4.091 -0.1919 -0.2358 -0.4631
16873TIP3    H172110   1.389   0.075   4.167  0.4847  0.4277 -1.0142
16873TIP3    H272111   1.297   0.157   4.079 -0.5028 -0.3936 -0.7696
16874TIP3   OH272112   5.986   0.832  15.312  0.5205 -0.3795 -0.4744
16874TIP3    H172113   6.081   0.822  15.311  0.4191 -2.0980  0.9989
16874TIP3    H272114   5.970   0.918  15.274  2.5411 -0.7665 -2.4486
16875TIP3   OH272115   2.762   2.624  15.478  0.5676  0.6651 -0.6164
16875TIP3    H172116   2.793   2.547  15.429  0.2706  0.4819 -0.5214
16875TIP3    H272117   2.732   2.685  15.410  0.7519  0.6715 -0.6906
16876TIP3   OH272118   3.906   2.469   5.074  0.9247 -0.1219  0.0935
16876TIP3    H172119   3.839   2.481   5.142  0.8188 -0.2504  0.0139
16876TIP3    H272120   3.988   2.463   5.122  0.7808 -0.8327  0.2606
16877TIP3   OH272121   1.054   2.535  13.967  0.4008 -0.0346 -0.3144
16877TIP3    H172122   1.082   2.547  13.876  0.9927  0.8783 -0.0193
16877TIP3    H272123   0.959   2.542  13.964  0.4416  0.3400 -0.8064
16878TIP3   OH272124   5.500   3.882   2.258 -0.0936  0.8733  0.5078
16878TIP3    H172125   5.468   3.877   2.348 -0.2975  2.1832  0.5324
16878TIP3    H272126   5.477   3.971   2.230  2.7351  1.6031  0.2353
16879TIP3   OH272127   5.698   4.661  14.982  0.5533  0.5386 -0.5145
16879TIP3    H172128   5.701   4.591  14.917 -2.4705 -0.9335  0.7619
16879TIP3    H272129   5.627   4.718  14.952 -1.4431 -0.5935  1.7234
16880TIP3   OH272130   3.588   4.482  13.380 -0.8416 -0.3767 -0.6890
16880TIP3    H172131   3.513   4.535  13.407 -1.6067 -1.0559 -1.4613
16880TIP3    H272132   3.555   4.392  13.378 -0.2141 -0.6009 -1.7598
16881TIP3   OH272133   6.732   1.676   5.706 -0.1792 -0.0435 -0.4626
16881TIP3    H172134   6.789   1.666   5.782 -1.2938  0.4848  0.4816
16881TIP3    H272135   6.714   1.586   5.678 -0.5108 -0.2864  0.4894
16882TIP3   OH272136   2.321   4.137   3.987  0.4939 -0.0611  0.1482
16882TIP3    H172137   2.249   4.090   3.944  0.6474  0.1333 -0.3300
16882TIP3    H272138   2.396   4.125   3.928  0.4531  1.0646 -0.1567
16883TIP3   OH272139   3.322   0.690   0.854  0.1183  1.0111  0.1174
16883TIP3    H172140   3.304   0.775   0.813 -1.9151  0.6588  0.1685
16883TIP3    H272141   3.319   0.627   0.781  2.6638  1.0331 -0.0959
16884TIP3   OH272142   0.572   2.231  12.729  0.1337  0.4707 -0.8063
16884TIP3    H172143   0.539   2.204  12.814  0.8298  1.5801 -0.1639
16884TIP3    H272144   0.494   2.235  12.673 -0.4123  0.3157 -0.0706
16885TIP3   OH272145   6.054   6.363  13.504 -0.0145  0.0654  0.6071
16885TIP3    H172146   6.002   6.290  13.538 -1.4242  1.7401  2.2554
16885TIP3    H272147   6.103   6.394  13.579  0.1622  1.1394  0.0598
16886TIP3   OH272148   5.682   1.457   5.035  0.3384  0.2357 -0.2055
16886TIP3    H172149   5.696   1.501   5.119  1.5337 -0.8207  0.1775
16886TIP3    H272150   5.711   1.521   4.970  0.9424  0.4723  0.2808
16887TIP3   OH272151   3.211   5.403   2.491  0.0071 -0.5800  0.0943
16887TIP3    H172152   3.117   5.425   2.487  0.5087  1.9016 -0.1101
16887TIP3    H272153   3.226   5.381   2.583 -0.4087  1.1700  0.6227
16888TIP3   OH272154   1.417   6.080   5.672 -0.5971  0.2615 -0.2997
16888TIP3    H172155   1.330   6.104   5.702 -0.0974  3.2616 -0.9603
16888TIP3    H272156   1.405   6.053   5.581 -1.0770 -1.6496  0.2720
16889TIP3   OH272157   0.187   0.226   1.935 -0.5189  0.2690 -0.3904
16889TIP3    H172158   0.198   0.141   1.979 -1.0905  0.3600 -0.0698
16889TIP3    H272159   0.270   0.271   1.950 -1.1634  0.8549  1.8188
16890TIP3   OH272160   6.788   6.045   0.348  0.0381  0.1960 -0.0866
16890TIP3    H172161   6.817   6.130   0.381  0.8783 -0.6065  1.4112
16890TIP3    H272162   6.865   5.989   0.358 -0.5641 -0.7889 -0.8190
16891TIP3   OH272163   0.346   2.048   1.104  0.1950 -0.4912 -0.2864
16891TIP3    H172164   0.276   2.006   1.154 -1.3574  1.4195 -0.7104
16891TIP3    H272165   0.340   2.007   1.017 -1.4022  0.5979 -0.7455
16892TIP3   OH272166   0.179   0.316  13.595 -0.0352  0.3967  0.0958
16892TIP3    H172167   0.155   0.310  13.687 -2.0037  1.4904 -0.2833
16892TIP3    H272168   0.180   0.225  13.564  0.6120  0.0261  1.1577
16893TIP3   OH272169   4.541   0.836  16.967 -0.6903 -0.2592  0.5162
16893TIP3    H172170   4.513   0.815  16.878 -1.3125  0.5430  0.5183
16893TIP3    H272171   4.582   0.755  16.998  0.2173 -0.3223 -0.7545
16894TIP3   OH272172   1.553   3.778   1.979 -0.4914  0.4571 -0.3148
16894TIP3    H172173   1.465   3.754   2.011 -0.4670  0.8944  0.1029
16894TIP3    H272174   1.610   3.710   2.014 -0.8757 -0.7419 -1.9392
16895TIP3   OH272175   2.513   4.828  16.972 -0.4745  0.3943  0.0489
16895TIP3    H172176   2.579   4.894  16.952  0.8890 -1.6081 -2.7054
16895TIP3    H272177   2.433   4.861  16.931 -0.1904  0.9837 -0.0395
16896TIP3   OH272178   4.548   1.888   4.149  0.2211 -0.1352 -0.7899
16896TIP3    H172179   4.587   1.945   4.215 -0.3014 -0.1112 -0.4995
16896TIP3    H272180   4.566   1.799   4.180 -0.8425 -0.1307 -0.1113
16897TIP3   OH272181   3.228   0.545  14.590  0.3732 -0.5017  0.3661
16897TIP3    H172182   3.267   0.602  14.657  1.5093 -0.3065 -0.4078
16897TIP3    H272183   3.144   0.519  14.625  0.5121  0.4125  1.4259
16898TIP3   OH272184   6.301   3.385   2.177 -0.1086  0.0836 -0.5887
16898TIP3    H172185   6.206   3.385   2.160 -0.6036  1.4726  1.7905
16898TIP3    H272186   6.327   3.294   2.161 -2.2420 -0.8270  0.5382
16899TIP3   OH272187   5.472   6.808  16.513  0.3105 -0.6524  0.1459
16899TIP3    H172188   5.528   6.803  16.591 -0.2364 -0.2840  0.5652
16899TIP3    H272189   5.489   6.895  16.477  0.6477 -0.8646 -0.2180
16900TIP3   OH272190   4.835   5.633   1.814  0.0563 -0.0626 -0.2511
16900TIP3    H172191   4.857   5.686   1.891  0.9072 -0.3164 -0.3097
16900TIP3    H272192   4.828   5.696   1.743 -2.1832  0.3679  0.2733
16901TIP3   OH272193   2.128   0.294   2.294  0.2028  0.1986 -0.6168
16901TIP3    H172194   2.187   0.220   2.281  0.0357  0.1557 -1.1304
16901TIP3    H272195   2.044   0.253   2.318  0.6481  0.2833  1.2713
16902TIP3   OH272196   5.005   4.346   1.356 -0.1510 -0.1993  0.1061
16902TIP3    H172197   5.010   4.275   1.420 -0.8682 -1.8529 -1.5919
16902TIP3    H272198   5.094   4.353   1.322  0.1227  0.3533  0.9050
16903TIP3   OH272199   5.734   0.064   0.642  0.1108 -0.0810  0.0973
16903TIP3    H172200   5.691   0.019   0.715  1.2207  0.6339  1.2246
16903TIP3    H272201   5.671   0.058   0.571 -1.5184  0.1914  1.4453
16904TIP3   OH272202   3.649   5.774  12.695 -0.0851  0.1394  0.0892
16904TIP3    H172203   3.655   5.860  12.653  0.0875 -0.4270 -1.0913
16904TIP3    H272204   3.733   5.763  12.738 -1.1652  1.8332  2.8997
16905TIP3   OH272205   1.589   3.959  11.308 -0.1120 -0.7403 -0.2409
16905TIP3    H172206   1.598   4.023  11.237 -2.3603  0.2126  0.2464
16905TIP3    H272207   1.662   3.979  11.367 -0.5156  1.1384 -0.3139
16906TIP3   OH272208   2.249   5.765   0.554 -0.3210  0.5711 -0.0218
16906TIP3    H172209   2.305   5.698   0.593 -0.2770 -0.1044 -1.1802
16906TIP3    H272210   2.290   5.848   0.578 -0.1989  0.1815  1.1754
16907TIP3   OH272211   6.545   3.561  11.420 -0.4722 -0.0246 -0.5486
16907TIP3    H172212   6.617   3.504  11.393 -0.9141 -0.5184 -0.6887
16907TIP3    H272213   6.466   3.514  11.396 -0.8600  0.1986  0.2322
16908TIP3   OH272214   6.178   2.922  16.463  0.3595  0.3427 -0.2146
16908TIP3    H172215   6.171   2.870  16.543  2.7881 -1.4111 -1.0054
16908TIP3    H272216   6.106   2.892  16.408 -0.3826  0.4222  0.7008
16909TIP3   OH272217   4.611   0.890  14.781  0.1370 -0.6139 -0.4020
16909TIP3    H172218   4.622   0.861  14.690 -0.9298 -1.6906 -0.2211
16909TIP3    H272219   4.669   0.965  14.789 -0.1813 -0.1203 -2.1436
16910TIP3   OH272220   4.290   5.884   5.612  0.3486 -0.6807  0.2671
16910TIP3    H172221   4.244   5.838   5.542  1.1772 -1.2762  0.1043
16910TIP3    H272222   4.355   5.938   5.567 -0.4275  0.4829  0.4705
16911TIP3   OH272223   3.916   5.934   5.602 -0.8422  0.3680  0.1963
16911TIP3    H172224   3.880   5.936   5.513  0.1567  0.9409 -0.2141
16911TIP3    H272225   3.942   6.025   5.619 -2.4523  0.5834  1.6890
16912TIP3   OH272226   2.435   3.914  16.239 -0.2151 -0.5234 -0.2784
16912TIP3    H172227   2.409   3.969  16.166 -1.0524  0.7980  0.9480
16912TIP3    H272228   2.530   3.909  16.234 -0.2585 -0.3647 -1.3758
16913TIP3   OH272229   3.930   2.879   0.913  0.8248  0.0418  0.6051
16913TIP3    H172230   3.845   2.862   0.873  0.0926  1.4149  1.4903
16913TIP3    H272231   3.937   2.813   0.982  0.1197  0.3724  1.0112
16914TIP3   OH272232   3.974   1.251   5.252  0.2269 -0.3851  0.1124
16914TIP3    H172233   4.010   1.241   5.340 -0.2281 -1.3545  0.1975
16914TIP3    H272234   4.050   1.253   5.195  0.5280  0.3181  0.5299
16915TIP3   OH272235   5.380   0.204   4.108  0.0034  0.6750  0.0454
16915TIP3    H172236   5.342   0.234   4.190 -0.1985  0.4051  0.0505
16915TIP3    H272237   5.459   0.258   4.097  0.9866 -0.4565  1.2878
16916TIP3   OH272238   4.906   4.705   2.448 -0.3434 -0.1398  0.1543
16916TIP3    H172239   4.978   4.753   2.407 -1.5821  1.7398  0.0278
16916TIP3    H272240   4.880   4.640   2.382 -1.1012  1.6140 -1.3953
16917TIP3   OH272241   6.688   3.392  13.058  0.1871  0.2642 -0.0769
16917TIP3    H172242   6.651   3.456  12.997  0.9232  0.3747 -0.4098
16917TIP3    H272243   6.653   3.308  13.029 -1.8359  0.6110  1.1361
16918TIP3   OH272244   4.699   3.112   4.590 -0.3880  0.1782  0.8850
16918TIP3    H172245   4.688   3.056   4.513 -0.5656 -1.2367  1.8797
16918TIP3    H272246   4.660   3.061   4.661  0.8847  0.8713  2.1317
16919TIP3   OH272247   6.553   5.462  13.680 -0.3170 -0.2854  0.3116
16919TIP3    H172248   6.587   5.551  13.688 -0.8692 -0.1869  1.8572
16919TIP3    H272249   6.631   5.406  13.679  0.0281  0.1918 -0.6076
16920TIP3   OH272250   3.532   5.710  15.942  0.1790 -0.2664 -0.2337
16920TIP3    H172251   3.543   5.684  15.850  0.1738 -1.2846  0.0443
16920TIP3    H272252   3.597   5.658  15.989  0.4575  0.5531  0.2942
16921TIP3   OH272253   3.552   5.606   2.075 -0.1825  0.3175 -0.1128
16921TIP3    H172254   3.508   5.595   1.991 -0.6095  1.1274 -0.0017
16921TIP3    H272255   3.516   5.687   2.111  0.5327  0.3668  0.5211
16922TIP3   OH272256   5.098   1.773  16.959  0.1833  0.2309 -0.0303
16922TIP3    H172257   5.115   1.799  17.050  0.9513 -0.4112  0.0288
16922TIP3    H272258   5.095   1.855  16.910 -0.9472  0.6335  0.6755
16923TIP3   OH272259   3.017   1.650   0.733  0.4137 -0.0670 -0.2619
16923TIP3    H172260   3.111   1.652   0.754  0.4964 -0.2341 -0.6134
16923TIP3    H272261   3.002   1.730   0.683 -0.1793  1.3767  2.0236
16924TIP3   OH272262   3.619   0.269   3.297 -0.2481  0.0743 -0.2705
16924TIP3    H172263   3.656   0.202   3.355  2.9506  1.5744 -0.3353
16924TIP3    H272264   3.623   0.230   3.210  0.1209 -0.2245 -0.1234
16925TIP3   OH272265   2.719   6.142   0.994  0.9926 -0.0003  0.1923
16925TIP3    H172266   2.669   6.174   1.068 -0.8771 -1.3834 -0.4010
16925TIP3    H272267   2.758   6.060   1.026 -0.7516 -1.2043 -0.6179
16926TIP3   OH272268   5.956   3.016   3.343  0.3728  0.2146 -0.0978
16926TIP3    H172269   6.034   3.064   3.316  1.9159 -1.3609  1.3041
16926TIP3    H272270   5.944   3.040   3.435  0.1622 -0.8026  0.1453
16927TIP3   OH272271   0.793   2.761   1.187 -0.1956  0.3913 -0.0649
16927TIP3    H172272   0.793   2.692   1.254 -1.6659 -1.4010 -1.8037
16927TIP3    H272273   0.863   2.736   1.127 -2.2707 -1.0629 -2.0229
16928TIP3   OH272274   5.907   1.463  11.331  0.0909 -0.8247  0.2856
16928TIP3    H172275   5.868   1.503  11.253  0.9672 -0.8622 -0.1887
16928TIP3    H272276   5.977   1.407  11.296  1.1788 -0.0498  1.1410
16929TIP3   OH272277   2.714   4.415  12.184  0.0381 -0.4487  0.3502
16929TIP3    H172278   2.726   4.425  12.090 -2.8197  2.1036  0.1003
16929TIP3    H272279   2.758   4.492  12.222 -0.5810 -0.3416  0.8760
16930TIP3   OH272280   0.706   2.078   5.125  0.3813 -0.2035  0.4666
16930TIP3    H172281   0.747   2.077   5.039 -0.8817  1.3732 -0.2078
16930TIP3    H272282   0.756   2.143   5.175 -0.0419  0.2731  0.2830
16931TIP3   OH272283   3.564   3.125   3.705  0.2705 -0.4872  0.1754
16931TIP3    H172284   3.511   3.204   3.694  2.0950  0.9623  1.3335
16931TIP3    H272285   3.590   3.101   3.616  1.3243  1.4027 -0.0617
16932TIP3   OH272286   6.135   4.278  11.888  0.0598 -0.3815 -0.2637
16932TIP3    H172287   6.182   4.302  11.809  0.5708  1.2117  0.4946
16932TIP3    H272288   6.045   4.266  11.860  0.3927 -0.7567 -1.2306
16933TIP3   OH272289   3.497   5.567  15.635 -0.1234  0.2476  0.5545
16933TIP3    H172290   3.442   5.592  15.561  0.3326 -0.5873 -0.0938
16933TIP3    H272291   3.586   5.592  15.607  0.0015  0.3239  1.0102
16934TIP3   OH272292   3.771   1.491  13.492  0.3202  0.4110 -0.2731
16934TIP3    H172293   3.803   1.540  13.415  1.7244  0.2485  0.1697
16934TIP3    H272294   3.713   1.425  13.455 -1.2758  2.0887 -0.9300
16935TIP3   OH272295   1.758   0.621   2.211  0.0636 -0.0056  0.6135
16935TIP3    H172296   1.788   0.693   2.156 -1.8482  0.6714  0.4066
16935TIP3    H272297   1.798   0.543   2.172  0.3022  0.6792 -0.5428
16936TIP3   OH272298   0.933   6.225   3.184  0.7588  0.3997  0.0075
16936TIP3    H172299   0.870   6.163   3.220  0.5395  0.5719 -0.0810
16936TIP3    H272300   0.986   6.252   3.259  1.2642 -0.3671 -0.0559
16937TIP3   OH272301   2.550   2.547   0.006 -0.3447  0.3995  0.2532
16937TIP3    H172302   2.529   2.525  -0.084 -0.6318  2.3722 -0.1914
16937TIP3    H272303   2.523   2.469   0.056 -0.8707 -0.4239 -1.2513
16938TIP3   OH272304   2.003   0.422  11.342  0.0522  0.0581 -0.7074
16938TIP3    H172305   2.074   0.483  11.322 -0.6952  1.1920  0.0240
16938TIP3    H272306   1.939   0.474  11.390 -0.3894 -1.4181  0.3576
16939TIP3   OH272307   3.643   1.218  16.241 -1.2135 -0.0094 -0.0638
16939TIP3    H172308   3.606   1.278  16.306 -0.1744 -0.7822  1.2835
16939TIP3    H272309   3.733   1.249  16.229 -0.8608 -0.9296  0.1858
16940TIP3   OH272310   5.548   5.282   4.337  0.6891 -0.3976  0.1941
16940TIP3    H172311   5.466   5.332   4.336  1.3132  0.7007  0.9695
16940TIP3    H272312   5.535   5.214   4.272 -1.3842 -1.1532  1.2698
16941TIP3   OH272313   3.040   4.967   5.220  0.0971 -0.4733  0.1111
16941TIP3    H172314   3.089   4.886   5.203 -0.1134 -0.4683 -0.5647
16941TIP3    H272315   3.051   4.983   5.314  1.9215 -0.1405 -0.1210
16942TIP3   OH272316   4.014   1.193  14.937 -0.2901 -0.0045 -0.1050
16942TIP3    H172317   3.949   1.206  14.868  0.4249 -1.6517 -1.1406
16942TIP3    H272318   3.975   1.126  14.994  0.0948 -0.3203 -0.2102
16943TIP3   OH272319   5.058   5.929  13.574 -0.2884  0.0712  0.2994
16943TIP3    H172320   5.114   6.006  13.571 -0.2790  0.0900  0.8444
16943TIP3    H272321   5.039   5.909  13.482  0.2850  0.2983  0.1302
16944TIP3   OH272322   5.535   1.577  12.482  0.7052  0.0654  0.5238
16944TIP3    H172323   5.514   1.647  12.420 -3.6954 -2.0920 -0.8435
16944TIP3    H272324   5.603   1.526  12.439 -1.2927 -0.5976 -2.1290
16945TIP3   OH272325   0.282   4.509   1.695 -0.1231  0.0126 -0.4435
16945TIP3    H172326   0.315   4.563   1.767 -0.9877 -1.8979  1.4967
16945TIP3    H272327   0.342   4.434   1.691 -1.6943 -1.3480  0.2811
16946TIP3   OH272328   2.273   4.420   5.474  0.5763  0.1991 -0.2665
16946TIP3    H172329   2.233   4.385   5.553  2.2381  1.2841  1.1262
16946TIP3    H272330   2.268   4.348   5.411 -0.7424 -0.7076  0.8174
16947TIP3   OH272331   6.567   3.842  15.392  0.2271  0.0017 -0.5658
16947TIP3    H172332   6.591   3.768  15.448  1.4328  0.4377 -0.4660
16947TIP3    H272333   6.489   3.879  15.431 -0.2007 -1.0183 -0.4278
16948TIP3   OH272334   0.632   4.662   6.424 -0.1424 -0.1410 -0.3418
16948TIP3    H172335   0.650   4.754   6.404  2.2570 -0.2390  0.9651
16948TIP3    H272336   0.712   4.616   6.398 -0.8408 -1.6789  0.1384
16949TIP3   OH272337   0.025   4.472   1.629 -0.2661 -0.3098 -0.6013
16949TIP3    H172338   0.057   4.382   1.617 -2.4582 -0.9308 -2.4981
16949TIP3    H272339   0.103   4.523   1.648  1.1336 -2.5095 -0.1221
16950TIP3   OH272340   2.426   1.228  17.124  0.1620  0.7610 -0.4011
16950TIP3    H172341   2.357   1.288  17.151  1.3135  2.7576 -1.5758
16950TIP3    H272342   2.379   1.153  17.086 -1.3461  1.5006 -0.0849
16951TIP3   OH272343   1.003   3.704  14.991 -0.8874 -0.7958  0.2626
16951TIP3    H172344   1.035   3.621  14.954 -0.2382 -0.7190  0.6383
16951TIP3    H272345   0.988   3.760  14.915 -0.5893 -1.0021  0.0503
16952TIP3   OH272346   1.579   5.704   3.726  0.5420 -0.0389 -0.1913
16952TIP3    H172347   1.622   5.622   3.751  1.3536  0.1670 -0.8529
16952TIP3    H272348   1.585   5.759   3.804  2.5274  0.3916 -0.5751
16953TIP3   OH272349   6.790   0.746   2.233 -0.0207  0.2453  0.0930
16953TIP3    H172350   6.750   0.688   2.168  1.0389 -1.5517  0.9449
16953TIP3    H272351   6.857   0.794   2.185 -0.6957  0.5469 -0.5643
16954TIP3   OH272352   2.244   2.558  11.976 -0.1722  0.6676 -0.6769
16954TIP3    H172353   2.311   2.520  12.032 -0.2960 -0.1300 -1.0536
16954TIP3    H272354   2.292   2.611  11.913  0.0759  0.4338 -0.6859
16955TIP3   OH272355   0.094   2.023  14.636  0.4777 -0.2464 -0.1675
16955TIP3    H172356   0.059   2.082  14.569  0.7377  0.2484  0.1231
16955TIP3    H272357   0.102   1.939  14.592 -3.3095 -1.0729  0.3130
16956TIP3   OH272358   0.729   4.230  12.157 -0.2664 -0.1160  0.5728
16956TIP3    H172359   0.764   4.283  12.085 -1.0100  0.1756  0.4210
16956TIP3    H272360   0.762   4.142  12.140  1.3749  0.3501  1.0826
16957TIP3   OH272361   2.256   4.763  16.885 -0.0135 -0.0039 -0.3703
16957TIP3    H172362   2.306   4.691  16.846  0.9474  0.4896 -0.0752
16957TIP3    H272363   2.231   4.731  16.971 -1.8428 -0.9630 -1.2000
16958TIP3   OH272364   5.933   4.395  11.517 -0.1190  0.2231 -0.3947
16958TIP3    H172365   5.981   4.327  11.469  0.3198  1.4620 -1.7986
16958TIP3    H272366   5.923   4.360  11.605  1.1016 -1.1702 -0.7707
16959TIP3   OH272367   2.136   2.755  11.713  0.7579 -0.5737 -0.1961
16959TIP3    H172368   2.210   2.695  11.711  1.6280  0.3493  1.9329
16959TIP3    H272369   2.063   2.705  11.677  1.8287 -2.3445  0.0204
16960TIP3   OH272370   1.654   5.945  13.676  0.7958  0.1560 -0.4693
16960TIP3    H172371   1.634   5.889  13.602  0.5372  0.9582 -1.0215
16960TIP3    H272372   1.596   6.020  13.666  0.0368 -0.1894  1.1155
16961TIP3   OH272373   2.129   0.819   3.714  0.5658  0.8678  0.9567
16961TIP3    H172374   2.075   0.775   3.779  2.1506 -2.2755  0.3483
16961TIP3    H272375   2.111   0.771   3.633  2.2581  1.4941  0.1832
16962TIP3   OH272376   3.534   6.474  14.528 -0.1749  0.0668  0.0570
16962TIP3    H172377   3.441   6.495  14.535 -0.4028 -0.0681 -1.9698
16962TIP3    H272378   3.542   6.423  14.447  1.7484  0.5901 -0.1510
16963TIP3   OH272379   6.263   3.724  13.747  0.0773 -0.0435  0.1372
16963TIP3    H172380   6.238   3.695  13.835  0.2103 -0.1082  0.1542
16963TIP3    H272381   6.357   3.737  13.752  0.0441  0.2259  0.0821
16964TIP3   OH272382   6.448   4.690  16.311 -0.1745 -0.1058  0.0762
16964TIP3    H172383   6.412   4.653  16.230 -1.0784  0.6188  0.1282
16964TIP3    H272384   6.522   4.744  16.282 -2.0351  2.2536 -0.6222
16965TIP3   OH272385   1.555   1.332  14.936  0.1492 -0.1712 -0.0924
16965TIP3    H172386   1.548   1.241  14.963 -0.9236  0.0170  0.3019
16965TIP3    H272387   1.508   1.381  15.003  1.1566  0.7371 -0.0138
16966TIP3   OH272388   1.144   4.089   5.767  0.1956  0.1505  0.7276
16966TIP3    H172389   1.050   4.097   5.786  0.2896 -0.4062  1.4412
16966TIP3    H272390   1.184   4.066   5.850  0.7803 -1.0382  0.1358
16967TIP3   OH272391   1.318   5.249  11.197 -0.2608 -0.0239 -0.3053
16967TIP3    H172392   1.327   5.235  11.103 -1.1186 -1.3406 -0.2181
16967TIP3    H272393   1.373   5.182  11.237  0.6943  1.0100  0.1421
16968TIP3   OH272394   5.083   2.047  14.714  0.2264  0.5875 -0.0621
16968TIP3    H172395   5.110   2.025  14.625  1.3438 -0.0650  0.4240
16968TIP3    H272396   5.133   2.126  14.735 -0.4138  1.0306 -0.1895
16969TIP3   OH272397   2.030   1.330  11.454 -0.3693 -0.5691  1.0895
16969TIP3    H172398   2.083   1.401  11.418  1.3201 -1.1741  2.2671
16969TIP3    H272399   2.094   1.268  11.490 -1.8623 -1.7188  1.8639
16970TIP3   OH272400   6.406   1.051   4.043 -0.6871  0.1625  0.1484
16970TIP3    H172401   6.329   1.107   4.053 -0.0637  0.9777  0.4675
16970TIP3    H272402   6.447   1.050   4.130 -0.2305 -0.1094 -0.0660
16971TIP3   OH272403   1.759   6.132   3.916 -0.3289 -0.1213  0.4776
16971TIP3    H172404   1.814   6.087   3.852  0.6913 -1.9156  2.4542
16971TIP3    H272405   1.673   6.140   3.873  0.4634 -0.6837 -1.3011
16972TIP3   OH272406   0.916   5.359  15.649 -0.2821 -0.2138 -0.0746
16972TIP3    H172407   0.986   5.309  15.606  1.3486  1.3219  0.6720
16972TIP3    H272408   0.858   5.293  15.686 -0.1009 -1.5507 -2.0475
16973TIP3   OH272409   6.509   0.287  14.418  0.0003 -0.0381 -0.2881
16973TIP3    H172410   6.535   0.195  14.407  0.2961  0.0913 -0.6712
16973TIP3    H272411   6.589   0.337  14.405 -0.1075  0.2648  0.1841
16974TIP3   OH272412   5.381   6.655  16.077  0.1455 -0.0584 -0.1066
16974TIP3    H172413   5.349   6.632  15.990 -0.1073  1.1209 -0.3444
16974TIP3    H272414   5.471   6.682  16.064  0.0720  0.2324 -0.0212
16975TIP3   OH272415   1.420   0.321  12.469 -0.1010 -0.5782 -0.3423
16975TIP3    H172416   1.347   0.382  12.468  0.0670 -0.3787 -0.7202
16975TIP3    H272417   1.443   0.312  12.561 -0.8447 -0.9397 -0.1826
16976TIP3   OH272418   2.255   2.114  14.393  0.3546  0.3687  0.0074
16976TIP3    H172419   2.170   2.081  14.363  0.3609  0.3118  0.0507
16976TIP3    H272420   2.319   2.070  14.336  0.2989  1.1539 -0.6659
16977TIP3   OH272421   1.388   1.653  13.131 -0.8141 -0.0167  0.1464
16977TIP3    H172422   1.330   1.722  13.163 -0.3112 -0.0693  1.2354
16977TIP3    H272423   1.330   1.581  13.106 -1.2576  0.2605  0.3828
16978TIP3   OH272424   3.671   2.309   3.498 -0.3746  0.1380  0.2889
16978TIP3    H172425   3.759   2.277   3.482 -0.4233  1.0583 -2.4033
16978TIP3    H272426   3.620   2.230   3.517  0.5377 -0.7570 -0.7981
16979TIP3   OH272427   4.147   6.536  14.105  0.2126  0.3282 -0.3641
16979TIP3    H172428   4.082   6.497  14.163  1.0152 -0.4126  0.0558
16979TIP3    H272429   4.173   6.465  14.046  0.2539  0.7614 -0.8744
16980TIP3   OH272430   0.037   6.758   0.762 -0.1621 -0.0418  0.3472
16980TIP3    H172431   0.059   6.718   0.846 -0.8100  0.8151  0.9518
16980TIP3    H272432   0.107   6.732   0.703 -0.2898 -1.6190  0.8417
16981TIP3   OH272433   1.460   4.308   1.596 -0.5929  0.1922  0.2282
16981TIP3    H172434   1.464   4.302   1.500  1.1974  1.2134  0.1812
16981TIP3    H272435   1.380   4.356   1.614 -1.0266 -0.1435 -0.7505
16982TIP3   OH272436   1.483   0.660  10.921  0.4095 -0.0194 -0.0398
16982TIP3    H172437   1.432   0.678  10.842  0.4240 -1.6983 -0.4648
16982TIP3    H272438   1.569   0.632  10.889  0.0623 -1.8350  0.4829
16983TIP3   OH272439   0.940   6.650   4.994  0.3742  0.0672 -0.0700
16983TIP3    H172440   0.919   6.622   4.905  1.0811  1.8706 -0.8357
16983TIP3    H272441   1.033   6.628   5.004  0.0863 -0.9371  0.5706
16984TIP3   OH272442   3.495   2.949  13.957  0.1149  0.7828 -0.7165
16984TIP3    H172443   3.416   2.996  13.932 -1.2275 -0.7486  0.4672
16984TIP3    H272444   3.514   2.892  13.883  0.1952  1.2419 -1.0530
16985TIP3   OH272445   6.563   5.846  15.366 -0.5038  0.3503  0.0509
16985TIP3    H172446   6.589   5.809  15.450 -1.7987 -1.1699 -0.1776
16985TIP3    H272447   6.612   5.796  15.301 -0.9297  0.2209 -0.1771
16986TIP3   OH272448   1.594   0.177   2.620 -0.0322  0.2521 -0.1850
16986TIP3    H172449   1.561   0.266   2.603  0.1196  0.4978  0.7437
16986TIP3    H272450   1.527   0.120   2.585 -0.6766  0.7467  0.2087
16987TIP3   OH272451   2.932   4.645   4.111  0.6897 -0.9813  0.5936
16987TIP3    H172452   2.995   4.718   4.113 -0.4642  0.0855 -0.5276
16987TIP3    H272453   2.986   4.568   4.095  1.8305 -0.2437  0.7549
16988TIP3   OH272454   2.820   1.457   0.684 -0.8659  0.5649  0.3050
16988TIP3    H172455   2.882   1.529   0.692 -0.2574 -0.0078  0.8180
16988TIP3    H272456   2.746   1.494   0.635  0.2372  1.0209 -1.0802
16989TIP3   OH272457   4.058   3.949   5.930 -0.2930  0.2066  0.2580
16989TIP3    H172458   4.098   4.019   5.981  0.3797 -0.2289  0.3404
16989TIP3    H272459   4.112   3.872   5.948 -0.5768 -0.1599 -0.4139
16990TIP3   OH272460   0.990   4.321   0.444  0.6239  0.1261 -0.0612
16990TIP3    H172461   0.999   4.401   0.495 -1.3703  0.2621  0.1362
16990TIP3    H272462   0.999   4.250   0.509  2.2392  0.1565 -0.2144
16991TIP3   OH272463   2.311   1.698  15.998  0.3608  0.1861  0.3748
16991TIP3    H172464   2.286   1.620  15.949  2.8750 -0.8654  0.6431
16991TIP3    H272465   2.331   1.763  15.930  0.0859 -0.0173  0.0964
16992TIP3   OH272466   0.077   6.761   0.194 -1.1655 -0.3712 -0.0380
16992TIP3    H172467   0.141   6.827   0.220 -3.7883  1.8874  1.1558
16992TIP3    H272468   0.120   6.677   0.215  0.8760  1.0529  1.9678
16993TIP3   OH272469   3.329   4.104   3.579  0.4411  0.1027  0.3513
16993TIP3    H172470   3.331   4.029   3.520 -0.3479 -1.7617  2.5489
16993TIP3    H272471   3.250   4.152   3.555  0.0940 -0.6674 -0.0485
16994TIP3   OH272472   4.443   0.388   0.504  0.2394 -0.2268 -0.4699
16994TIP3    H172473   4.387   0.347   0.438 -0.2685 -0.8375  0.3160
16994TIP3    H272474   4.516   0.424   0.455  0.8174 -2.2669 -1.1864
16995TIP3   OH272475   6.247   0.747   4.802 -0.0220 -0.4166  0.1185
16995TIP3    H172476   6.151   0.750   4.793 -0.2036  0.4563  1.8598
16995TIP3    H272477   6.267   0.655   4.816 -0.9020 -0.3771  1.9750
16996TIP3   OH272478   0.415   0.248  11.516  0.1368  0.5298  0.6261
16996TIP3    H172479   0.450   0.172  11.468 -3.3539 -0.7585 -0.2326
16996TIP3    H272480   0.416   0.220  11.608 -0.7215 -0.4672  0.3620
16997TIP3   OH272481   3.409   2.019   3.516  0.6122  0.0070  0.4245
16997TIP3    H172482   3.425   2.110   3.491  0.0518 -0.2385 -0.9138
16997TIP3    H272483   3.316   2.017   3.540  1.0937  0.1933  2.4390
16998TIP3   OH272484   3.072   0.163  15.258 -0.1478 -0.3939 -0.0513
16998TIP3    H172485   3.127   0.227  15.214 -0.4793  0.4801  0.7714
16998TIP3    H272486   3.117   0.080  15.245  1.4238  0.3050  0.6686
16999TIP3   OH272487   6.267   2.606  13.631  0.8071  0.3772  0.5395
16999TIP3    H172488   6.246   2.696  13.607  1.1633  0.7238  1.4927
16999TIP3    H272489   6.239   2.554  13.555 -3.0990  0.7944  1.4927
17000TIP3   OH272490   0.998   6.169   1.600  0.1833  0.1240  0.1890
17000TIP3    H172491   0.923   6.202   1.648  1.1247  1.0942  1.0366
17000TIP3    H272492   1.007   6.078   1.629 -2.1242 -0.8512 -1.7960
17001TIP3   OH272493   2.960   5.950   0.868  0.2424  0.0996  0.5421
17001TIP3    H172494   2.899   5.928   0.937  0.5112  0.5442  0.9245
17001TIP3    H272495   2.999   5.866   0.842 -1.1410 -0.3052 -0.3009
17002TIP3   OH272496   0.115   0.455  14.040  0.3625 -0.6627 -0.1784
17002TIP3    H172497   0.146   0.467  14.130 -0.1041  0.3014 -0.1323
17002TIP3    H272498   0.077   0.540  14.017 -3.6142 -2.1082  0.3208
17003TIP3   OH272499   3.298   0.396   3.952  0.1752 -0.2640 -0.0632
17003TIP3    H172500   3.304   0.311   3.908  1.6876  0.4503 -1.3592
17003TIP3    H272501   3.231   0.443   3.901  1.2901  0.2493 -1.0995
17004TIP3   OH272502   1.751   2.283  10.457 -0.4457 -0.4080 -0.0840
17004TIP3    H172503   1.692   2.222  10.500  0.5489 -2.0175 -0.9261
17004TIP3    H272504   1.822   2.297  10.521 -0.1767 -0.9238 -0.2647
17005TIP3   OH272505   6.420   6.464  14.019  0.0677  0.3168 -0.3422
17005TIP3    H172506   6.507   6.440  14.053 -0.2486 -1.5742 -0.7132
17005TIP3    H272507   6.438   6.530  13.952  1.1083  0.8408  0.4335
17006TIP3   OH272508   5.895   6.385   3.770 -0.5140 -0.2759 -0.4280
17006TIP3    H172509   5.965   6.321   3.776 -0.9637 -0.6443  1.4117
17006TIP3    H272510   5.825   6.350   3.824 -0.8588  1.6459  0.4763
17007TIP3   OH272511   5.025   4.047  14.237 -0.2055  0.4194 -0.2161
17007TIP3    H172512   4.931   4.048  14.251 -0.2508  1.1726 -0.4896
17007TIP3    H272513   5.062   4.080  14.319 -0.1728  0.0772 -0.0918
17008TIP3   OH272514   1.422   6.067  10.630 -0.1396  0.1031 -0.0265
17008TIP3    H172515   1.379   5.982  10.642  0.2739 -0.6240 -2.9608
17008TIP3    H272516   1.349   6.129  10.624 -0.4532 -0.0136  1.9448
17009TIP3   OH272517   3.877   2.351   4.275 -0.1712  0.4086 -0.4112
17009TIP3    H172518   3.949   2.367   4.335  0.5830 -1.7921 -0.6233
17009TIP3    H272519   3.799   2.353   4.329  0.3653 -0.1429  0.4053
17010TIP3   OH272520   3.629   4.674  10.967 -0.1008  0.7758  0.2178
17010TIP3    H172521   3.678   4.639  10.892  0.3235  0.9370  0.4144
17010TIP3    H272522   3.683   4.651  11.043 -0.5555  0.5655  0.4796
17011TIP3   OH272523   0.373   3.680  12.195  0.1304 -0.1987 -0.4206
17011TIP3    H172524   0.325   3.755  12.160  1.6941  0.2260 -1.7778
17011TIP3    H272525   0.354   3.680  12.289 -2.7825 -0.2887 -0.9020
17012TIP3   OH272526   2.278   2.290  13.982 -0.0145  0.2553 -0.0615
17012TIP3    H172527   2.245   2.200  13.973  0.4476  0.1067 -0.3130
17012TIP3    H272528   2.343   2.285  14.052  0.5829  0.2237 -0.6028
17013TIP3   OH272529   3.171   1.185  10.476 -0.2982  0.3967 -0.3686
17013TIP3    H172530   3.130   1.268  10.498 -2.0187 -0.9855  2.0917
17013TIP3    H272531   3.148   1.170  10.385 -0.3519  2.3324 -0.7231
17014TIP3   OH272532   0.223   3.338   0.165  0.4019 -0.1956 -0.8521
17014TIP3    H172533   0.164   3.264   0.156  1.5717 -1.2041 -0.5414
17014TIP3    H272534   0.199   3.397   0.094 -0.9836 -0.5514 -0.7087
17015TIP3   OH272535   0.593   4.846  16.123  0.3845 -0.2625 -0.4640
17015TIP3    H172536   0.556   4.799  16.049  0.1475  0.0931 -0.5760
17015TIP3    H272537   0.654   4.784  16.163 -1.7265 -1.5668  0.8802
17016TIP3   OH272538   1.842   6.018  12.061  0.0861 -0.2393  0.2407
17016TIP3    H172539   1.799   5.966  12.129  0.0474  0.6421  0.9198
17016TIP3    H272540   1.771   6.041  12.001  0.0977 -0.9302 -0.0416
17017TIP3   OH272541   6.452   0.534  15.536  0.1471  0.1357  0.2392
17017TIP3    H172542   6.534   0.492  15.510 -1.6792 -2.3838 -1.9697
17017TIP3    H272543   6.432   0.497  15.622  1.0368  0.3438  0.5421
17018TIP3   OH272544   1.137   5.145   1.214 -0.7365 -0.3066  0.7094
17018TIP3    H172545   1.175   5.065   1.250  0.0900  0.4608  1.5851
17018TIP3    H272546   1.147   5.210   1.283 -2.6522  0.2303  0.5568
17019TIP3   OH272547   3.936   1.316  16.152 -0.4059  0.4653 -0.4837
17019TIP3    H172548   3.983   1.270  16.221  0.2416  2.8164  0.7326
17019TIP3    H272549   3.979   1.288  16.071  0.7669 -0.1094  0.3150
17020TIP3   OH272550   6.320   1.229  17.184  0.8011 -0.0547  0.8368
17020TIP3    H172551   6.340   1.151  17.236  1.7906  0.3236  1.0429
17020TIP3    H272552   6.405   1.260  17.153  0.2424 -0.2179 -0.9672
17021TIP3   OH272553   0.871   5.604   3.730  0.2688 -0.1671  0.4113
17021TIP3    H172554   0.962   5.609   3.701  1.4895 -4.7170  2.4525
17021TIP3    H272555   0.819   5.599   3.650  2.0796 -0.0146 -0.8068
17022TIP3   OH272556   6.470   3.458  13.801 -0.2431 -0.2345 -0.1976
17022TIP3    H172557   6.532   3.518  13.757  1.7511 -1.7798  0.3397
17022TIP3    H272558   6.513   3.373  13.797 -1.9442 -1.2130  1.0935
17023TIP3   OH272559   2.399   5.664   1.056  0.1972  0.0898  0.6454
17023TIP3    H172560   2.425   5.729   0.991  0.4566  0.0523  0.7104
17023TIP3    H272561   2.344   5.602   1.007 -0.4064  0.5867  0.6812
17024TIP3   OH272562   1.137   5.980  15.383 -0.3496  0.0407 -0.5213
17024TIP3    H172563   1.209   5.952  15.439  0.2073 -1.5755 -1.9618
17024TIP3    H272564   1.081   6.031  15.441  2.0829  1.6788  0.6038
17025TIP3   OH272565   6.221   1.117  11.592 -0.4140 -0.2018  0.4860
17025TIP3    H172566   6.299   1.111  11.536  0.7357 -2.3375  2.1321
17025TIP3    H272567   6.217   1.209  11.618  0.1701  0.4230 -1.4941
17026TIP3   OH272568   2.281   2.098   0.394 -0.5021  0.5347 -0.5620
17026TIP3    H172569   2.187   2.096   0.377 -0.4519 -0.2436 -0.7453
17026TIP3    H272570   2.321   2.066   0.314 -0.1120  0.1528 -0.2171
17027TIP3   OH272571   0.091   1.313  13.272  0.1771 -0.0302 -0.5442
17027TIP3    H172572   0.043   1.240  13.233  0.3046 -0.6623  0.4415
17027TIP3    H272573   0.072   1.306  13.366  1.8963 -0.0733 -0.1738
17028TIP3   OH272574   6.746   2.802   1.201 -0.3606 -0.0756 -0.8002
17028TIP3    H172575   6.733   2.742   1.128  0.2767  0.2602 -1.2040
17028TIP3    H272576   6.797   2.874   1.164  0.0408  0.0622 -0.0061
17029TIP3   OH272577   0.524   1.165  16.809  0.1390 -0.6224  1.2280
17029TIP3    H172578   0.518   1.185  16.903 -1.7196  2.1308  0.6094
17029TIP3    H272579   0.570   1.240  16.771  0.2220 -1.3584 -0.1843
17030TIP3   OH272580   3.755   5.484  13.039  0.8848  0.7170 -0.4183
17030TIP3    H172581   3.715   5.500  13.125  0.6580  2.9425 -0.8752
17030TIP3    H272582   3.838   5.440  13.060 -0.1842 -0.8846  0.7443
17031TIP3   OH272583   3.582   2.284  11.578 -0.2109  0.0591  0.1398
17031TIP3    H172584   3.600   2.364  11.627 -0.9377 -0.0968  0.6878
17031TIP3    H272585   3.513   2.308  11.516  0.2978  0.1082 -0.4165
17032TIP3   OH272586   0.873   6.087  14.951  0.3005  0.2554 -0.3779
17032TIP3    H172587   0.898   6.005  14.910 -1.5652 -0.2778 -0.5494
17032TIP3    H272588   0.863   6.066  15.043  1.1435  0.6393 -0.1869
17033TIP3   OH272589   1.069   5.300   4.966  0.4012 -0.2406  0.0980
17033TIP3    H172590   1.042   5.252   4.888  1.4342 -1.4226  0.4440
17033TIP3    H272591   1.095   5.386   4.933  0.1522 -0.4854 -0.7623
17034TIP3   OH272592   1.175   2.801   4.128  0.1726 -0.3481  0.1403
17034TIP3    H172593   1.176   2.741   4.053 -1.9826  0.2167 -0.4234
17034TIP3    H272594   1.260   2.844   4.125  1.1533 -2.2258 -0.3829
17035TIP3   OH272595   6.362   5.798  16.639  0.1938 -0.7738  0.2833
17035TIP3    H172596   6.417   5.720  16.652  2.2187  0.8008  1.8860
17035TIP3    H272597   6.290   5.787  16.702  1.2808 -0.7170  1.5953
17036TIP3   OH272598   6.509   1.757  13.904  0.6186 -0.0051 -0.0831
17036TIP3    H172599   6.553   1.673  13.895  1.0450  0.0688  1.2119
17036TIP3    H272600   6.430   1.748  13.850  0.8748 -1.0729 -0.3018
17037TIP3   OH272601   2.326   4.207  13.731  0.4218  0.0611  0.5817
17037TIP3    H172602   2.271   4.281  13.705  0.1373 -0.4824 -0.4213
17037TIP3    H272603   2.270   4.156  13.790 -0.5780 -1.0339 -1.2324
17038TIP3   OH272604   4.036   3.768   5.624  0.2050 -0.2443 -0.2581
17038TIP3    H172605   4.027   3.808   5.538  1.2207  0.9710  0.1673
17038TIP3    H272606   4.129   3.775   5.644 -0.2013  0.7429  1.5078
17039TIP3   OH272607   2.628   4.874  12.355  0.0160 -0.1652  0.0975
17039TIP3    H172608   2.654   4.820  12.280  1.9726  0.6954  0.0826
17039TIP3    H272609   2.564   4.935  12.319 -1.2439 -1.5880 -0.1735
17040TIP3   OH272610   2.136   0.042  15.389 -0.3682 -0.6721 -0.6251
17040TIP3    H172611   2.041   0.047  15.400 -0.1599  0.2339  1.0237
17040TIP3    H272612   2.170   0.025  15.477  0.8779 -3.6234 -1.5350
17041TIP3   OH272613   6.390   1.937   1.048 -0.4097 -0.0937 -0.1029
17041TIP3    H172614   6.312   1.971   1.003 -0.6719 -0.6679 -0.0836
17041TIP3    H272615   6.361   1.921   1.137  0.1928  1.3403  0.3790
17042TIP3   OH272616   3.813   6.207   3.477  0.2056  0.0661 -0.6191
17042TIP3    H172617   3.892   6.189   3.529 -0.7584 -1.4758  0.3850
17042TIP3    H272618   3.781   6.291   3.511 -0.9626 -1.3670  2.1216
17043TIP3   OH272619   2.016   0.262  12.761  0.0566  0.6627  0.0808
17043TIP3    H172620   1.979   0.267  12.850  0.7936 -1.1767  0.5302
17043TIP3    H272621   2.103   0.300  12.769  0.0717  0.6204  0.1196
17044TIP3   OH272622   1.203   2.468  10.651  0.4604 -0.1621  0.3502
17044TIP3    H172623   1.289   2.439  10.682  0.6948 -1.1954 -1.1426
17044TIP3    H272624   1.163   2.389  10.614 -1.7542 -0.0447  2.2327
17045TIP3   OH272625   4.558   0.077  11.269  0.2420 -0.1982 -0.3490
17045TIP3    H172626   4.494   0.123  11.215  0.2494  1.6643  1.1338
17045TIP3    H272627   4.509   0.002  11.304 -0.2661 -0.4176 -1.4672
17046TIP3   OH272628   3.747   4.494   3.526 -0.0894 -0.0457  0.2608
17046TIP3    H172629   3.715   4.519   3.613 -2.4525  0.6214 -0.7105
17046TIP3    H272630   3.676   4.442   3.488  1.5485 -1.6983 -0.7148
17047TIP3   OH272631   6.542   4.686   0.291  0.0941 -0.1345  0.1519
17047TIP3    H172632   6.566   4.662   0.201 -2.4537  0.4637 -0.7859
17047TIP3    H272633   6.625   4.707   0.333  1.5412 -2.0408 -1.5471
17048TIP3   OH272634   2.785   5.199   1.959  0.2241 -0.2614  0.0900
17048TIP3    H172635   2.757   5.246   1.880  0.3867  1.0509  0.7964
17048TIP3    H272636   2.766   5.107   1.939 -1.3399  0.2162 -0.8091
17049TIP3   OH272637   5.020   5.724  16.212 -0.2525 -0.3476 -0.1139
17049TIP3    H172638   5.104   5.768  16.222  0.4725 -1.2171 -1.8825
17049TIP3    H272639   4.958   5.794  16.193 -0.2164  0.4325  2.3152
17050TIP3   OH272640   3.076   1.496   2.863  0.4210 -0.3930  0.1436
17050TIP3    H172641   3.172   1.502   2.861  0.4808 -1.1306 -1.8527
17050TIP3    H272642   3.058   1.402   2.876 -0.0250 -0.2801  0.3518
17051TIP3   OH272643   2.494   0.341  15.915 -0.6590 -0.0265  0.4335
17051TIP3    H172644   2.510   0.390  15.996 -2.2493 -0.9443  1.3567
17051TIP3    H272645   2.521   0.252  15.936 -0.5352 -0.1532 -0.2630
17052TIP3   OH272646   4.839   1.718  14.140 -0.6098  0.0509 -0.0944
17052TIP3    H172647   4.932   1.697  14.147 -0.8944 -0.6490  2.0913
17052TIP3    H272648   4.795   1.633  14.137 -1.2164  0.3768 -1.2249
17053TIP3   OH272649   1.428   5.494   2.204 -0.3141 -0.0710 -0.2677
17053TIP3    H172650   1.488   5.460   2.138 -1.9592  0.8381 -2.3566
17053TIP3    H272651   1.384   5.417   2.239 -0.2440 -0.4984 -1.0992
17054TIP3   OH272652   0.581   0.110  11.129 -0.2373  0.4766 -0.2234
17054TIP3    H172653   0.669   0.087  11.098 -0.0672  0.3180  0.3621
17054TIP3    H272654   0.527   0.035  11.106  0.1180 -0.1234  0.8322
17055TIP3   OH272655   6.331   5.347   5.621 -0.4224  0.2866  0.0592
17055TIP3    H172656   6.426   5.342   5.634 -0.5619 -1.1852  0.6429
17055TIP3    H272657   6.294   5.305   5.698 -1.4811 -1.3853 -1.2980
17056TIP3   OH272658   4.080   6.215   4.590  0.3153 -0.1635  0.7759
17056TIP3    H172659   4.161   6.262   4.608 -0.1312  0.9647  0.0001
17056TIP3    H272660   4.079   6.206   4.494 -0.4692 -0.1368  0.7752
17057TIP3   OH272661   1.362   0.043   0.082  0.4489 -0.3150  0.0775
17057TIP3    H172662   1.320   0.058   0.166 -1.1014 -1.2979 -0.4771
17057TIP3    H272663   1.362  -0.052   0.072  2.5631 -0.3460 -0.1093
17058TIP3   OH272664   4.455   4.938   5.298 -0.1629  0.4122  0.2909
17058TIP3    H172665   4.501   5.022   5.305  1.7085 -0.4270 -1.0816
17058TIP3    H272666   4.401   4.947   5.219  0.1990  0.2712  0.0236
17059TIP3   OH272667   0.943   3.295  12.470  0.3653  0.0575  0.1491
17059TIP3    H172668   1.003   3.255  12.406  1.5207 -2.6631  2.6787
17059TIP3    H272669   1.001   3.343  12.529 -0.5257  1.4074 -0.0515
17060TIP3   OH272670   4.744   5.030   1.749 -0.7687 -0.0866 -0.0517
17060TIP3    H172671   4.760   4.936   1.741  1.2255  0.1420  0.6508
17060TIP3    H272672   4.758   5.064   1.660 -0.2450 -0.3020 -0.0569
17061TIP3   OH272673   4.401   5.327   1.741  0.2758 -0.2114 -0.1381
17061TIP3    H172674   4.460   5.373   1.801 -0.5575  0.6959  0.0220
17061TIP3    H272675   4.351   5.397   1.699 -1.6228 -1.0144  0.7148
17062TIP3   OH272676   1.196   1.970  12.053 -0.1565 -0.7771 -0.3625
17062TIP3    H172677   1.264   1.963  11.986 -0.1977  1.3084 -0.7134
17062TIP3    H272678   1.233   1.926  12.129  1.0388 -0.8411 -0.9492
17063TIP3   OH272679   1.880   6.669   0.086 -0.1940 -0.0158  0.2900
17063TIP3    H172680   1.902   6.587   0.042  0.6346  0.3299  0.0479
17063TIP3    H272681   1.907   6.737   0.025 -0.3229  0.4437  0.7414
17064TIP3   OH272682   5.281   5.275   5.811 -0.1064 -0.7280  0.1154
17064TIP3    H172683   5.293   5.221   5.733  1.9174 -0.8510  0.4379
17064TIP3    H272684   5.346   5.241   5.873 -0.5893  0.3854  1.2755
17065TIP3   OH272685   0.564   5.918   5.076  0.3972  0.3798 -0.0357
17065TIP3    H172686   0.623   5.909   5.151  0.3854  0.2802 -0.0390
17065TIP3    H272687   0.613   5.882   5.002 -0.1486 -0.8864  0.1920
17066TIP3   OH272688   4.141   4.138   6.107  0.1230 -0.0543  0.5325
17066TIP3    H172689   4.107   4.149   6.196 -0.2893  0.6705  0.2974
17066TIP3    H272690   4.229   4.101   6.119 -0.1884 -0.5959  1.2072
17067TIP3   OH272691   3.612   2.474   3.300 -0.3965  0.4939  0.1641
17067TIP3    H172692   3.614   2.423   3.219  1.5001  0.6114  0.0731
17067TIP3    H272693   3.634   2.410   3.368  0.9410  0.9274  0.1779
17068TIP3   OH272694   3.355   1.152   3.381 -0.4275 -0.2991  0.2107
17068TIP3    H172695   3.330   1.156   3.289  0.5818 -0.6601 -0.0962
17068TIP3    H272696   3.296   1.213   3.425  0.8238  1.9621 -1.0666
17069TIP3   OH272697   2.673   4.716  15.352  0.0565  0.0470 -0.1277
17069TIP3    H172698   2.591   4.744  15.312 -0.1992  0.0053  0.3521
17069TIP3    H272699   2.649   4.643  15.408 -0.0461  1.6092  1.9957
17070TIP3   OH272700   0.717   3.412  14.197  0.4970 -0.2837  0.3673
17070TIP3    H172701   0.790   3.379  14.145  0.8433  0.6958  0.1969
17070TIP3    H272702   0.640   3.397  14.142  0.8606  0.7745 -0.4792
17071TIP3   OH272703   2.559   2.311   1.374  0.4422 -0.3589  0.7055
17071TIP3    H172704   2.568   2.221   1.343  1.8460  0.3764 -1.2314
17071TIP3    H272705   2.608   2.312   1.456 -0.1602 -1.4941  1.1027
17072TIP3   OH272706   1.396   5.725   5.614  0.2661 -0.2489 -0.0159
17072TIP3    H172707   1.364   5.727   5.524  1.9999 -0.6121 -0.6840
17072TIP3    H272708   1.317   5.713   5.667 -0.9275  1.1537 -1.3690
17073TIP3   OH272709   1.698   3.554  11.536  0.4317 -0.0418 -0.0709
17073TIP3    H172710   1.720   3.559  11.442  0.2459  0.3844 -0.0943
17073TIP3    H272711   1.688   3.460  11.553  2.5984 -0.2985  0.0235
17074TIP3   OH272712   0.525   0.582  16.412 -0.6581  0.5290  0.4689
17074TIP3    H172713   0.512   0.598  16.319  0.3461 -0.2707  0.1696
17074TIP3    H272714   0.439   0.597  16.452 -1.7258 -1.4553 -0.9137
17075TIP3   OH272715   5.277   3.486  11.728  0.1855 -0.4630 -0.6226
17075TIP3    H172716   5.200   3.464  11.675  0.6971 -0.7210 -1.2670
17075TIP3    H272717   5.287   3.581  11.718 -1.1844 -0.0869  1.0269
17076TIP3   OH272718   4.519   5.483  13.265  0.3414  0.4297  0.0181
17076TIP3    H172719   4.512   5.568  13.223 -0.0717 -0.7637 -2.5497
17076TIP3    H272720   4.436   5.439  13.245  0.2567 -0.3477  1.8835
17077TIP3   OH272721   1.112   5.784   0.527 -0.9227 -0.2522  0.6389
17077TIP3    H172722   1.056   5.755   0.455 -1.9991 -0.5705  1.5763
17077TIP3    H272723   1.095   5.722   0.598  0.6735 -0.3901  0.9452
17078TIP3   OH272724   5.419   0.827  11.840  0.1389  0.3900 -0.4260
17078TIP3    H172725   5.461   0.775  11.772 -1.0066  0.0550 -0.9094
17078TIP3    H272726   5.331   0.790  11.848  0.1698  0.5528  1.0992
17079TIP3   OH272727   4.588   2.987  13.361 -0.5866  0.2026  0.4164
17079TIP3    H172728   4.577   3.082  13.371 -0.2748  0.2375  0.4188
17079TIP3    H272729   4.499   2.952  13.373 -0.6737  0.4770  0.5871
17080TIP3   OH272730   3.225   2.875  16.858  0.0114 -0.2117 -0.4830
17080TIP3    H172731   3.149   2.911  16.811  0.7761  1.5311 -0.4744
17080TIP3    H272732   3.251   2.799  16.807  0.3954  1.2362 -2.5996
17081TIP3   OH272733   6.371   6.565  16.345  0.5908  0.7307 -0.2282
17081TIP3    H172734   6.391   6.494  16.406 -2.3976 -0.1704 -0.1274
17081TIP3    H272735   6.345   6.522  16.264 -1.0344  1.6727 -0.2529
17082TIP3   OH272736   6.655   0.726   2.585 -0.2137 -0.0076  0.2890
17082TIP3    H172737   6.660   0.821   2.575  1.8732  0.3615  3.3907
17082TIP3    H272738   6.567   0.711   2.618 -0.8216  0.7047 -0.9090
17083TIP3   OH272739   1.724   4.629  11.191 -0.4521  0.0870  0.2345
17083TIP3    H172740   1.749   4.702  11.247 -0.6093  0.2726  0.0658
17083TIP3    H272741   1.740   4.661  11.102 -2.1635  0.5739  0.0584
17084TIP3   OH272742   1.636   6.495  10.917  0.0555 -0.0517 -0.0060
17084TIP3    H172743   1.717   6.530  10.880 -0.9929  1.9256 -0.5324
17084TIP3    H272744   1.589   6.571  10.950 -1.8173 -1.1019 -0.1156
17085TIP3   OH272745   2.980   0.564   0.679  0.1309 -0.2094  0.1622
17085TIP3    H172746   2.935   0.643   0.708  0.1261 -0.1424 -0.0328
17085TIP3    H272747   2.909   0.503   0.657  0.1171 -0.5904  1.1710
17086TIP3   OH272748   1.846   5.731  16.226  0.6630  0.0892 -0.3235
17086TIP3    H172749   1.869   5.746  16.317  0.7655  0.2829 -0.3803
17086TIP3    H272750   1.781   5.798  16.207  1.3245  0.6486 -0.6603
17087TIP3   OH272751   5.549   6.712  14.203  0.1271  0.7056  0.4896
17087TIP3    H172752   5.591   6.685  14.122 -0.3426 -0.4140  0.5887
17087TIP3    H272753   5.464   6.746  14.176  0.3883  1.3110  0.4298
17088TIP3   OH272754   5.997   5.879   1.402  0.8083  0.3558  0.8184
17088TIP3    H172755   5.981   5.974   1.402 -0.6512  0.2226 -2.3829
17088TIP3    H272756   6.089   5.870   1.375  0.8852  0.8234  0.9149
17089TIP3   OH272757   6.357   2.101   3.125  0.3421 -0.0641  0.1845
17089TIP3    H172758   6.440   2.145   3.145 -0.2214  1.6258 -0.9407
17089TIP3    H272759   6.292   2.170   3.132 -0.7017 -0.9004 -0.9061
17090TIP3   OH272760   6.503   4.780  15.114 -0.4835  0.3837 -0.4421
17090TIP3    H172761   6.570   4.794  15.181 -0.5694 -1.0535 -0.0374
17090TIP3    H272762   6.467   4.868  15.098 -0.7452  0.7271  1.7076
17091TIP3   OH272763   2.234   0.972  11.281  0.0060 -0.3583  0.7460
17091TIP3    H172764   2.303   0.951  11.218 -0.3580 -0.9302  0.5322
17091TIP3    H272765   2.218   0.891  11.328  0.8969  0.2772  2.2228
17092TIP3   OH272766   6.399   3.113  12.125  0.4081  0.0149  0.0242
17092TIP3    H172767   6.444   3.174  12.067  1.5548 -1.1683 -0.3799
17092TIP3    H272768   6.314   3.099  12.084  0.6993  0.2189 -0.6626
17093TIP3   OH272769   1.833   2.320   3.592  0.2204  0.6090 -0.3085
17093TIP3    H172770   1.783   2.379   3.535 -1.0247 -0.8895 -0.8212
17093TIP3    H272771   1.915   2.304   3.545 -1.1621 -1.3386 -2.2121
17094TIP3   OH272772   2.895   2.729  16.276  0.2968 -0.2801  0.1514
17094TIP3    H172773   2.989   2.735  16.291  0.6375 -1.8207 -1.1152
17094TIP3    H272774   2.870   2.815  16.242  1.8225 -0.6740 -2.1738
17095TIP3   OH272775   4.003   5.221  17.190  0.2602 -0.0318 -0.6347
17095TIP3    H172776   4.018   5.281  17.117  0.5707  0.1453 -0.4285
17095TIP3    H272777   4.088   5.178  17.203  1.0784  2.0500  1.5194
17096TIP3   OH272778   2.468   4.673   3.163 -0.3879  0.4780 -0.3436
17096TIP3    H172779   2.468   4.760   3.203 -1.2169 -0.0506  0.8647
17096TIP3    H272780   2.392   4.629   3.200  0.9329 -1.3311  0.3743
17097TIP3   OH272781   0.465   5.717   0.703  0.5553 -0.5770  0.1554
17097TIP3    H172782   0.558   5.740   0.695  0.5555 -0.8877 -0.8526
17097TIP3    H272783   0.438   5.695   0.614  0.1467 -2.8928  0.8010
17098TIP3   OH272784   4.163   1.900   0.955  0.5059 -0.2872  0.2850
17098TIP3    H172785   4.223   1.836   0.993 -1.5418 -2.2555  0.4022
17098TIP3    H272786   4.084   1.894   1.009 -1.0618 -0.3666 -1.8885
17099TIP3   OH272787   4.695   1.353   3.698 -0.5459 -0.1370 -0.0438
17099TIP3    H172788   4.754   1.374   3.770  0.0434 -0.2217 -0.4899
17099TIP3    H272789   4.726   1.409   3.626 -2.1710  1.2201  0.2358
17100TIP3   OH272790   3.868   2.167  12.118 -0.1162  0.0338 -0.1640
17100TIP3    H172791   3.886   2.261  12.113 -0.1136  0.1160  1.0073
17100TIP3    H272792   3.950   2.129  12.150  0.5934 -0.6737 -2.5719
17101TIP3   OH272793   6.079   4.685  13.213 -0.1540  0.1346 -0.0778
17101TIP3    H172794   6.032   4.747  13.157  0.0485  0.8673  0.5450
17101TIP3    H272795   6.167   4.722  13.221  0.2318 -0.7048 -0.4170
17102TIP3   OH272796   4.729   6.399  14.231 -0.0344 -0.1881 -0.7108
17102TIP3    H172797   4.784   6.322  14.244 -0.2717 -0.7394 -2.6363
17102TIP3    H272798   4.750   6.456  14.304  2.3027 -0.8553 -0.7854
17103TIP3   OH272799   5.043   5.521  14.842  0.0204 -0.3048 -0.5055
17103TIP3    H172800   5.009   5.511  14.930 -0.6866  1.1881 -0.5799
17103TIP3    H272801   5.074   5.434  14.817 -1.7876 -1.2245  0.3671
17104TIP3   OH272802   4.250   0.829   0.574 -0.2763 -0.2389  0.1386
17104TIP3    H172803   4.166   0.856   0.611 -1.0484 -1.5036 -0.6463
17104TIP3    H272804   4.240   0.736   0.556  1.8885 -0.8185  1.6088
17105TIP3   OH272805   6.746   4.200  14.240 -0.5555 -0.2997  0.0692
17105TIP3    H172806   6.832   4.185  14.199 -0.7820  1.2988 -1.0632
17105TIP3    H272807   6.763   4.189  14.334  0.5648 -1.3907 -0.2240
17106TIP3   OH272808   5.741   0.716   1.001  0.6271  1.0440  0.4961
17106TIP3    H172809   5.794   0.725   0.922  2.2822  0.4323  1.4656
17106TIP3    H272810   5.748   0.624   1.024  0.5973  1.3000  1.6074
17107TIP3   OH272811   6.465   0.044   4.269  0.7762 -0.0756 -0.2995
17107TIP3    H172812   6.379   0.026   4.305  0.6827 -0.3880 -0.6669
17107TIP3    H272813   6.487  -0.035   4.219  1.0096  0.2397 -0.7048
17108TIP3   OH272814   4.379   5.083   1.582 -0.4958 -0.0428 -0.4708
17108TIP3    H172815   4.407   5.167   1.619  1.8224 -0.7255 -0.5147
17108TIP3    H272816   4.443   5.065   1.513 -1.6701 -1.2855 -1.2840
17109TIP3   OH272817   4.904   4.372  16.677  0.0222 -0.3279 -0.8871
17109TIP3    H172818   4.845   4.309  16.636  1.4644 -1.6044 -1.0859
17109TIP3    H272819   4.992   4.342  16.654  0.9089 -0.6713  2.3843
17110TIP3   OH272820   1.748   4.982   3.119  0.8956  0.2363  0.0777
17110TIP3    H172821   1.730   5.036   3.042 -0.9732 -0.0197  0.2925
17110TIP3    H272822   1.829   5.018   3.155  2.1204  0.0390 -2.2706
17111TIP3   OH272823   1.247   4.542   0.462 -0.1070 -0.7050  0.4075
17111TIP3    H172824   1.247   4.523   0.368 -0.9951  1.9070 -0.2086
17111TIP3    H272825   1.337   4.523   0.491  0.5221 -0.3966 -1.2471
17112TIP3   OH272826   6.542   4.123   6.274  0.7528  0.6832 -0.5765
17112TIP3    H172827   6.473   4.146   6.336 -0.1750 -0.0296 -1.3206
17112TIP3    H272828   6.507   4.149   6.189  1.2900  0.0588 -0.9931
17113TIP3   OH272829   6.172   3.011   4.587 -0.4628  0.3152 -0.4565
17113TIP3    H172830   6.097   2.952   4.576  0.6633 -1.0083 -1.3289
17113TIP3    H272831   6.132   3.098   4.597 -2.0982 -0.2879 -1.2951
17114TIP3   OH272832   6.835   2.330  14.231  0.0200  0.4964  0.1468
17114TIP3    H172833   6.796   2.417  14.238  0.4697  0.5986  2.1704
17114TIP3    H272834   6.908   2.341  14.170  0.1163  1.5730  0.4292
17115TIP3   OH272835   1.458   5.063  13.059  0.1634 -0.4236  0.6313
17115TIP3    H172836   1.428   5.058  12.969 -0.4092 -1.2952  0.8556
17115TIP3    H272837   1.382   5.094  13.108 -0.0510 -1.5122  1.0316
17116TIP3   OH272838   4.419   3.939   1.007 -0.3086 -0.3455 -0.7230
17116TIP3    H172839   4.358   4.009   0.984 -0.9981 -0.1118  1.6430
17116TIP3    H272840   4.477   3.932   0.931 -2.1933  0.5880 -2.3282
17117TIP3   OH272841   2.929   6.083   3.170 -0.1708 -0.0317  0.0638
17117TIP3    H172842   2.950   5.990   3.181 -0.2204 -0.4474 -2.6904
17117TIP3    H272843   3.000   6.118   3.117  0.0341  1.6513  1.3535
17118TIP3   OH272844   5.882   5.020   1.400 -0.6954 -0.6055  0.0873
17118TIP3    H172845   5.913   5.054   1.316 -0.7890  0.4545  0.4724
17118TIP3    H272846   5.787   5.015   1.391 -0.6177 -1.5498 -0.2512
17119TIP3   OH272847   1.371   4.675   1.819  0.9904  0.1273 -0.1394
17119TIP3    H172848   1.449   4.655   1.871  0.2119  0.3194  1.1316
17119TIP3    H272849   1.307   4.708   1.882 -0.7739 -1.7369 -0.8333
17120TIP3   OH272850   0.123   0.388   5.327 -0.3166 -0.4412  0.2561
17120TIP3    H172851   0.114   0.479   5.354 -0.5573  0.1900 -1.8117
17120TIP3    H272852   0.061   0.377   5.255 -0.7405 -2.4358  0.8475
17121TIP3   OH272853   2.044   0.029  15.008 -0.2593 -0.3815  0.4960
17121TIP3    H172854   1.986   0.039  14.932 -0.3288  2.3969  0.8277
17121TIP3    H272855   2.004  -0.042  15.059 -0.1458 -2.4104 -2.0459
17122TIP3   OH272856   0.090   4.463   1.340 -0.1857 -0.2848 -0.2834
17122TIP3    H172857   0.069   4.439   1.430  0.5677  0.2020  0.0333
17122TIP3    H272858   0.014   4.512   1.310  0.3465  1.2528  0.7638
17123TIP3   OH272859   3.619   6.524   5.559  0.2524 -0.2238  0.1941
17123TIP3    H172860   3.712   6.545   5.558  0.3080 -0.4790 -0.6381
17123TIP3    H272861   3.600   6.496   5.470 -0.7301  0.2883  0.2274
17124TIP3   OH272862   3.690   2.026  12.463 -0.1774  0.3879 -0.2021
17124TIP3    H172863   3.659   1.935  12.461 -1.7182  0.8895 -0.8028
17124TIP3    H272864   3.730   2.039  12.377  0.6450  0.0981  0.1281
17125TIP3   OH272865   3.597   4.928  17.125  0.2480 -0.1828  0.0173
17125TIP3    H172866   3.630   5.016  17.141 -1.1412  0.5406 -0.8878
17125TIP3    H272867   3.506   4.930  17.157  0.0661 -1.1613 -0.3886
17126TIP3   OH272868   1.880   6.146  17.140 -0.5683 -0.0366  0.3256
17126TIP3    H172869   1.865   6.145  17.045 -2.1908 -0.0642  0.5510
17126TIP3    H272870   1.833   6.069  17.172 -1.6390  0.9811  1.3303
17127TIP3   OH272871   2.018   5.439   3.110 -0.4509  0.4010 -0.0614
17127TIP3    H172872   2.018   5.525   3.067  0.4218  1.4467  1.8927
17127TIP3    H272873   2.108   5.426   3.138 -0.8102 -0.6289  0.6641
17128TIP3   OH272874   6.784   6.066  15.356  1.0091 -0.2311 -0.1971
17128TIP3    H172875   6.714   6.113  15.310  0.5731  0.1956  0.8682
17128TIP3    H272876   6.864   6.111  15.329  0.4989  2.0973  1.8232
17129TIP3   OH272877   3.490   3.044  16.059  0.1813  0.0334  0.2203
17129TIP3    H172878   3.479   2.951  16.080  1.6306 -0.0841  0.5339
17129TIP3    H272879   3.405   3.083  16.080 -0.0816 -1.0172  1.2176
17130TIP3   OH272880   2.295   2.370   3.565  0.0602 -0.4662  0.2895
17130TIP3    H172881   2.348   2.304   3.611  0.8956 -0.8537 -1.1524
17130TIP3    H272882   2.233   2.401   3.630  0.3414 -1.9331  1.3042
17131TIP3   OH272883   1.677   1.912   2.183  0.2766 -0.1547  0.5725
17131TIP3    H172884   1.750   1.905   2.246  1.4482 -0.4262 -0.7696
17131TIP3    H272885   1.636   1.995   2.205 -0.2473 -0.8792  2.6086
17132TIP3   OH272886   5.838   5.254   0.640 -0.2161 -0.1738 -0.6373
17132TIP3    H172887   5.850   5.160   0.648  0.3350 -0.0809 -0.2869
17132TIP3    H272888   5.799   5.281   0.723  3.5530  0.4867  1.1607
17133TIP3   OH272889   5.095   6.241  14.042  0.2492 -0.3245 -0.5640
17133TIP3    H172890   5.019   6.276  13.995 -1.1401 -1.5762  0.6276
17133TIP3    H272891   5.131   6.174  13.984 -2.0978 -2.6215  0.4281
17134TIP3   OH272892   3.504   2.125   0.162 -0.1234  0.4581 -0.0732
17134TIP3    H172893   3.547   2.204   0.128  0.5478  0.0400 -0.2147
17134TIP3    H272894   3.554   2.053   0.124 -1.4835 -0.0619 -0.9467
17135TIP3   OH272895   3.402   2.922   3.412  0.0656  0.1054  0.2980
17135TIP3    H172896   3.435   2.835   3.393 -0.9734 -0.7159  2.0519
17135TIP3    H272897   3.315   2.908   3.449 -0.5154  1.9428 -0.2511
17136TIP3   OH272898   2.511   1.874   3.813 -1.0894 -0.1360  0.5846
17136TIP3    H172899   2.472   1.867   3.726  0.4619 -0.3829 -0.1384
17136TIP3    H272900   2.524   1.783   3.841 -0.3173 -0.0731  0.4542
17137TIP3   OH272901   3.520   6.638   2.986 -0.4755  0.1957  0.5663
17137TIP3    H172902   3.606   6.601   3.008 -0.2544  0.8036  0.7470
17137TIP3    H272903   3.523   6.649   2.891 -0.0953  0.8261  0.6429
17138TIP3   OH272904   0.513   5.482   3.236 -0.1372  0.3668  0.7303
17138TIP3    H172905   0.538   5.573   3.248  1.7726 -0.1849  1.1897
17138TIP3    H272906   0.417   5.482   3.246 -0.1759  2.3043  0.6563
17139TIP3   OH272907   3.596   2.819  16.319 -0.1326 -0.2001 -0.0044
17139TIP3    H172908   3.533   2.786  16.383 -0.1934  0.2786  0.1881
17139TIP3    H272909   3.547   2.819  16.236 -0.7849  1.2532  0.3425
17140TIP3   OH272910   1.708   2.982  14.141 -0.1093 -0.6193 -0.2442
17140TIP3    H172911   1.669   3.067  14.123 -1.5247 -0.7008  2.0421
17140TIP3    H272912   1.796   3.002  14.172  0.5536 -0.2264 -2.1961
17141TIP3   OH272913   3.176   6.655   5.662  0.3247  0.0026  1.0428
17141TIP3    H172914   3.119   6.712   5.610 -2.1162 -2.3052  0.9721
17141TIP3    H272915   3.200   6.585   5.602 -0.7945 -1.5930  2.3787
17142TIP3   OH272916   4.720   5.829   0.918  0.6116 -0.4609 -0.0751
17142TIP3    H172917   4.772   5.867   0.847 -0.8187  1.9306  0.0504
17142TIP3    H272918   4.774   5.840   0.996  1.9526 -2.5977 -0.6038
17143TIP3   OH272919   2.135   4.886  11.948 -0.8921  0.0341 -0.3636
17143TIP3    H172920   2.075   4.961  11.954 -0.9913 -0.0355 -0.4994
17143TIP3    H272921   2.089   4.822  11.894 -0.1543  0.5027 -1.5761
17144TIP3   OH272922   3.740   5.692   2.790  0.0034  0.0684 -0.2056
17144TIP3    H172923   3.647   5.699   2.770  0.1430 -0.6783 -1.2113
17144TIP3    H272924   3.777   5.642   2.717  1.2494  0.6217  0.0085
17145TIP3   OH272925   3.316   1.189  11.103  0.0072 -0.0322  0.1671
17145TIP3    H172926   3.284   1.148  11.023  0.4810  3.2445 -1.8940
17145TIP3    H272927   3.405   1.217  11.082 -0.1164  1.5611  1.5627
17146TIP3   OH272928   6.830   6.483  15.197 -0.2325 -0.3768 -0.0837
17146TIP3    H172929   6.767   6.542  15.156 -1.6614 -0.4836  1.8065
17146TIP3    H272930   6.899   6.540  15.231  1.0229 -0.2948 -2.5470
17147TIP3   OH272931   2.105   6.675   0.584 -0.2997  0.2424 -0.2696
17147TIP3    H172932   2.155   6.625   0.647  0.8928 -1.9451 -2.7458
17147TIP3    H272933   2.041   6.613   0.549 -0.7879  1.2952 -1.3364
17148TIP3   OH272934   5.441   4.880  12.075 -0.3817  0.2854  0.1845
17148TIP3    H172935   5.511   4.917  12.129  0.7228  0.5296 -1.3317
17148TIP3    H272936   5.462   4.786  12.070 -0.0583  0.3821 -0.3871
17149TIP3   OH272937   2.893   3.481   2.080 -0.2896  0.0449  0.1533
17149TIP3    H172938   2.959   3.536   2.039 -1.9821  1.2627 -1.0730
17149TIP3    H272939   2.854   3.537   2.147 -0.9893 -0.1926 -0.0496
17150TIP3   OH272940   0.239   3.987  13.830  0.1522 -0.1903 -0.5126
17150TIP3    H172941   0.163   3.990  13.771 -0.1496 -1.1867 -0.1943
17150TIP3    H272942   0.225   3.908  13.882  0.5815  0.5013  0.6797
17151TIP3   OH272943   0.620   5.338  14.972  0.0316 -0.8187 -0.6322
17151TIP3    H172944   0.573   5.256  14.961  0.5240 -1.0865 -0.7391
17151TIP3    H272945   0.713   5.314  14.971  0.1945 -0.2065 -1.2104
17152TIP3   OH272946   6.050   6.392  11.605 -0.5624  0.1270  0.2843
17152TIP3    H172947   6.039   6.330  11.677 -1.5814  2.0263  1.8367
17152TIP3    H272948   6.138   6.374  11.573 -0.4970 -1.5264  1.2450
17153TIP3   OH272949   2.856   0.360  15.094  0.6175 -0.0458 -0.0857
17153TIP3    H172950   2.916   0.330  15.162  0.1763  2.0493  1.3024
17153TIP3    H272951   2.774   0.377  15.140 -0.5754 -1.1959 -1.6560
17154TIP3   OH272952   6.798   0.543  11.644 -0.3692 -0.1202 -0.1312
17154TIP3    H172953   6.755   0.531  11.560 -0.3146  0.5291 -0.2561
17154TIP3    H272954   6.844   0.460  11.659  1.2082  0.4044 -1.6709
17155TIP3   OH272955   0.055   5.140  14.479 -0.5659 -0.1945  0.2462
17155TIP3    H172956   0.131   5.192  14.506 -0.8304 -1.0773  2.9239
17155TIP3    H272957   0.083   5.100  14.396  0.8476  1.5855 -0.2084
17156TIP3   OH272958   3.711   1.277   5.743  0.5642  0.2175  0.7250
17156TIP3    H172959   3.777   1.208   5.751  0.5337 -0.1202 -1.4538
17156TIP3    H272960   3.644   1.253   5.807  1.2634 -0.9318  1.0591
17157TIP3   OH272961   5.209   4.956  11.221 -0.6626  0.4440 -0.0967
17157TIP3    H172962   5.222   4.872  11.264 -2.3897  0.0328 -0.2916
17157TIP3    H272963   5.189   4.934  11.130  2.2331  1.2669 -1.0508
17158TIP3   OH272964   2.046   5.001   5.202 -0.3999  1.0192 -0.6135
17158TIP3    H172965   2.008   4.969   5.120 -0.3535  0.4284 -0.4056
17158TIP3    H272966   2.140   5.003   5.186 -0.2979 -0.1745 -0.2033
17159TIP3   OH272967   1.203   0.287   4.578  0.0135  0.2503 -0.1785
17159TIP3    H172968   1.203   0.205   4.530  1.2198 -0.6748  1.2915
17159TIP3    H272969   1.235   0.264   4.666 -2.1114  1.8239  1.1152
17160TIP3   OH272970   6.015   5.216  13.659  0.2761  0.6722  0.0510
17160TIP3    H172971   6.078   5.172  13.715 -0.5981  2.1372  2.3342
17160TIP3    H272972   5.991   5.150  13.594  1.8820 -0.8837  0.9313
17161TIP3   OH272973   1.912   5.149   0.716 -0.1303 -0.3547  0.2541
17161TIP3    H172974   1.899   5.054   0.710  1.1488 -0.5734  0.7012
17161TIP3    H272975   1.945   5.174   0.630  1.0915 -0.5970  0.6330
17162TIP3   OH272976   3.710   3.630   3.989  0.2399 -0.0431 -1.1585
17162TIP3    H172977   3.748   3.683   4.059  2.1877 -0.2442 -2.0289
17162TIP3    H272978   3.704   3.542   4.027 -0.2845  0.1750 -0.7080
17163TIP3   OH272979   0.136   1.730   4.044 -0.7615  0.5884 -0.0103
17163TIP3    H172980   0.164   1.755   4.132  0.8051 -0.2301 -0.2409
17163TIP3    H272981   0.170   1.641   4.032 -3.2207 -0.3670 -0.4802
17164TIP3   OH272982   0.365   2.490   6.398 -0.0621 -0.1923 -0.1584
17164TIP3    H172983   0.313   2.461   6.472  0.3892 -0.6301 -0.0105
17164TIP3    H272984   0.392   2.579   6.421 -0.4408 -0.0975 -0.0775
17165TIP3   OH272985   4.107   6.804  11.403 -0.0512  0.4546  0.4942
17165TIP3    H172986   4.121   6.837  11.314  0.9775  1.7150  1.0981
17165TIP3    H272987   4.177   6.741  11.417  0.8049  1.5005  0.9938
17166TIP3   OH272988   0.437   1.645   4.650 -0.0009  0.1075 -0.8290
17166TIP3    H172989   0.398   1.569   4.693 -3.7318  0.4574 -3.1268
17166TIP3    H272990   0.521   1.613   4.618 -1.9840 -3.6884 -2.9830
17167TIP3   OH272991   1.189   6.263  10.637 -0.3351  0.6098  0.1983
17167TIP3    H172992   1.126   6.278  10.708  2.0230  2.8605  2.0037
17167TIP3    H272993   1.202   6.349  10.598 -0.3672 -0.3062 -2.0111
17168TIP3   OH272994   3.099   2.450  12.918  0.1019 -0.0950 -0.0632
17168TIP3    H172995   3.085   2.356  12.918  1.7582 -0.3929  0.9156
17168TIP3    H272996   3.028   2.486  12.865 -0.5332 -1.8857 -0.4750
17169TIP3   OH272997   3.031   6.818  11.193 -0.2554 -0.4695  0.4214
17169TIP3    H172998   2.937   6.802  11.182 -0.2824 -2.0849  2.4901
17169TIP3    H272999   3.035   6.908  11.226 -1.1147 -0.5612  0.8148
17170TIP3   OH273000   3.873   5.963  11.602 -0.3608 -0.1980 -0.3827
17170TIP3    H173001   3.895   5.997  11.689 -0.0533  0.0718 -0.5660
17170TIP3    H273002   3.847   6.040  11.552  0.5666 -0.1864 -0.8665
17171TIP3   OH273003   1.363   3.615  12.134  0.2567 -0.1320  0.3720
17171TIP3    H173004   1.360   3.659  12.049 -1.4122 -1.6648 -0.4541
17171TIP3    H273005   1.286   3.558  12.133  1.2609 -1.6209  2.1385
17172TIP3   OH273006   1.839   2.097   3.966 -0.3685  0.2833  0.2748
17172TIP3    H173007   1.904   2.028   3.973 -1.2185 -0.7183 -1.1466
17172TIP3    H273008   1.878   2.162   3.907  0.3240  0.9043  1.4015
17173TIP3   OH273009   3.735   5.595   4.004  0.3362 -0.1502  0.2658
17173TIP3    H173010   3.814   5.590   4.057 -0.3349  0.4363  1.3614
17173TIP3    H273011   3.715   5.689   3.999 -0.0221 -0.2543 -0.4044
17174TIP3   OH273012   6.648   0.847  15.572 -0.0827 -0.0534 -0.3403
17174TIP3    H173013   6.566   0.853  15.522 -0.4665 -2.1459 -0.0859
17174TIP3    H273014   6.659   0.933  15.612 -1.0306  0.9302 -2.0728
17175TIP3   OH273015   3.411   6.816  11.568 -0.5679  0.6448  0.2294
17175TIP3    H173016   3.420   6.755  11.641  1.7820 -0.5483 -0.9491
17175TIP3    H273017   3.434   6.764  11.490 -2.3588  2.0270 -1.3208
17176TIP3   OH273018   3.193   4.235  11.878  0.2302  0.9072  0.4809
17176TIP3    H173019   3.209   4.326  11.852 -2.6634  0.9704 -1.5124
17176TIP3    H273020   3.112   4.238  11.929  0.0481 -0.5325  0.3287
17177TIP3   OH273021   3.631   5.913   0.696  0.0612  0.6020 -0.1130
17177TIP3    H173022   3.722   5.884   0.684 -0.3275 -0.3824 -0.7851
17177TIP3    H273023   3.637   5.984   0.760  1.2867  0.4370 -0.0195
17178TIP3   OH273024   1.491   0.339  13.476  0.8035  0.6422 -0.0504
17178TIP3    H173025   1.511   0.246  13.466  1.3939  0.7479  0.0957
17178TIP3    H273026   1.430   0.359  13.405  0.9950  0.2361 -0.3288
17179TIP3   OH273027   6.678   6.732  16.185  0.2006 -0.1159 -0.0490
17179TIP3    H173028   6.754   6.676  16.200  1.0878  0.7586 -1.1170
17179TIP3    H273029   6.682   6.753  16.092 -1.4775 -0.2063 -0.1620
17180TIP3   OH273030   4.446   5.146   0.659 -0.1933  0.0203  0.6297
17180TIP3    H173031   4.520   5.202   0.636 -0.7183  0.4347 -0.0896
17180TIP3    H273032   4.388   5.203   0.711  0.0849 -0.3632  1.3740
17181TIP3   OH273033   6.395   2.184   2.715 -0.0842 -0.2957 -0.5197
17181TIP3    H173034   6.481   2.186   2.757 -1.4129  0.9749  2.4335
17181TIP3    H273035   6.363   2.273   2.722 -2.4712 -1.1551  0.4621
17182TIP3   OH273036   1.880   4.988  13.584  0.4634 -0.1850  0.1614
17182TIP3    H173037   1.822   4.915  13.562  0.6367 -0.6163  1.0636
17182TIP3    H273038   1.911   5.021  13.500 -1.3934  0.3169 -0.3720
17183TIP3   OH273039   0.774   5.545   1.885  0.2402 -0.0085 -0.4841
17183TIP3    H173040   0.784   5.471   1.825  1.8511 -0.1924 -0.0516
17183TIP3    H273041   0.861   5.585   1.888  0.4371 -0.4351  2.2361
17184TIP3   OH273042   2.134   4.639   0.346 -0.2064 -0.2170 -0.9583
17184TIP3    H173043   2.188   4.638   0.267  0.9664  0.1377 -0.1739
17184TIP3    H273044   2.145   4.552   0.384  1.3463  0.4610  0.2055
17185TIP3   OH273045   3.449   5.667  12.241  0.1889  0.4647  0.0128
17185TIP3    H173046   3.398   5.743  12.267 -0.7954 -0.1496 -0.0830
17185TIP3    H273047   3.529   5.704  12.203  0.5138  1.4147  1.5240
17186TIP3   OH273048   4.955   1.471   4.933 -0.2920 -0.1910 -0.2451
17186TIP3    H173049   4.949   1.491   5.026  1.9785 -1.1324  0.1626
17186TIP3    H273050   4.969   1.377   4.930 -1.1851 -0.3103 -1.6227
17187TIP3   OH273051   5.539   3.009   2.741 -0.5446 -0.0655  0.2421
17187TIP3    H173052   5.514   2.935   2.796  0.7312 -0.1181  0.8016
17187TIP3    H273053   5.479   3.080   2.767 -1.0503 -0.5770  0.4900
17188TIP3   OH273054   3.017   0.178   1.200 -0.7477 -0.0671 -0.3628
17188TIP3    H173055   2.983   0.230   1.127 -2.0367  1.4912  1.2522
17188TIP3    H273056   3.076   0.238   1.247  0.1332 -1.0702 -0.1292
17189TIP3   OH273057   4.209   4.176   0.956 -0.5173  0.2200  0.0761
17189TIP3    H173058   4.200   4.250   0.896  1.9972  0.1672 -0.4914
17189TIP3    H273059   4.295   4.189   0.996 -0.9003 -1.3313  1.4801
17190TIP3   OH273060   0.802   5.708   4.473 -0.3307 -0.2448  0.1632
17190TIP3    H173061   0.861   5.655   4.526 -0.7422 -0.9267 -0.0380
17190TIP3    H273062   0.714   5.679   4.499 -0.5397 -0.5541 -0.8263
17191TIP3   OH273063   1.101   6.754  12.767 -0.5249  0.0253 -0.3315
17191TIP3    H173064   1.088   6.694  12.694  0.6334 -1.1829  0.4225
17191TIP3    H273065   1.091   6.700  12.845  0.7258  0.7558  0.3684
17192TIP3   OH273066   6.122   3.227  12.872  0.1449  0.4685 -0.3546
17192TIP3    H173067   6.090   3.193  12.956 -1.4584 -0.0530 -1.1398
17192TIP3    H273068   6.089   3.317  12.869  0.6920  0.6791 -0.1883
17193TIP3   OH273069   5.288   3.663  15.342  0.3692  0.3524  0.1196
17193TIP3    H173070   5.340   3.643  15.264  1.2324  1.3365  0.4182
17193TIP3    H273071   5.205   3.697  15.309  1.0700  1.6228 -0.3899
17194TIP3   OH273072   6.160   0.252  14.053 -0.3600  0.1703 -0.1476
17194TIP3    H173073   6.076   0.258  14.007  0.2354 -0.0785 -1.3080
17194TIP3    H273074   6.148   0.180  14.114 -0.7480 -0.4063 -0.8786
17195TIP3   OH273075   3.783   1.932  11.506  0.6092 -0.0551  0.1769
17195TIP3    H173076   3.753   1.847  11.537  0.4597 -0.9357 -2.2263
17195TIP3    H273077   3.749   1.939  11.417  1.1751  2.2433  0.0844
17196TIP3   OH273078   2.700   4.651  11.145  0.0576  0.2170  0.4612
17196TIP3    H173079   2.657   4.593  11.208  0.4638 -0.0760  0.4659
17196TIP3    H273080   2.631   4.713  11.120 -0.3062 -0.1072  0.6448
17197TIP3   OH273081   1.078   3.147  13.623 -0.1256  0.6007 -0.1936
17197TIP3    H173082   1.155   3.115  13.576  0.7620 -0.1482  1.6523
17197TIP3    H273083   1.112   3.210  13.687 -1.0442  0.3811  0.5544
17198TIP3   OH273084   1.659   3.324   4.465  0.9310  0.3647 -0.0337
17198TIP3    H173085   1.689   3.261   4.531  0.5758 -0.2796 -0.4819
17198TIP3    H273086   1.721   3.397   4.473  0.8324  0.3495  1.0822
17199TIP3   OH273087   2.271   4.340  12.616 -0.0130  0.3721 -0.7165
17199TIP3    H173088   2.300   4.349  12.707  1.1831  1.8955 -1.2194
17199TIP3    H273089   2.292   4.249  12.594 -0.7082 -0.1458  0.6408
17200TIP3   OH273090   3.447   4.845  12.427  0.0254 -0.2275 -0.3986
17200TIP3    H173091   3.353   4.858  12.414 -0.0880 -0.3045  0.2775
17200TIP3    H273092   3.455   4.752  12.448  0.2086 -0.1471 -0.1107
17201TIP3   OH273093   0.479   3.959   0.478  0.0837  0.2453 -0.4575
17201TIP3    H173094   0.516   3.885   0.527  2.8457  1.3887 -0.6495
17201TIP3    H273095   0.417   3.998   0.539  1.1060 -0.2459  0.9612
17202TIP3   OH273096   6.407   6.807  14.566 -0.3285 -0.1742 -0.0411
17202TIP3    H173097   6.472   6.818  14.496  0.7025 -0.7788  0.7925
17202TIP3    H273098   6.451   6.840  14.644 -1.1172 -0.3901  0.5021
17203TIP3   OH273099   5.479   4.649   3.207 -0.0014  0.3043 -0.4533
17203TIP3    H173100   5.534   4.675   3.281 -0.3827  3.6760 -1.1951
17203TIP3    H273101   5.517   4.567   3.176  0.7602 -0.7060  2.8092
17204TIP3   OH273102   4.059   4.977  11.554 -0.5557 -0.2802  0.0655
17204TIP3    H173103   4.059   4.994  11.648  0.9708 -0.2747  0.0978
17204TIP3    H273104   4.012   4.895  11.544  1.3757 -1.5823  1.1336
17205TIP3   OH273105   4.558   6.638  13.684 -0.1587 -0.3130 -0.0493
17205TIP3    H173106   4.583   6.731  13.679 -2.7447  0.5310  0.9062
17205TIP3    H273107   4.575   6.614  13.775 -1.1774 -0.1806  0.1961
17206TIP3   OH273108   6.414   2.921  14.148 -0.1981  0.0965  0.1382
17206TIP3    H173109   6.384   2.951  14.062  2.7591 -0.7492 -1.3032
17206TIP3    H273110   6.337   2.877  14.185 -2.0528  1.8898 -1.3088
17207TIP3   OH273111   4.574   5.138   1.138  0.6578 -0.6195  0.3956
17207TIP3    H173112   4.557   5.213   1.080 -0.2631 -1.3683 -0.3351
17207TIP3    H273113   4.664   5.152   1.169  1.1172 -0.0969 -1.0714
17208TIP3   OH273114   0.512   2.539   2.944 -0.0549 -0.5088  0.5219
17208TIP3    H173115   0.470   2.569   3.025 -1.2552 -2.1442  0.5584
17208TIP3    H273116   0.448   2.556   2.875  0.4806 -0.2128  0.0888
17209TIP3   OH273117   1.095   5.823   0.850  0.1203  0.5193  0.7344
17209TIP3    H173118   1.009   5.853   0.879 -0.6180 -0.8466  0.0875
17209TIP3    H273119   1.080   5.732   0.825  0.8082  1.3279 -3.2373
17210TIP3   OH273120   0.741   4.680  16.269 -0.4915  0.4171 -0.6934
17210TIP3    H173121   0.694   4.613  16.320  0.8145  0.5688  0.8068
17210TIP3    H273122   0.825   4.638  16.247  1.0580  1.9818  1.6926
17211TIP3   OH273123   5.533   2.782   2.889 -0.1800 -0.6551  0.3378
17211TIP3    H173124   5.625   2.756   2.896  0.5909  1.5214 -0.7717
17211TIP3    H273125   5.496   2.720   2.826  0.8587 -0.7874 -0.1682
17212TIP3   OH273126   0.693   6.505  12.712  0.2716 -0.2580 -0.7556
17212TIP3    H173127   0.662   6.420  12.742 -0.7180  0.3711  0.0871
17212TIP3    H273128   0.728   6.547  12.791  1.8245 -0.3054 -1.3761
17213TIP3   OH273129   3.476   4.264   5.561 -0.4450 -0.4675  0.6197
17213TIP3    H173130   3.472   4.359   5.557  3.2867 -0.1684  0.6052
17213TIP3    H273131   3.465   4.243   5.654 -0.8913 -0.0437  0.6707
17214TIP3   OH273132   4.405   4.210   1.689  0.3450 -0.7930  0.1466
17214TIP3    H173133   4.331   4.247   1.641  1.5365  0.2639 -0.9594
17214TIP3    H273134   4.453   4.161   1.623  1.1827 -0.6185  0.6184
17215TIP3   OH273135   2.291   4.835   4.802  0.6126 -0.0014  1.0154
17215TIP3    H173136   2.254   4.770   4.861  1.4032 -1.2262  0.2312
17215TIP3    H273137   2.374   4.796   4.773 -0.0405  0.1850 -1.3997
17216TIP3   OH273138   1.225   2.385   4.318 -0.1783 -0.2855 -0.3993
17216TIP3    H173139   1.205   2.362   4.227 -0.4245 -0.6855 -0.2450
17216TIP3    H273140   1.194   2.475   4.327 -0.8249 -0.4970 -0.5024
17217TIP3   OH273141   6.731   4.838  14.904 -0.7429  0.3374 -0.2089
17217TIP3    H173142   6.686   4.913  14.944  1.1185  0.5879  1.5616
17217TIP3    H273143   6.778   4.876  14.830 -0.9452  0.6521 -0.1790
17218TIP3   OH273144   6.034   1.121   5.769  0.4981 -0.0705 -0.3478
17218TIP3    H173145   5.983   1.040   5.776 -1.0102  0.7118 -1.5826
17218TIP3    H273146   6.072   1.133   5.856 -1.0500 -0.9724  0.5025
17219TIP3   OH273147   4.180   6.538   0.340 -0.4325  0.2038  0.3426
17219TIP3    H173148   4.214   6.449   0.346  0.7862  0.6144 -0.1613
17219TIP3    H273149   4.119   6.546   0.414  0.5409 -0.5762  1.2613
17220TIP3   OH273150   5.077   1.719  10.738  0.1596 -0.2946  0.3977
17220TIP3    H173151   5.121   1.651  10.789 -1.2190 -0.5662  1.2541
17220TIP3    H273152   4.993   1.681  10.713 -0.0959  0.6279 -0.2045
17221TIP3   OH273153   4.079   2.426  17.082  0.0846 -0.2234  0.7059
17221TIP3    H173154   4.077   2.333  17.058  0.8035 -0.2904  0.8731
17221TIP3    H273155   4.152   2.462  17.032  0.5656 -0.0107  1.5422
17222TIP3   OH273156   5.993   5.343   5.811  0.1052  0.1130 -0.0564
17222TIP3    H173157   6.018   5.324   5.901 -2.0353  3.1323  1.3505
17222TIP3    H273158   5.897   5.346   5.813 -0.0304 -0.0371 -2.5577
17223TIP3   OH273159   1.450   2.337   4.658 -0.1803 -0.0904  0.1636
17223TIP3    H173160   1.398   2.273   4.609  0.8574 -0.2471 -0.7884
17223TIP3    H273161   1.397   2.358   4.734  0.1292 -3.3942  1.4512
17224TIP3   OH273162   2.103   5.216  12.205 -0.1917  0.4553 -0.0937
17224TIP3    H173163   2.195   5.222  12.178 -0.1415  0.5021  0.0926
17224TIP3    H273164   2.062   5.293  12.166 -0.2645  0.1602 -0.6218
17225TIP3   OH273165   4.148   3.418  14.720 -0.2199  0.0935  0.6197
17225TIP3    H173166   4.220   3.405  14.781  0.5030 -2.2693 -0.6173
17225TIP3    H273167   4.081   3.355  14.747 -2.4812  3.0093  2.4642
17226TIP3   OH273168   3.327   6.021   4.948  0.6946  0.4656  0.3583
17226TIP3    H173169   3.338   6.044   5.040  0.9652  0.0503  0.4315
17226TIP3    H273170   3.392   6.075   4.902  1.7026 -0.5172  0.5851
17227TIP3   OH273171   3.425   2.995   0.352  0.0314 -0.6067 -0.0788
17227TIP3    H173172   3.471   2.927   0.401  0.3192 -0.1922  0.2472
17227TIP3    H273173   3.462   3.077   0.386 -0.7751 -0.2717  0.0039
17228TIP3   OH273174   3.001   6.037   1.706 -0.4789  0.4791  0.1696
17228TIP3    H173175   2.929   6.003   1.760 -1.3398 -0.4746 -1.4922
17228TIP3    H273176   2.967   6.033   1.617  1.5285  0.3510 -0.6270
17229TIP3   OH273177   0.746   0.144  12.909 -0.0092  0.4677  0.9529
17229TIP3    H173178   0.743   0.087  12.832 -1.8094  0.6164  0.8563
17229TIP3    H273179   0.656   0.176  12.918 -0.0518 -0.1032  3.5034
17230TIP3   OH273180   2.554   5.230   4.698 -0.0847  0.2547 -0.0308
17230TIP3    H173181   2.531   5.216   4.606  0.1201 -0.2778 -0.0026
17230TIP3    H273182   2.617   5.302   4.697  0.1845  0.0107 -0.3348
17231TIP3   OH273183   4.301   0.782  11.365 -0.7178 -0.2569  0.5403
17231TIP3    H173184   4.224   0.779  11.308 -0.1631  0.6911 -0.3018
17231TIP3    H273185   4.374   0.758  11.307 -0.4522 -1.9286  1.5071
17232TIP3   OH273186   2.622   4.356   0.027  0.3651 -0.3418  0.3943
17232TIP3    H173187   2.568   4.367   0.105  1.5717  0.7015  1.1247
17232TIP3    H273188   2.649   4.445   0.004 -0.6840 -0.5271 -1.7769
17233TIP3   OH273189   2.738   1.610  14.021  0.0097 -0.0392  0.3412
17233TIP3    H173190   2.710   1.686  13.971 -3.0580  0.5312  2.6126
17233TIP3    H273191   2.748   1.540  13.956 -0.2939  1.4679 -1.3974
17234TIP3   OH273192   5.199   6.476   6.436 -0.2963 -0.6971 -0.5726
17234TIP3    H173193   5.121   6.528   6.421  0.7948  2.3672  2.9527
17234TIP3    H273194   5.193   6.449   6.527  3.0600  0.4029  0.1110
17235TIP3   OH273195   0.449   0.642  14.421  0.3716  0.6855 -0.1552
17235TIP3    H173196   0.507   0.592  14.478 -2.1760 -0.1764  1.9200
17235TIP3    H273197   0.462   0.604  14.334  0.6949 -1.6174  0.8063
17236TIP3   OH273198   5.802   1.590  14.893  0.4035 -0.2497  0.0638
17236TIP3    H173199   5.802   1.500  14.925 -0.4663  0.6568  2.9587
17236TIP3    H273200   5.894   1.612  14.881  0.5998 -1.7123 -1.4589
17237TIP3   OH273201   4.865   4.850   1.117  0.1197  0.3220 -0.1939
17237TIP3    H173202   4.946   4.852   1.167  1.1664 -2.8219 -1.5260
17237TIP3    H273203   4.797   4.835   1.182  0.7828  1.3196  0.7676
17238TIP3   OH273204   6.452   2.464   2.339 -0.0401  0.6661 -0.0456
17238TIP3    H173205   6.516   2.501   2.399 -0.2984  0.4208  0.3849
17238TIP3    H273206   6.371   2.460   2.389  0.0440 -0.7407  0.0274
17239TIP3   OH273207   6.379   1.677  13.219  0.1416 -0.2247  0.4116
17239TIP3    H173208   6.401   1.694  13.310 -0.5942  0.8659  0.4122
17239TIP3    H273209   6.318   1.748  13.196 -0.5303 -1.0992 -0.6024
17240TIP3   OH273210   1.008   5.218   4.096  0.2511  0.0731  0.5932
17240TIP3    H173211   0.991   5.244   4.186  1.5358 -2.1574  1.5702
17240TIP3    H273212   0.961   5.282   4.043  1.4343  2.9096  2.7538
17241TIP3   OH273213   5.800   1.940   1.581 -0.4491  0.5116 -0.0470
17241TIP3    H173214   5.876   1.949   1.639  1.1070 -2.2050 -1.4743
17241TIP3    H273215   5.774   2.030   1.563  2.9346  1.6634 -0.0306
17242TIP3   OH273216   2.812   5.278   2.244  0.1237 -0.3545  0.2120
17242TIP3    H173217   2.719   5.292   2.259 -0.2455 -1.9131 -0.3431
17242TIP3    H273218   2.816   5.240   2.156  1.3187  0.0235  0.0880
17243TIP3   OH273219   6.179   0.120  12.962  0.1185  0.5007 -0.1340
17243TIP3    H173220   6.184   0.028  12.936  1.7863  0.0964  1.4260
17243TIP3    H273221   6.244   0.129  13.032 -0.2794  2.7830  0.0220
17244TIP3   OH273222   3.158   3.903   3.912  0.5339 -0.4103  0.3463
17244TIP3    H173223   3.238   3.864   3.877  1.0172 -1.0296  2.0085
17244TIP3    H273224   3.187   3.983   3.956  0.0586 -0.0116 -0.0566
17245TIP3   OH273225   6.490   1.330   0.209 -0.3057 -0.2723  0.1424
17245TIP3    H173226   6.419   1.297   0.263 -0.3211 -0.9388 -0.2702
17245TIP3    H273227   6.451   1.402   0.159 -0.2591  0.4239  1.0792
17246TIP3   OH273228   3.982   2.254  16.432  0.1261  0.2241  0.1162
17246TIP3    H173229   3.955   2.175  16.386 -0.4724  1.7298 -2.3393
17246TIP3    H273230   4.067   2.276  16.395 -0.1153  1.1948  0.1037
17247TIP3   OH273231   0.456   4.477  16.875 -0.4590 -0.2524  0.6335
17247TIP3    H173232   0.439   4.559  16.829  0.3333 -0.4454 -0.0426
17247TIP3    H273233   0.426   4.492  16.964  1.8266  1.6179  1.1788
17248TIP3   OH273234   6.032   4.136   2.958  0.0024  0.0687 -0.4312
17248TIP3    H173235   6.106   4.188   2.927  0.0209 -0.4093 -1.2199
17248TIP3    H273236   6.072   4.054   2.989 -0.0738  0.3179  0.3624
17249TIP3   OH273237   3.814   0.987  16.658 -0.2579 -0.5913  0.1035
17249TIP3    H173238   3.733   1.032  16.631 -0.4895 -2.3205 -2.5572
17249TIP3    H273239   3.783   0.906  16.699  0.1796  0.6526  3.1465
17250TIP3   OH273240   2.842   3.389  15.285  0.4451 -0.3493  0.4245
17250TIP3    H173241   2.909   3.346  15.232  0.7813 -2.0785  2.1639
17250TIP3    H273242   2.887   3.417  15.364 -0.5685 -0.1231  0.9425
17251TIP3   OH273243   5.062   1.676  12.275  0.3485  0.1174 -0.2161
17251TIP3    H173244   5.095   1.672  12.185  0.3694  0.5549 -0.2309
17251TIP3    H273245   5.114   1.745  12.317  0.3632 -0.1092  0.1421
17252TIP3   OH273246   6.261   3.320   4.504  0.9057 -0.1758 -0.5391
17252TIP3    H173247   6.207   3.387   4.463  0.6221 -1.5801 -2.6402
17252TIP3    H273248   6.343   3.321   4.454  1.1711 -0.9084 -0.1335
17253TIP3   OH273249   6.225   3.112  16.912 -0.1033 -0.5947 -0.2957
17253TIP3    H173250   6.263   3.036  16.956  0.2307 -0.6048 -0.5955
17253TIP3    H273251   6.267   3.112  16.825  0.3202  0.2531 -0.0942
17254TIP3   OH273252   2.562   1.678   1.427  0.7741 -0.4123 -0.3458
17254TIP3    H173253   2.561   1.582   1.432  0.5218 -0.3857  0.2488
17254TIP3    H273254   2.471   1.703   1.435  0.9997 -0.0479  1.6622
17255TIP3   OH273255   0.164   2.494  14.774 -0.7727 -0.5578  0.2992
17255TIP3    H173256   0.110   2.535  14.706  2.7950 -0.1995 -2.5921
17255TIP3    H273257   0.181   2.564  14.836  0.7802  0.9436 -1.7066
17256TIP3   OH273258   1.387   5.331  15.786 -0.4200 -0.0750 -0.1415
17256TIP3    H173259   1.482   5.327  15.793 -0.2925  2.6634  0.9461
17256TIP3    H273260   1.356   5.254  15.833  1.2438 -0.7138 -0.0338
17257TIP3   OH273261   2.781   3.862   6.064  0.3520  0.5052  0.6092
17257TIP3    H173262   2.838   3.911   6.123 -0.4412  0.9528  1.0314
17257TIP3    H273263   2.712   3.827   6.120  1.2563 -1.7074  0.4209
17258TIP3   OH273264   3.908   2.904  13.615 -0.1404 -0.6055  0.5851
17258TIP3    H173265   3.867   2.984  13.647  0.4714  0.2463 -0.6725
17258TIP3    H273266   3.841   2.862  13.561  0.4996  0.6838 -1.3073
17259TIP3   OH273267   3.387   1.226  13.585 -0.0755 -0.6439  0.0250
17259TIP3    H173268   3.384   1.322  13.582 -1.6764 -0.6882 -0.9214
17259TIP3    H273269   3.480   1.205  13.579  0.2090  0.8200 -1.3184
17260TIP3   OH273270   0.522   3.074  17.195 -0.2214  0.1593 -0.4856
17260TIP3    H173271   0.511   3.145  17.258 -0.6036 -0.8337  0.6031
17260TIP3    H273272   0.615   3.074  17.174 -0.5985  2.8337 -2.7903
17261TIP3   OH273273   1.030   6.285  11.026  0.2527  0.0793  0.1508
17261TIP3    H173274   0.991   6.325  10.948 -1.3692  0.3011  1.0277
17261TIP3    H273275   0.990   6.198  11.030 -0.9309  0.6447  1.5743
17262TIP3   OH273276   0.896   0.102  15.586 -0.3831 -0.6084  0.5581
17262TIP3    H173277   0.830   0.111  15.517 -0.4994  0.5966  0.7932
17262TIP3    H273278   0.882   0.015  15.623  0.1104 -1.5505 -1.3560
17263TIP3   OH273279   0.853   4.099   4.719  0.2818  0.1303 -0.4440
17263TIP3    H173280   0.834   4.132   4.807  0.9663  0.8938 -0.5668
17263TIP3    H273281   0.882   4.009   4.733  0.2598  0.2045  0.1038
17264TIP3   OH273282   1.492   4.501  14.436  0.3374  0.3815 -0.6608
17264TIP3    H173283   1.472   4.417  14.396 -0.1727 -2.3377  4.4956
17264TIP3    H273284   1.407   4.541  14.453  0.3231 -0.1160  0.5523
17265TIP3   OH273285   0.488   6.721  10.999  0.0526  0.3455 -0.1835
17265TIP3    H173286   0.509   6.719  10.906  0.5215 -0.0985 -0.0720
17265TIP3    H273287   0.453   6.634  11.018 -0.9188  0.7266 -0.1330
17266TIP3   OH273288   4.530   6.353   2.122 -0.0201 -0.6416  0.3601
17266TIP3    H173289   4.512   6.334   2.215  1.2621  0.9417  0.9893
17266TIP3    H273290   4.548   6.447   2.121  1.0489 -0.8302 -1.3217
17267TIP3   OH273291   6.698   3.492   3.662  0.5656  0.0743 -0.1985
17267TIP3    H173292   6.748   3.468   3.740  1.3711 -2.1610 -1.2997
17267TIP3    H273293   6.759   3.479   3.589 -1.0454 -0.9706 -1.4442
17268TIP3   OH273294   6.005   3.125   1.095  0.0110 -0.1295 -0.0696
17268TIP3    H173295   5.979   3.164   1.179  0.5166 -1.0281  0.5321
17268TIP3    H273296   6.097   3.152   1.084 -0.0509 -0.0238 -0.3301
17269TIP3   OH273297   3.256   3.859   5.185 -0.5356 -0.2977  0.2718
17269TIP3    H173298   3.174   3.817   5.210 -0.0224  0.0095  2.7724
17269TIP3    H273299   3.236   3.953   5.184 -0.3799 -0.2630  0.2742
17270TIP3   OH273300   2.959   1.746   4.104 -0.4567  0.2816  0.0822
17270TIP3    H173301   2.876   1.699   4.095 -0.3931 -0.0588  1.1566
17270TIP3    H273302   3.024   1.677   4.117 -0.5552  0.6417  3.1319
17271TIP3   OH273303   1.179   2.991   5.453  0.1769  0.0774 -0.2364
17271TIP3    H173304   1.132   3.060   5.406  1.2237  1.2725  0.3967
17271TIP3    H273305   1.224   2.942   5.385 -0.6434 -0.0555 -0.7033
17272TIP3   OH273306   2.888   0.977   1.531 -0.0789  0.1536  0.3974
17272TIP3    H173307   2.979   0.946   1.530 -0.6286 -1.5611  0.5195
17272TIP3    H273308   2.869   0.993   1.624 -0.3759 -1.0590  0.5658
17273TIP3   OH273309   3.546   2.570  13.830 -0.2143 -0.2562 -0.1223
17273TIP3    H173310   3.517   2.590  13.919  1.2426  1.4173  0.0306
17273TIP3    H273311   3.582   2.482  13.836 -0.9135 -0.5031  0.7334
17274TIP3   OH273312   2.101   3.778   3.158 -0.4536  0.0921  0.4617
17274TIP3    H173313   2.098   3.702   3.099  0.1071 -0.2670  0.8909
17274TIP3    H273314   2.129   3.742   3.242  0.9161  0.9417  0.3969
17275TIP3   OH273315   4.963   1.048  15.636  0.3385  0.3274 -0.6082
17275TIP3    H173316   4.874   1.083  15.637 -0.0248 -0.5246  1.0689
17275TIP3    H273317   4.960   0.976  15.573  0.5477  1.8649 -2.4764
17276TIP3   OH273318   2.805   5.873   1.856 -0.4381  0.2708  0.1559
17276TIP3    H173319   2.732   5.933   1.871 -0.0495  0.7717  0.0705
17276TIP3    H273320   2.764   5.786   1.852 -0.8990  0.4282  1.1869
17277TIP3   OH273321   5.758   0.212   4.444  0.6445 -0.2616  0.1155
17277TIP3    H173322   5.748   0.157   4.521  2.0169 -1.0048 -0.2005
17277TIP3    H273323   5.671   0.250   4.430 -0.6672 -3.1933 -0.3005
17278TIP3   OH273324   4.960   6.039  16.728 -0.0901  0.0436 -0.3732
17278TIP3    H173325   4.883   6.049  16.784 -0.6350  0.0467 -1.1069
17278TIP3    H273326   5.016   6.114  16.749  0.3093 -0.6218  1.0675
17279TIP3   OH273327   2.003   4.294  16.677 -0.0010  0.0528 -0.1516
17279TIP3    H173328   2.055   4.352  16.732  0.4663 -0.7142  0.2299
17279TIP3    H273329   2.057   4.216  16.667 -1.3241 -1.0279  0.7744
17280TIP3   OH273330   1.313   4.443  15.151 -0.2360  0.2056  0.0170
17280TIP3    H173331   1.328   4.519  15.207  0.9124  1.2703 -1.6390
17280TIP3    H273332   1.398   4.399  15.147  0.0649  0.8349 -1.7759
17281TIP3   OH273333   1.673   1.474  11.747  0.8075 -0.0085  0.4104
17281TIP3    H173334   1.637   1.518  11.824 -0.9552 -2.4715  1.1452
17281TIP3    H273335   1.768   1.481  11.757  0.6105  0.3102  2.4769
17282TIP3   OH273336   2.501   3.248   1.106 -0.6769  0.5875  0.0056
17282TIP3    H173337   2.479   3.182   1.041 -0.9097  0.2867  0.3857
17282TIP3    H273338   2.597   3.251   1.106 -0.6884  1.0877 -0.8406
17283TIP3   OH273339   6.269   6.798   5.320 -0.6727  0.3494  0.0541
17283TIP3    H173340   6.203   6.842   5.373 -1.2275  0.1771 -0.4797
17283TIP3    H273341   6.235   6.709   5.308 -0.0861  0.0976  0.2134
17284TIP3   OH273342   2.854   0.051  10.824 -0.3340 -0.8410  0.2982
17284TIP3    H173343   2.941   0.014  10.814 -0.1662 -0.5460  0.6319
17284TIP3    H273344   2.811   0.037  10.739  1.6095  3.1193 -1.5802
17285TIP3   OH273345   5.226   2.771  13.289 -0.5250  0.1880  0.4483
17285TIP3    H173346   5.157   2.829  13.321 -0.7910  0.2049 -0.1380
17285TIP3    H273347   5.195   2.683  13.311 -0.4547  0.2259  0.7054
17286TIP3   OH273348   1.722   4.043  14.822 -0.6500  0.5768  0.2867
17286TIP3    H173349   1.638   4.072  14.857 -0.7030  0.7717  0.0048
17286TIP3    H273350   1.775   4.023  14.899 -0.4484  1.8762  0.5112
17287TIP3   OH273351   4.343   4.236  15.903 -0.5277 -0.2668 -0.1841
17287TIP3    H173352   4.338   4.197  15.816  0.0534 -1.7881  0.4429
17287TIP3    H273353   4.268   4.200  15.950 -2.1748  2.2473 -0.6436
17288TIP3   OH273354   4.077   5.698   2.567 -0.4734 -0.1217 -0.0704
17288TIP3    H173355   4.037   5.709   2.480  0.1388  0.5043 -0.2850
17288TIP3    H273356   4.116   5.610   2.563  1.0392  0.5495 -1.0768
17289TIP3   OH273357   2.801   4.134   0.762  0.1045  0.5510  0.0619
17289TIP3    H173358   2.747   4.062   0.795 -0.3238 -0.0540 -1.8200
17289TIP3    H273359   2.741   4.189   0.712  1.0182  0.3051 -1.3902
17290TIP3   OH273360   2.952   0.878   4.316  0.1290  0.0673  0.2931
17290TIP3    H173361   3.022   0.923   4.364  0.1394 -0.3790  0.7075
17290TIP3    H273362   2.895   0.842   4.385  0.7730 -1.5664  0.0238
17291TIP3   OH273363   6.167   1.937   4.856  0.2546  0.4333 -0.3625
17291TIP3    H173364   6.228   1.955   4.784 -0.8020  0.3215 -1.3124
17291TIP3    H273365   6.180   1.845   4.877  4.2026  1.4669  3.1204
17292TIP3   OH273366   0.029   2.023  12.310  0.0441 -0.0056  0.0348
17292TIP3    H173367  -0.031   2.034  12.237 -0.1450 -1.2484 -0.0160
17292TIP3    H273368   0.098   1.967  12.276 -0.4643 -1.2681  1.0234
17293TIP3   OH273369   1.764   2.943  17.129  0.5272 -0.2095  0.5254
17293TIP3    H173370   1.848   2.897  17.122  0.3694 -0.1716 -3.1978
17293TIP3    H273371   1.703   2.892  17.076 -1.0637  1.3766  0.7292
17294TIP3   OH273372   2.125   4.144  13.374 -0.0028 -0.1052  0.1926
17294TIP3    H173373   2.206   4.194  13.384  0.4064 -0.4876 -1.0626
17294TIP3    H273374   2.134   4.071  13.437  0.0774  0.5126  0.9156
17295TIP3   OH273375   6.028   2.114   0.479  0.3217 -0.1099 -0.1173
17295TIP3    H173376   6.076   2.184   0.523  2.3145 -1.2109 -0.4546
17295TIP3    H273377   6.072   2.104   0.394 -1.2924 -0.3395 -0.9679
17296TIP3   OH273378   0.615   4.007  11.716  0.3833 -0.4106 -0.8909
17296TIP3    H173379   0.626   3.930  11.771  0.1069 -0.1034 -0.3994
17296TIP3    H273380   0.677   4.072  11.750 -2.3175  1.1329  1.5508
17297TIP3   OH273381   1.953   5.298  15.430 -0.0522 -0.3315 -0.3642
17297TIP3    H173382   1.966   5.389  15.457  0.7949 -0.3561 -0.6615
17297TIP3    H273383   1.963   5.247  15.511  3.5652 -0.5044 -0.7832
17298TIP3   OH273384   0.759   1.367  12.447  0.5203  0.3305 -0.3221
17298TIP3    H173385   0.853   1.357  12.462  0.2698 -2.5988 -0.1944
17298TIP3    H273386   0.754   1.422  12.369  2.3007  1.1250  0.0593
17299TIP3   OH273387   0.039   0.226  16.064 -0.1424 -0.4211 -0.1940
17299TIP3    H173388  -0.031   0.185  16.114 -0.3366 -0.9136 -0.8526
17299TIP3    H273389   0.119   0.190  16.102 -0.3085 -1.4062 -0.7315
17300TIP3   OH273390   3.177   6.615  16.610  0.0402  0.1027 -0.1693
17300TIP3    H173391   3.208   6.684  16.552  2.2355 -1.7258 -1.3591
17300TIP3    H273392   3.127   6.556  16.554  1.4236 -1.2176 -0.0736
17301TIP3   OH273393   2.872   0.795  11.520  0.6223  0.6805  0.1288
17301TIP3    H173394   2.934   0.745  11.467 -0.1943 -1.7390  1.3325
17301TIP3    H273395   2.789   0.786  11.474 -0.0203 -1.1523  1.5206
17302TIP3   OH273396   1.029   2.250   2.296  0.0881  0.1980  0.9116
17302TIP3    H173397   1.018   2.343   2.317 -0.5019  0.5497 -0.8163
17302TIP3    H273398   1.115   2.244   2.255  0.8551 -0.3409  2.4902
17303TIP3   OH273399   4.932   0.372   3.407 -0.2257 -0.2050  0.3492
17303TIP3    H173400   4.853   0.419   3.379  0.4768 -0.2426 -1.8886
17303TIP3    H273401   5.001   0.438   3.407  0.6476 -0.9863 -2.2453
17304TIP3   OH273402   5.859   1.350  16.186  0.2801  0.3244  0.1972
17304TIP3    H173403   5.885   1.258  16.183 -1.3290 -0.1235 -1.4317
17304TIP3    H273404   5.939   1.398  16.164  1.1584 -0.6324  1.1574
17305TIP3   OH273405   3.765   3.945   1.604 -0.1886 -0.6060 -0.5115
17305TIP3    H173406   3.806   3.921   1.521 -1.7840  0.7593 -1.7555
17305TIP3    H273407   3.723   4.029   1.587 -1.7478 -0.9584  1.2649
17306TIP3   OH273408   6.065   0.109  16.728  0.2482 -0.0054  0.3421
17306TIP3    H173409   6.034   0.188  16.771  1.2792  0.3882  0.3981
17306TIP3    H273410   6.149   0.090  16.771 -0.1550 -1.3251  0.5731
17307TIP3   OH273411   1.236   6.811  15.742  0.6487 -1.1208 -0.3242
17307TIP3    H173412   1.320   6.856  15.745 -0.4496  1.2189 -1.6423
17307TIP3    H273413   1.214   6.810  15.649 -1.1608 -0.8902  0.0732
17308TIP3   OH273414   5.198   2.124   1.482 -0.3810  0.0500 -0.0580
17308TIP3    H173415   5.128   2.106   1.544 -0.1207 -2.0098 -0.2970
17308TIP3    H273416   5.220   2.216   1.496 -1.8848  0.2435  1.2691
17309TIP3   OH273417   0.109   5.756   1.997 -0.0922  0.0152  0.0868
17309TIP3    H173418   0.139   5.711   1.918 -1.1678  1.7464 -1.3877
17309TIP3    H273419   0.185   5.808   2.024 -0.4416  1.3170 -1.3001
17310TIP3   OH273420   5.690   6.044  14.330  0.0644 -1.2792  0.1361
17310TIP3    H173421   5.662   6.119  14.383 -1.7429 -0.9868 -1.1510
17310TIP3    H273422   5.635   5.972  14.361 -1.7779 -0.8634 -1.9601
17311TIP3   OH273423   5.547   0.737   3.957  0.1934  0.3402  0.8111
17311TIP3    H173424   5.539   0.823   4.000  1.3001  1.1723 -0.5783
17311TIP3    H273425   5.622   0.696   4.001  3.0655  2.2625 -1.8666
17312TIP3   OH273426   1.327   5.994  15.967 -0.1802  0.2626  0.8499
17312TIP3    H173427   1.241   6.031  15.983 -0.5398  0.6668 -1.5855
17312TIP3    H273428   1.371   6.059  15.912  1.7274  0.0887  2.0701
17313TIP3   OH273429   6.296   0.083   2.540  0.2161 -0.1386  0.0573
17313TIP3    H173430   6.336   0.097   2.625  1.7332  0.6322 -0.7410
17313TIP3    H273431   6.286   0.171   2.504  1.0677 -0.5275 -1.1912
17314TIP3   OH273432   2.191   2.755  14.381  0.1911  0.2424 -0.0218
17314TIP3    H173433   2.225   2.799  14.303  0.9952  1.6661  1.0765
17314TIP3    H273434   2.268   2.743  14.437 -0.7067  1.4651  1.5651
17315TIP3   OH273435   5.392   0.586   6.076  0.3259 -0.2588 -0.2761
17315TIP3    H173436   5.472   0.543   6.105  0.2149  0.7150  1.6030
17315TIP3    H273437   5.328   0.565   6.143 -0.4099  0.7685 -0.6260
17316TIP3   OH273438   1.764   4.469   3.412  0.0666  0.0311  0.0308
17316TIP3    H173439   1.848   4.423   3.417 -0.2484 -0.4766  0.6359
17316TIP3    H273440   1.717   4.425   3.341  1.1248  1.6871 -1.8095
17317TIP3   OH273441   5.640   2.000   3.765 -0.3292 -0.4505 -0.3472
17317TIP3    H173442   5.726   2.013   3.805 -0.2909 -0.4394 -0.4324
17317TIP3    H273443   5.623   2.081   3.717  0.1691 -0.9195 -1.3552
17318TIP3   OH273444   0.190   4.655   0.136 -0.1145  0.3727  0.3054
17318TIP3    H173445   0.161   4.664   0.046  1.1032  1.0944 -0.0369
17318TIP3    H273446   0.224   4.741   0.160  1.7623 -0.3949  0.6454
17319TIP3   OH273447   6.681   5.499   2.852  0.4585  0.0743 -0.1781
17319TIP3    H173448   6.627   5.443   2.796  1.9816 -1.1053 -0.5591
17319TIP3    H273449   6.701   5.445   2.928  0.1777  0.9023  0.5009
17320TIP3   OH273450   1.392   6.742  12.797  0.1482 -0.1128  0.0255
17320TIP3    H173451   1.354   6.655  12.786  0.7222 -0.5126  1.0754
17320TIP3    H273452   1.322   6.802  12.770 -0.4343 -0.8808 -0.2095
17321TIP3   OH273453   6.657   4.355   3.297 -0.6682  0.2279  0.5541
17321TIP3    H173454   6.692   4.438   3.328 -0.2989  0.4555 -0.4476
17321TIP3    H273455   6.690   4.290   3.359  2.9460  0.1791 -1.1734
17322TIP3   OH273456   3.034   0.919  12.763  0.1945 -0.2381 -0.2759
17322TIP3    H173457   3.127   0.938  12.767  0.3600 -1.0228 -0.0841
17322TIP3    H273458   3.009   0.940  12.673  0.3699  0.7442 -0.0998
17323TIP3   OH273459   0.103   1.358  14.051 -0.2881 -0.4967 -0.1397
17323TIP3    H173460   0.191   1.329  14.074 -0.1398  0.0071 -0.0517
17323TIP3    H273461   0.100   1.351  13.955 -0.6777 -1.9523 -0.0449
17324TIP3   OH273462   0.121   0.088   4.767  0.1094 -0.4406 -0.0040
17324TIP3    H173463   0.111   0.006   4.719  1.1446 -1.0542  0.8078
17324TIP3    H273464   0.121   0.063   4.859  1.1680  0.3714  0.2396
17325TIP3   OH273465   6.829   6.588   4.897 -0.1032  0.2521 -1.0936
17325TIP3    H173466   6.915   6.569   4.934 -0.4983 -1.2098 -0.8623
17325TIP3    H273467   6.847   6.612   4.806  0.5881  0.5200 -0.8948
17326TIP3   OH273468   5.414   2.826  11.364 -0.1732 -0.0706  0.4700
17326TIP3    H173469   5.397   2.920  11.363  0.9044  0.1316 -0.1773
17326TIP3    H273470   5.341   2.789  11.414 -1.1648  0.9946 -0.1451
17327TIP3   OH273471   1.066   0.187   3.276 -0.0361  0.1560 -0.4004
17327TIP3    H173472   1.097   0.232   3.197 -0.5002 -1.2151 -1.3990
17327TIP3    H273473   0.971   0.182   3.265  0.0903 -2.1574 -0.9711
17328TIP3   OH273474   1.354   3.113   3.188 -0.0158  0.6277 -0.2552
17328TIP3    H173475   1.353   3.067   3.104 -1.3142  1.9416 -1.0001
17328TIP3    H273476   1.265   3.101   3.223  0.6998 -0.5077  1.3043
17329TIP3   OH273477   4.248   6.804  16.246  0.5549  0.4098  0.7536
17329TIP3    H173478   4.287   6.763  16.323  1.6040  1.0889  0.6090
17329TIP3    H273479   4.254   6.738  16.178 -0.1482 -0.1041  1.1689
17330TIP3   OH273480   1.065   0.626   2.103 -0.0108 -0.5775 -0.4705
17330TIP3    H173481   1.001   0.583   2.045 -1.4136  1.4558 -0.5420
17330TIP3    H273482   1.018   0.702   2.137  1.8418  0.0112  0.8938
17331TIP3   OH273483   3.614   6.172  13.807  0.8816  0.3189 -0.4202
17331TIP3    H173484   3.599   6.249  13.752 -0.7026 -1.0658 -2.0808
17331TIP3    H273485   3.701   6.141  13.782  1.2348  1.1590 -0.2506
17332TIP3   OH273486   1.527   0.835  10.386  0.3804  0.2375 -0.1574
17332TIP3    H173487   1.464   0.827  10.315 -0.9749  2.4236  0.6792
17332TIP3    H273488   1.611   0.851  10.343 -0.1883  0.2947 -1.2707
17333TIP3   OH273489   4.186   2.484   6.325 -0.5117 -0.0083 -0.1558
17333TIP3    H173490   4.181   2.476   6.420 -0.1892 -2.2487 -0.2777
17333TIP3    H273491   4.215   2.574   6.310 -0.1397  0.2524  1.8692
17334TIP3   OH273492   2.128   4.819  11.299  0.5061 -0.1371 -0.2678
17334TIP3    H173493   2.154   4.727  11.305  2.8163  0.5664  1.6253
17334TIP3    H273494   2.182   4.854  11.229 -0.2455 -0.1311 -0.8636
17335TIP3   OH273495   5.841   5.891   3.964  0.1818 -0.1504  0.3736
17335TIP3    H173496   5.912   5.849   4.013  0.0591  0.0012  0.6826
17335TIP3    H273497   5.767   5.831   3.973  0.2009 -0.1947  0.2462
17336TIP3   OH273498   1.088   5.981  15.668 -0.1002  0.6217  0.2874
17336TIP3    H173499   1.028   5.995  15.742  0.4961  0.2245  0.8536
17336TIP3    H273500   1.120   5.891  15.679  0.6192  0.8356  0.0106
17337TIP3   OH273501   5.456   4.620  13.458 -0.1595 -0.1729 -0.0135
17337TIP3    H173502   5.532   4.645  13.511  0.5511  0.6141 -1.3483
17337TIP3    H273503   5.405   4.563  13.515  0.0446  1.4248  1.8725
17338TIP3   OH273504   2.154   1.356   5.992  0.0536 -0.3908  0.2178
17338TIP3    H173505   2.099   1.375   6.067  1.8330 -1.0598  1.7682
17338TIP3    H273506   2.131   1.266   5.966 -0.0571 -0.4208  0.4250
17339TIP3   OH273507   3.172   4.482   5.367 -0.2409 -0.5002  0.1694
17339TIP3    H173508   3.170   4.388   5.385 -1.2105 -0.7513 -1.1209
17339TIP3    H273509   3.132   4.522   5.445  1.2972 -1.0182  1.2814
17340TIP3   OH273510   2.798   4.959   5.617  1.0487 -0.0055 -0.0457
17340TIP3    H173511   2.819   5.045   5.654  1.0680  0.3481 -0.8702
17340TIP3    H273512   2.776   4.906   5.693  2.6721  0.2509  0.6453
17341TIP3   OH273513   0.635   3.762  13.711  0.5872 -0.0945 -0.2550
17341TIP3    H173514   0.630   3.839  13.769  0.7872 -1.2028  1.2986
17341TIP3    H273515   0.553   3.764  13.662  0.1249  0.5558  0.5116
17342TIP3   OH273516   2.076   3.096  11.916 -0.2798 -0.0219 -0.3991
17342TIP3    H173517   2.053   3.003  11.920 -0.9457  0.1655  2.0693
17342TIP3    H273518   2.039   3.126  11.833 -2.6195 -1.3679  0.0526
17343TIP3   OH273519   4.105   0.593   4.272  0.0244 -0.1153 -0.3470
17343TIP3    H173520   4.052   0.603   4.193  0.2425 -1.0223 -0.6294
17343TIP3    H273521   4.053   0.631   4.342 -0.3847  0.2572 -0.8483
17344TIP3   OH273522   2.232   1.379  12.743 -0.8596 -0.2451 -0.1010
17344TIP3    H173523   2.233   1.291  12.781  0.0777 -0.2434 -0.0871
17344TIP3    H273524   2.144   1.389  12.708 -0.6389 -1.6842 -1.2009
17345TIP3   OH273525   0.072   3.172  14.315 -0.0019  0.3384 -0.0969
17345TIP3    H173526  -0.016   3.168  14.352 -0.6058 -1.6651 -1.5679
17345TIP3    H273527   0.083   3.263  14.289 -2.4568  0.2952 -1.6343
17346TIP3   OH273528   2.891   4.669   3.223  0.4816 -0.2634 -0.5391
17346TIP3    H173529   2.844   4.616   3.287 -0.8837  2.2576  0.7091
17346TIP3    H273530   2.831   4.676   3.149  1.7994 -2.6371 -1.9706
17347TIP3   OH273531   4.993   5.418  15.103 -0.1044  0.2317 -0.0922
17347TIP3    H173532   5.040   5.338  15.081 -0.5939 -0.3614  0.9364
17347TIP3    H273533   4.908   5.388  15.134 -1.0489  1.2579 -1.5644
17348TIP3   OH273534   1.124   3.103   6.028  0.5513 -0.7894  0.1034
17348TIP3    H173535   1.063   3.141   5.964 -0.4435 -1.1836  0.7963
17348TIP3    H273536   1.113   3.156   6.106  0.1078 -1.6705  0.6574
17349TIP3   OH273537   4.940   5.067  14.853  0.0293  0.0724 -0.2876
17349TIP3    H173538   4.992   4.997  14.892 -0.1747  0.2812  0.3686
17349TIP3    H273539   4.987   5.148  14.875 -1.8650  0.5115  2.5689
17350TIP3   OH273540   4.133   2.183   1.488 -0.0911 -0.0633  0.2708
17350TIP3    H173541   4.195   2.189   1.560 -1.0571  0.0298  1.1177
17350TIP3    H273542   4.188   2.173   1.410  0.9663 -0.7136  1.0622
17351TIP3   OH273543   2.501   1.874   5.373  0.2596  0.1818  0.4639
17351TIP3    H173544   2.495   1.828   5.457  1.9411 -0.3827  0.3337
17351TIP3    H273545   2.587   1.916   5.376 -0.1340  1.0708 -0.5335
17352TIP3   OH273546   5.480   2.838  14.163  0.1177  0.7634 -0.2616
17352TIP3    H173547   5.470   2.894  14.240 -1.0234  0.1749  0.0434
17352TIP3    H273548   5.469   2.749  14.196 -0.8385  0.5288 -1.1478
17353TIP3   OH273549   4.344   1.554  14.292  0.0008  0.2877 -0.3314
17353TIP3    H173550   4.411   1.496  14.327  1.0246  0.6260 -1.6365
17353TIP3    H273551   4.393   1.621  14.244 -1.2709 -0.4894 -2.9322
17354TIP3   OH273552   6.807   0.261   5.504  0.2089  0.0042 -0.0965
17354TIP3    H173553   6.734   0.315   5.473  0.6415  1.6691  1.5850
17354TIP3    H273554   6.877   0.277   5.441  0.6216  2.2418  0.7977
17355TIP3   OH273555   3.545   3.160  10.924 -0.5453  0.5999 -0.6553
17355TIP3    H173556   3.485   3.123  10.989  0.1974  0.5451  0.0133
17355TIP3    H273557   3.630   3.163  10.968  0.5197 -1.5800 -2.3321
17356TIP3   OH273558   5.533   4.872   1.165  0.1640  0.1892 -0.2146
17356TIP3    H173559   5.623   4.845   1.180  0.2001  1.3013  1.8901
17356TIP3    H273560   5.532   4.904   1.074  2.2892  1.5626  0.1832
17357TIP3   OH273561   5.614   2.196  17.202 -0.3072  0.1113  0.4240
17357TIP3    H173562   5.709   2.200  17.194 -0.3917 -0.2883 -1.0240
17357TIP3    H273563   5.581   2.228  17.118 -1.4154 -1.4632  0.2088
17358TIP3   OH273564   0.494   1.371   1.330  1.2176  0.0264 -0.0257
17358TIP3    H173565   0.507   1.282   1.363 -0.0527 -0.0347  0.3597
17358TIP3    H273566   0.442   1.360   1.250 -1.0472  0.5128  1.2878
17359TIP3   OH273567   2.067   2.384  13.832  0.1609 -0.4691 -0.2372
17359TIP3    H173568   2.119   2.359  13.909 -1.8353  0.3735  1.4657
17359TIP3    H273569   2.009   2.310  13.817 -1.3538  0.4667  0.8283
17360TIP3   OH273570   2.259   1.930   2.353 -0.1995  0.6630 -0.1618
17360TIP3    H173571   2.219   1.914   2.267 -2.2567  0.9668  0.6647
17360TIP3    H273572   2.339   1.877   2.352 -0.2112  0.5713 -2.2031
17361TIP3   OH273573   0.769   3.199   0.750 -0.0317  0.1768 -0.1787
17361TIP3    H173574   0.691   3.161   0.710 -0.9606  1.4445  0.3666
17361TIP3    H273575   0.782   3.282   0.705 -0.4076  1.0775  1.3149
17362TIP3   OH273576   6.381   4.333   1.640 -0.2194  0.3514  0.0134
17362TIP3    H173577   6.407   4.255   1.690 -1.2210  0.0253  0.0431
17362TIP3    H273578   6.436   4.403   1.675 -0.2110 -0.0781  0.8819
17363TIP3   OH273579   0.675   3.895   2.088  0.2207  0.7262 -0.0710
17363TIP3    H173580   0.652   3.804   2.107  0.7764  0.8384  1.2768
17363TIP3    H273581   0.741   3.889   2.019  1.5841 -0.0331  1.2341
17364TIP3   OH273582   6.059   4.894  17.004  0.3874  0.1447  0.3266
17364TIP3    H173583   5.966   4.872  17.008  0.1486  0.8567 -0.8597
17364TIP3    H273584   6.090   4.849  16.926  0.1652  2.8324 -1.4572
17365TIP3   OH273585   4.603   5.101   5.461  0.0281  0.2426 -0.5626
17365TIP3    H173586   4.679   5.047   5.482 -0.6887 -0.7260 -0.3847
17365TIP3    H273587   4.552   5.103   5.542 -0.2157  0.7631 -0.7242
17366TIP3   OH273588   2.473   0.094  13.412  0.2404 -0.5951 -0.7494
17366TIP3    H173589   2.533   0.042  13.465 -0.4310 -0.4537  0.1864
17366TIP3    H273590   2.460   0.174  13.462 -2.4201 -1.5116  0.2450
17367TIP3   OH273591   3.304   1.175  12.393 -0.4495 -0.1573  0.0937
17367TIP3    H173592   3.332   1.230  12.319 -1.4618  0.6919  0.3074
17367TIP3    H273593   3.214   1.150  12.370  0.4184 -2.9581 -0.6755
17368TIP3   OH273594   2.046   1.908   4.044 -0.1795 -0.6223  0.1036
17368TIP3    H173595   2.128   1.857   4.042 -1.4271 -2.7699  0.0298
17368TIP3    H273596   2.042   1.941   4.134  0.0540 -1.8047  0.5743
17369TIP3   OH273597   3.250   5.553   1.473 -0.1283  1.0213 -0.4484
17369TIP3    H173598   3.195   5.529   1.548  2.6834 -1.2065  1.0994
17369TIP3    H273599   3.279   5.642   1.491  0.1066  0.6879  0.8567
17370TIP3   OH273600   5.127   2.918   4.986  0.3176 -0.4180 -0.3976
17370TIP3    H173601   5.062   2.851   5.007 -3.1340  2.9189  0.5244
17370TIP3    H273602   5.105   2.946   4.897  1.8995 -0.6088 -0.8795
17371TIP3   OH273603   0.886   1.745   3.133  0.1581  0.0391  0.4053
17371TIP3    H173604   0.808   1.791   3.163  0.3600 -0.9204  2.5621
17371TIP3    H273605   0.867   1.722   3.042 -2.0925 -0.1812  0.8801
17372TIP3   OH273606   2.524   5.207  16.740 -0.1394 -0.3436 -0.8589
17372TIP3    H173607   2.443   5.161  16.763  1.0905 -2.7539 -1.0048
17372TIP3    H273608   2.508   5.241  16.652 -1.3058  0.0632 -0.5111
17373TIP3   OH273609   1.756   5.438  12.022  0.3306  0.3587 -0.4824
17373TIP3    H173610   1.793   5.439  12.111 -1.5236 -1.9534  0.4430
17373TIP3    H273611   1.709   5.521  12.015 -0.5847  0.0458  1.2628
17374TIP3   OH273612   3.588   4.122  13.916 -0.3425 -0.3388 -0.0870
17374TIP3    H173613   3.608   4.056  13.982 -1.0934 -1.1222 -0.6288
17374TIP3    H273614   3.673   4.147  13.880 -0.0560 -1.0325  0.0997
17375TIP3   OH273615   4.362   2.921   1.465 -0.4104  0.4192 -0.4401
17375TIP3    H173616   4.302   2.913   1.392  0.3485  2.2837 -1.3095
17375TIP3    H273617   4.449   2.927   1.425  0.0521  1.1506  0.6262
17376TIP3   OH273618   6.523   2.849   4.316  0.0971  0.2145  0.4169
17376TIP3    H173619   6.596   2.909   4.303 -1.2872  1.9861  0.3468
17376TIP3    H273620   6.483   2.878   4.398 -2.1410  1.1488 -0.9042
17377TIP3   OH273621   5.880   5.872  11.621  0.1657  0.1232  0.4190
17377TIP3    H173622   5.808   5.847  11.562 -0.4003  1.1564  0.6566
17377TIP3    H273623   5.842   5.937  11.680  1.2412  0.5189  0.7050
17378TIP3   OH273624   2.465   1.462  10.602 -0.1503  0.4067  0.2042
17378TIP3    H173625   2.447   1.486  10.511  1.2923  0.8172  0.0059
17378TIP3    H273626   2.381   1.473  10.647 -0.7775  0.6304 -0.9808
17379TIP3   OH273627   4.683   1.082   0.578  0.0654  0.2241  0.3053
17379TIP3    H173628   4.626   1.016   0.539 -1.8025  0.8635  1.7642
17379TIP3    H273629   4.732   1.036   0.646  0.5796 -0.1317 -0.3007
17380TIP3   OH273630   0.818   6.274   2.536 -0.2965 -0.1785 -0.1890
17380TIP3    H173631   0.891   6.272   2.597  0.6368  2.7901 -1.0236
17380TIP3    H273632   0.858   6.282   2.449 -1.5644  0.4087 -0.7567
17381TIP3   OH273633   2.331   4.691   5.488 -0.7151 -0.1411 -0.1095
17381TIP3    H173634   2.426   4.694   5.483 -0.5785 -0.9753  1.3805
17381TIP3    H273635   2.312   4.608   5.532 -2.0606  0.6421  0.8569
17382TIP3   OH273636   6.366   0.608  11.216 -0.3212 -0.5878  0.2271
17382TIP3    H173637   6.394   0.667  11.286  0.5483 -1.5061  0.6792
17382TIP3    H273638   6.386   0.520  11.249  0.8701 -1.0163 -1.4713
17383TIP3   OH273639   3.724   3.174  15.417  0.0581  0.5611 -0.1206
17383TIP3    H173640   3.691   3.228  15.490 -0.1139  1.8882 -1.1408
17383TIP3    H273641   3.651   3.115  15.396 -0.3583  1.0351 -0.0333
17384TIP3   OH273642   1.425   1.983   4.620  0.9247  0.0840  0.1585
17384TIP3    H173643   1.346   2.025   4.586  0.1686 -1.5591 -0.2344
17384TIP3    H273644   1.433   1.902   4.569  2.0552 -0.4753  1.1675
17385TIP3   OH273645   4.117   4.365  16.170  0.0876 -0.2863 -0.5703
17385TIP3    H173646   4.128   4.271  16.186 -0.9567 -0.1250  1.5234
17385TIP3    H273647   4.206   4.399  16.165  0.4830 -1.3711 -1.2804
17386TIP3   OH273648   1.443   5.031  14.620  0.1923 -0.1379 -0.2292
17386TIP3    H173649   1.490   4.948  14.625  1.2734  0.4106 -0.9524
17386TIP3    H273650   1.500   5.088  14.570 -0.8023  0.8731 -0.2548
17387TIP3   OH273651   1.635   1.258  14.177  0.0574 -0.6572 -0.1315
17387TIP3    H173652   1.603   1.178  14.220  1.4315 -0.6019  1.0704
17387TIP3    H273653   1.730   1.252  14.183  0.1774  1.4841  0.7925
17388TIP3   OH273654   6.515   4.147   5.932  0.1056  0.1673  0.0186
17388TIP3    H173655   6.610   4.146   5.941  0.0585 -0.0972  0.5092
17388TIP3    H273656   6.488   4.229   5.973 -0.1891 -1.4355  3.3401
17389TIP3   OH273657   2.896   1.631  14.443  0.6116 -0.2225  0.0432
17389TIP3    H173658   2.920   1.561  14.503  0.8993 -0.5881 -0.4895
17389TIP3    H273659   2.970   1.692  14.446  0.0189  0.4580  1.0937
17390TIP3   OH273660   2.845   2.388   5.768 -0.9628  0.3266 -0.1311
17390TIP3    H173661   2.789   2.446   5.717 -1.2706 -1.2050 -1.6256
17390TIP3    H273662   2.802   2.302   5.764 -0.1201 -0.2042  1.3226
17391TIP3   OH273663   1.034   4.824  13.932  0.4695  0.5025  0.4811
17391TIP3    H173664   0.998   4.736  13.920  1.3081  0.3548 -1.1385
17391TIP3    H273665   1.081   4.819  14.015  3.4386 -1.6526 -1.1522
17392TIP3   OH273666   4.170   2.082  13.528  0.3228 -0.2884 -0.0649
17392TIP3    H173667   4.227   2.155  13.552 -0.4049 -0.2544  1.7382
17392TIP3    H273668   4.192   2.014  13.592 -1.4732 -0.3471  0.5432
17393TIP3   OH273669   1.329   6.283   0.220  0.5455 -0.2021 -0.3418
17393TIP3    H173670   1.405   6.282   0.277 -0.1173  0.0410  0.5666
17393TIP3    H273671   1.256   6.308   0.277 -0.1080  0.2034 -1.3235
17394TIP3   OH273672   0.959   3.194   2.544  0.2769  0.4028 -0.5064
17394TIP3    H173673   0.956   3.265   2.609 -0.5834  0.7404 -0.8947
17394TIP3    H273674   1.028   3.135   2.576 -1.5817 -0.6361  1.9812
17395TIP3   OH273675   3.758   0.136   2.875 -0.3641  0.9746 -0.0121
17395TIP3    H173676   3.831   0.077   2.894 -1.8484 -0.2312  2.5390
17395TIP3    H273677   3.735   0.117   2.784  1.0792 -0.2397 -0.1645
17396TIP3   OH273678   2.521   6.182  12.226 -0.0073  0.1518  0.0987
17396TIP3    H173679   2.459   6.241  12.183 -0.1156 -0.7100 -0.9953
17396TIP3    H273680   2.466   6.111  12.260  0.3605 -0.8405 -1.2583
17397TIP3   OH273681   3.135   1.900  16.071  0.7132  0.0163  0.5248
17397TIP3    H173682   3.172   1.812  16.065  1.9166  0.4388  1.3118
17397TIP3    H273683   3.113   1.923  15.981 -0.3746 -1.3896  0.3996
17398TIP3   OH273684   3.364   1.478   1.329  0.1368 -0.0044  0.5499
17398TIP3    H173685   3.458   1.468   1.315  0.1740  0.3067  0.5672
17398TIP3    H273686   3.324   1.412   1.273  0.1951  2.3638 -2.5733
17399TIP3   OH273687   5.819   4.448  13.218  0.2002  0.6186  0.1084
17399TIP3    H173688   5.842   4.443  13.125 -0.1060 -0.8632  0.0918
17399TIP3    H273689   5.902   4.436  13.264  0.1953  0.2687  0.0279
17400TIP3   OH273690   3.499   2.279   2.849  0.4836 -0.6341 -0.4854
17400TIP3    H173691   3.497   2.329   2.768 -2.4307  1.2693  0.6284
17400TIP3    H273692   3.509   2.188   2.821 -1.5761 -0.1611 -3.0919
17401TIP3   OH273693   4.905   6.534  13.392  0.0066  0.7303  0.1261
17401TIP3    H173694   4.933   6.472  13.324 -1.4663  0.0369  0.1060
17401TIP3    H273695   4.971   6.527  13.460  1.6902  1.6397 -1.3028
17402TIP3   OH273696   0.603   0.325  10.828 -0.4991  0.0305 -0.0699
17402TIP3    H173697   0.682   0.300  10.876 -1.1893  0.7032  1.5025
17402TIP3    H273698   0.576   0.246  10.782  1.3432 -0.0868 -1.0644
17403TIP3   OH273699   2.693   3.970  16.483  0.4816  0.1063  0.3384
17403TIP3    H173700   2.642   3.889  16.492  1.1415 -0.6845 -2.3168
17403TIP3    H273701   2.775   3.951  16.529  0.4757 -0.5947  0.0741
17404TIP3   OH273702   0.114   2.045  14.933  0.0048 -0.3472  0.1547
17404TIP3    H173703   0.141   2.011  15.019  0.4080  0.4939  0.3682
17404TIP3    H273704   0.182   2.013  14.873  1.2289  1.2649  0.5960
17405TIP3   OH273705   2.959   0.809   3.808 -0.0368 -0.1187  0.3063
17405TIP3    H173706   2.877   0.760   3.807  0.9852 -2.2735  3.7325
17405TIP3    H273707   2.941   0.885   3.864 -0.3143  0.8780 -1.0783
17406TIP3   OH273708   6.363   1.924  14.099  0.0367  0.3821 -0.0046
17406TIP3    H173709   6.415   1.865  14.043 -0.3596 -0.0754  0.1061
17406TIP3    H273710   6.351   2.002  14.046 -0.9123 -0.3051 -0.8417
17407TIP3   OH273711   0.826   1.850  11.672 -0.6245 -0.2441  0.7461
17407TIP3    H173712   0.755   1.914  11.677  0.6381  1.2109  1.2293
17407TIP3    H273713   0.899   1.894  11.716  0.6727 -1.5246 -0.0582
17408TIP3   OH273714   6.312   5.887   1.236 -0.1249 -0.6824  0.4603
17408TIP3    H173715   6.291   5.801   1.198  1.6951 -1.1551  0.3845
17408TIP3    H273716   6.272   5.950   1.177 -2.0636 -1.4561  0.8764
17409TIP3   OH273717   1.779   4.084  16.416  0.7459 -0.0964  0.5167
17409TIP3    H173718   1.799   4.177  16.426 -0.7632  0.3036  0.1719
17409TIP3    H273719   1.704   4.070  16.474 -0.3211 -0.5948 -0.9253
17410TIP3   OH273720   1.319   0.157   2.220  0.4504  0.1485 -0.3028
17410TIP3    H173721   1.399   0.107   2.205  0.1546 -0.4304  0.0154
17410TIP3    H273722   1.274   0.157   2.135 -0.1945 -1.2999 -0.0050
17411TIP3   OH273723   2.682   2.904   3.618  0.1874 -0.5698  0.2914
17411TIP3    H173724   2.724   2.915   3.533 -1.1828  0.1071 -0.3371
17411TIP3    H273725   2.642   2.989   3.636 -0.2403 -0.9558  1.2302
17412TIP3   OH273726   6.698   0.601   3.505 -0.2986 -0.0405 -0.0456
17412TIP3    H173727   6.672   0.518   3.545  0.0880 -0.5740 -0.8819
17412TIP3    H273728   6.794   0.599   3.505 -0.2883  0.3803 -0.1272
17413TIP3   OH273729   0.292   4.737  15.025  0.2862  0.7212  0.4876
17413TIP3    H173730   0.342   4.676  15.078 -0.0779  1.0980  1.2745
17413TIP3    H273731   0.213   4.688  15.000 -0.7788  1.3536  2.4527
17414TIP3   OH273732   6.757   1.720   1.175  0.3041 -0.0568 -0.4668
17414TIP3    H173733   6.795   1.787   1.117  0.8688  0.6595  0.6857
17414TIP3    H273734   6.826   1.702   1.239 -0.5857 -0.2003  0.4817
17415TIP3   OH273735   2.146   2.826   5.105  0.0250  0.1391 -0.2495
17415TIP3    H173736   2.052   2.832   5.088  0.0481  2.3288  0.0487
17415TIP3    H273737   2.152   2.784   5.190 -0.6003 -1.1607 -0.8234
17416TIP3   OH273738   3.307   4.020  13.879 -0.1149  0.2008 -0.1754
17416TIP3    H173739   3.270   3.948  13.930  0.5337  0.3014  0.4497
17416TIP3    H273740   3.398   4.026  13.908  0.0804  0.7053 -0.8562
17417TIP3   OH273741   1.679   3.509   5.524 -0.4279 -0.5677 -0.1500
17417TIP3    H173742   1.722   3.473   5.447 -0.3545 -0.1451 -0.3086
17417TIP3    H273743   1.644   3.594   5.495  1.0003  0.3491  0.7024
17418TIP3   OH273744   5.198   4.065   4.861 -0.4137 -0.7010  0.2378
17418TIP3    H173745   5.192   4.023   4.946 -1.8748  0.5963  0.8321
17418TIP3    H273746   5.272   4.023   4.818  2.3635  0.6305  3.2747
17419TIP3   OH273747   1.654   5.530   2.888 -0.1891 -0.4229  0.0147
17419TIP3    H173748   1.629   5.621   2.870 -0.2456 -0.7270 -1.6209
17419TIP3    H273749   1.613   5.510   2.972  0.3772  1.2600  0.7314
17420TIP3   OH273750   2.319   0.774   1.366  0.4630  0.6453 -0.1037
17420TIP3    H173751   2.393   0.831   1.343  1.7807 -0.4057  1.3103
17420TIP3    H273752   2.351   0.722   1.439 -1.3888 -0.5274 -0.0665
17421TIP3   OH273753   4.121   4.684  17.052  0.5904 -0.5585 -0.4327
17421TIP3    H173754   4.201   4.731  17.031  0.4976 -1.2741 -2.5779
17421TIP3    H273755   4.142   4.636  17.132  2.3451 -0.8507 -1.0369
17422TIP3   OH273756   4.864   6.606   3.639 -0.3833  0.7374 -0.4772
17422TIP3    H173757   4.946   6.630   3.596  0.2260  1.5487  1.0748
17422TIP3    H273758   4.803   6.675   3.612 -0.2297  0.7947 -0.6855
17423TIP3   OH273759   3.132   5.264   1.138  0.3569 -0.1655  0.8754
17423TIP3    H173760   3.213   5.298   1.176 -0.2422  1.0203  1.1305
17423TIP3    H273761   3.082   5.232   1.214  0.1648  0.0152  0.8252
17424TIP3   OH273762   3.068   1.099   2.133  0.5607  0.0616 -0.0809
17424TIP3    H173763   3.019   1.135   2.059 -0.7500 -4.2278 -1.6457
17424TIP3    H273764   3.149   1.066   2.094  1.0124 -0.0409  0.9228
17425TIP3   OH273765   5.630   0.452  12.162  0.0768 -0.3005 -0.0908
17425TIP3    H173766   5.646   0.544  12.186 -0.4142 -0.4791  0.9847
17425TIP3    H273767   5.702   0.404  12.200 -0.2039 -0.4802  0.2155
17426TIP3   OH273768   6.720   1.592  13.505 -0.0017  0.3788  0.5500
17426TIP3    H173769   6.743   1.544  13.425  1.0878  1.1671  0.3797
17426TIP3    H273770   6.651   1.539  13.545 -0.8734  0.1781 -1.1237
17427TIP3   OH273771   4.971   3.125   2.559  0.8509 -0.0088 -0.2596
17427TIP3    H173772   5.029   3.049   2.560 -0.2909 -1.1429 -4.2092
17427TIP3    H273773   4.885   3.090   2.583  0.9367  0.8429  1.4494
17428TIP3   OH273774   5.078   3.564   1.184 -0.4502  0.1197 -0.2019
17428TIP3    H173775   5.091   3.475   1.217 -1.3901  0.2022  0.4240
17428TIP3    H273776   5.080   3.554   1.088 -0.0254 -0.4855 -0.1374
17429TIP3   OH273777   2.727   3.380   6.058  0.7009 -0.1268 -0.4078
17429TIP3    H173778   2.718   3.426   5.974 -1.6395 -0.6313 -0.4901
17429TIP3    H273779   2.773   3.443   6.114 -0.3668  1.4213 -1.1950
17430TIP3   OH273780   1.275   1.818  12.271 -0.3675 -0.1667  0.4784
17430TIP3    H173781   1.323   1.887  12.316  0.0578  0.3950 -0.7641
17430TIP3    H273782   1.302   1.737  12.315  0.1382  0.3375  1.1185
17431TIP3   OH273783   4.004   2.647   5.769 -0.1853  0.3359 -0.2666
17431TIP3    H173784   3.936   2.666   5.705 -1.2848  0.0339  0.7587
17431TIP3    H273785   4.033   2.559   5.748 -0.9521  0.0136 -0.0276
17432TIP3   OH273786   0.388   0.183  11.793  0.0773 -0.1692 -0.1057
17432TIP3    H173787   0.400   0.242  11.867  1.2859 -0.7993  0.2307
17432TIP3    H273788   0.343   0.107  11.830 -2.3200  0.8508 -0.7210
17433TIP3   OH273789   6.661   4.059  12.000 -0.3030  0.1103  0.0313
17433TIP3    H173790   6.636   4.150  11.986  0.5848  0.0541 -2.3781
17433TIP3    H273791   6.578   4.012  12.010 -0.8688  0.8629 -1.0320
17434TIP3   OH273792   3.828   0.966   0.166  0.2439  0.1935  0.1283
17434TIP3    H173793   3.894   1.035   0.169  0.5604 -0.0162 -1.2000
17434TIP3    H273794   3.877   0.886   0.187 -0.2042  0.3798  2.0899
17435TIP3   OH273795   4.218   3.792  14.157 -0.2395  0.4618 -0.5120
17435TIP3    H173796   4.142   3.741  14.130 -0.7817  1.0034 -0.0362
17435TIP3    H273797   4.287   3.766  14.095 -0.2921 -1.3390  0.1230
17436TIP3   OH273798   5.323   3.374   0.230 -0.3736 -0.3254  0.1367
17436TIP3    H173799   5.244   3.337   0.191 -0.1567  0.6193 -1.3004
17436TIP3    H273800   5.379   3.298   0.246 -1.3261 -0.9461  0.6277
17437TIP3   OH273801   1.012   5.963  11.960 -0.3214  0.3968  0.8738
17437TIP3    H173802   1.061   6.038  11.926  0.3461  0.2630  1.5169
17437TIP3    H273803   1.068   5.888  11.943 -0.7225  0.1178  0.7744
17438TIP3   OH273804   5.519   3.894  12.971 -0.6899 -0.0050  0.7861
17438TIP3    H173805   5.540   3.803  12.993 -0.6797  0.0383  0.9515
17438TIP3    H273806   5.524   3.941  13.054 -0.0358  0.2726  0.5973
17439TIP3   OH273807   4.371   4.519   4.539  0.4436 -0.2916  0.0862
17439TIP3    H173808   4.328   4.486   4.460  0.6458  1.4814 -0.8113
17439TIP3    H273809   4.461   4.489   4.532 -0.3604 -3.4477  1.6394
17440TIP3   OH273810   5.285   2.308  12.205  0.4895  0.4597  0.1017
17440TIP3    H173811   5.231   2.386  12.211  2.1365  1.6681 -0.1584
17440TIP3    H273812   5.238   2.251  12.144 -0.8565  1.1242  0.4757
17441TIP3   OH273813   3.918   2.719  13.042 -0.5333 -0.2052 -0.0556
17441TIP3    H173814   4.006   2.713  13.081 -0.8814 -0.3356  0.7230
17441TIP3    H273815   3.863   2.666  13.100 -0.9941 -0.7010 -0.9431
17442TIP3   OH273816   6.675   1.127   3.049  0.0389 -0.1198 -0.1337
17442TIP3    H173817   6.637   1.185   2.983  0.6042  2.3065  1.5344
17442TIP3    H273818   6.600   1.081   3.087 -0.7702  1.3040  0.0775
17443TIP3   OH273819   3.641   3.034   1.034  0.0596 -0.0717  0.6375
17443TIP3    H173820   3.548   3.051   1.017  0.2238 -1.0253 -1.4655
17443TIP3    H273821   3.647   2.938   1.039  0.9514 -0.0195  0.6484
17444TIP3   OH273822   2.743   5.355  16.724  0.4699 -0.9514  0.2572
17444TIP3    H173823   2.665   5.307  16.751 -1.1337  0.8183 -0.8905
17444TIP3    H273824   2.743   5.433  16.779  1.6759 -1.1102  0.5039
17445TIP3   OH273825   4.828   0.699   1.803  0.2958  0.1597 -0.0551
17445TIP3    H173826   4.782   0.622   1.835  1.4635 -0.1958  0.8494
17445TIP3    H273827   4.850   0.748   1.883  1.5725  0.2435 -0.4265
17446TIP3   OH273828   0.198   3.079   6.946 -0.1040 -0.3498  0.3405
17446TIP3    H173829   0.220   2.986   6.937  1.1957  0.0512 -0.9733
17446TIP3    H273830   0.270   3.125   6.904 -1.5290  1.1946 -0.5238
17447TIP3   OH273831   4.426   5.140   3.711  0.1329  0.3841 -0.0228
17447TIP3    H173832   4.441   5.208   3.777  0.4472 -0.0495  0.3646
17447TIP3    H273833   4.461   5.177   3.630  0.5626  0.5806  0.2460
17448TIP3   OH273834   2.372   5.370  12.388  0.1191  0.2837  0.4058
17448TIP3    H173835   2.377   5.330  12.301  0.3540  2.2966 -0.5711
17448TIP3    H273836   2.443   5.330  12.438 -0.0968 -0.9954 -0.2601
17449TIP3   OH273837   1.562   4.640   0.782  0.7264  0.1057  0.4217
17449TIP3    H173838   1.573   4.545   0.779  0.8148  0.1266 -0.0920
17449TIP3    H273839   1.641   4.672   0.826  0.7535 -0.0520  0.4874
17450TIP3   OH273840   3.927   3.759   3.840 -0.7189 -0.1270  0.3697
17450TIP3    H173841   3.922   3.846   3.879 -2.3135  0.2021 -0.4829
17450TIP3    H273842   3.870   3.705   3.894 -1.7538 -0.0191 -0.5889
17451TIP3   OH273843   3.736   0.259  12.786  0.3600 -0.2319  0.2353
17451TIP3    H173844   3.807   0.319  12.762  1.4821  0.0989  3.7213
17451TIP3    H273845   3.773   0.207  12.857 -2.1736 -1.7053  0.5715
17452TIP3   OH273846   1.743   3.696  17.018  0.1841 -0.2771 -0.2589
17452TIP3    H173847   1.709   3.621  16.970 -1.4899  1.2669 -1.6357
17452TIP3    H273848   1.672   3.760  17.015  1.6646  1.4835  0.5635
17453TIP3   OH273849   1.858   2.319   5.540 -0.1967  0.3615 -0.6772
17453TIP3    H173850   1.802   2.246   5.513  1.1967 -0.8910 -0.3150
17453TIP3    H273851   1.947   2.284   5.535  0.3968  1.4012  1.4249
17454TIP3   OH273852   4.875   2.643  13.024  0.0132 -0.1803  0.4653
17454TIP3    H173853   4.966   2.667  13.007 -0.4578  2.0528  0.8500
17454TIP3    H273854   4.836   2.721  13.064 -1.9634 -1.2341  0.7295
17455TIP3   OH273855   3.173   6.390  17.020 -0.2367 -0.2335  0.2146
17455TIP3    H173856   3.102   6.325  17.022 -0.8326  0.3871 -0.1855
17455TIP3    H273857   3.239   6.352  16.962 -1.9519  0.8467 -2.6460
17456TIP3   OH273858   4.761   3.099  15.415  0.0722 -0.1547 -0.3590
17456TIP3    H173859   4.688   3.040  15.432 -0.3307  0.4739  0.1720
17456TIP3    H273860   4.726   3.165  15.355 -0.1311  0.7333  0.6884
17457TIP3   OH273861   1.287   3.792  17.094 -0.1708 -0.4925  0.3457
17457TIP3    H173862   1.208   3.830  17.132 -0.1503  0.6010 -0.6355
17457TIP3    H273863   1.256   3.734  17.025 -0.1360  0.4828 -0.5226
17458TIP3   OH273864   5.732   5.415   6.469 -0.0707  0.6309  0.0177
17458TIP3    H173865   5.637   5.401   6.472  0.2826 -1.9847  2.3641
17458TIP3    H273866   5.752   5.458   6.552  0.9805 -0.1692  0.1889
17459TIP3   OH273867   2.990   6.794   2.007  0.0017 -0.4264 -0.6079
17459TIP3    H173868   3.058   6.860   2.022  0.1822 -0.7961  0.3379
17459TIP3    H273869   3.003   6.732   2.079 -0.9062 -0.8643 -0.8180
17460TIP3   OH273870   4.591   5.468   3.212 -0.0303  0.3533 -0.1938
17460TIP3    H173871   4.673   5.445   3.255 -1.2692  2.8496  4.1735
17460TIP3    H273872   4.541   5.386   3.210  1.5969 -0.6773 -0.6996
17461TIP3   OH273873   3.193   0.297  12.320 -0.1516  0.2411 -0.3321
17461TIP3    H173874   3.284   0.321  12.304 -0.3709  0.4120 -1.4308
17461TIP3    H273875   3.194   0.201  12.324  0.2115  0.2749  0.6421
17462TIP3   OH273876   3.175   2.873  15.952  0.1488 -0.6828 -0.3569
17462TIP3    H173877   3.156   2.946  15.894 -1.2059 -0.4788  0.2829
17462TIP3    H273878   3.181   2.797  15.894 -3.5546 -0.9153 -0.6960
17463TIP3   OH273879   3.126   1.409   3.212  0.3262 -0.5530  0.0980
17463TIP3    H173880   3.099   1.494   3.245  0.4112 -0.0846 -1.0115
17463TIP3    H273881   3.073   1.394   3.134  0.4501 -1.4265  0.1633
17464TIP3   OH273882   1.433   6.402  13.253  0.3537  0.3785 -0.1901
17464TIP3    H173883   1.392   6.481  13.286  1.0705  1.5748 -1.9554
17464TIP3    H273884   1.524   6.427  13.236  0.3121 -0.4362 -1.8988
17465TIP3   OH273885   0.275   6.028  12.313  0.1300  0.2995  0.1055
17465TIP3    H173886   0.312   6.114  12.333  1.6388 -0.8491  2.8352
17465TIP3    H273887   0.281   6.021  12.218 -0.4789  3.3311 -0.2646
17466TIP3   OH273888   2.976   1.639  11.496  0.1455  0.1935  0.3256
17466TIP3    H173889   2.957   1.679  11.581 -0.0705  2.0431 -0.5268
17466TIP3    H273890   2.906   1.671  11.439  0.6055 -0.5425 -0.6782
17467TIP3   OH273891   3.944   1.128  13.140 -0.5097  0.7792  0.5474
17467TIP3    H173892   3.989   1.190  13.082 -0.6324  0.1564 -0.2402
17467TIP3    H273893   3.968   1.156  13.228 -0.5500  1.9370  0.2171
17468TIP3   OH273894   4.983   6.673  14.655  0.0975 -0.5726 -0.8081
17468TIP3    H173895   5.029   6.755  14.675 -1.9752  0.5748 -0.4691
17468TIP3    H273896   4.973   6.630  14.739 -1.0143  0.0793 -0.5827
17469TIP3   OH273897   1.346   0.055   6.019  0.4220  0.1206  0.1134
17469TIP3    H173898   1.332  -0.029   6.061 -1.5336  1.2510  1.9237
17469TIP3    H273899   1.417   0.095   6.069 -0.5485  0.6455  1.1144
17470TIP3   OH273900   1.196   2.122   0.793  0.1241 -0.1050  0.4703
17470TIP3    H173901   1.169   2.109   0.702 -0.9871 -0.6563  0.8622
17470TIP3    H273902   1.145   2.198   0.822 -0.1309 -0.4262  0.8694
17471TIP3   OH273903   6.408   0.689   2.668  0.3928  0.2588  0.1086
17471TIP3    H173904   6.411   0.756   2.737  0.6549 -0.4239  0.7725
17471TIP3    H273905   6.314   0.671   2.657  0.2503  1.4341 -0.7821
17472TIP3   OH273906   6.326   3.102   4.822 -0.2885  0.1091  0.3354
17472TIP3    H173907   6.402   3.140   4.779  1.3243 -1.3964  1.7142
17472TIP3    H273908   6.280   3.054   4.753  1.2874 -0.8277 -0.1008
17473TIP3   OH273909   0.343   4.025   5.798  0.5083  0.3393  0.0592
17473TIP3    H173910   0.316   3.950   5.850 -0.4633  1.2150  0.8672
17473TIP3    H273911   0.281   4.029   5.726  1.7128 -0.7341 -1.0812
17474TIP3   OH273912   2.765   1.538   2.471  0.0627  0.5222 -0.1091
17474TIP3    H173913   2.684   1.548   2.521 -0.8710  2.6058 -1.8916
17474TIP3    H273914   2.833   1.573   2.528 -0.3221 -0.7117  1.1752
17475TIP3   OH273915   3.995   3.658   0.697  0.7550  0.4901  0.1931
17475TIP3    H173916   4.048   3.588   0.736  1.6903  0.3602 -1.2393
17475TIP3    H273917   4.051   3.696   0.630 -1.3652 -0.5439 -2.3652
17476TIP3   OH273918   0.003   5.827  11.997 -0.5305  0.0145  0.3636
17476TIP3    H173919   0.012   5.735  11.970 -0.1900  0.0142  0.4808
17476TIP3    H273920  -0.081   5.829  12.044 -0.3336 -0.3330  0.7432
17477TIP3   OH273921   3.965   6.416  14.258  0.0966 -0.1774 -0.0726
17477TIP3    H173922   3.941   6.328  14.230 -0.7605 -0.1885  0.6564
17477TIP3    H273923   3.882   6.456  14.284  0.7208  0.2104  1.3813
17478TIP3   OH273924   3.007   0.752  10.842  0.9216  0.1330 -0.1326
17478TIP3    H173925   3.061   0.711  10.773 -0.3344 -1.3273 -0.3221
17478TIP3    H273926   2.955   0.679  10.876  1.4769  0.8395  2.3740
17479TIP3   OH273927   3.474   0.240   2.169  0.4528  0.3358 -0.2302
17479TIP3    H173928   3.565   0.266   2.180  1.2640 -2.7765  1.3326
17479TIP3    H273929   3.477   0.147   2.148 -2.3521  0.4105 -1.3634
17480TIP3   OH273930   4.503   5.679   2.589  0.5809 -0.5609  0.3113
17480TIP3    H173931   4.423   5.733   2.590  0.7027 -0.2343  3.4135
17480TIP3    H273932   4.518   5.660   2.497 -3.3016 -0.9903 -0.3969
17481TIP3   OH273933   0.576   5.047   4.190  0.3839 -0.8299  0.3819
17481TIP3    H173934   0.572   4.986   4.117 -0.3954 -1.2473  0.7661
17481TIP3    H273935   0.495   5.034   4.238  0.8770 -0.5625  1.3286
17482TIP3   OH273936   2.332   4.794   1.741 -0.7190  0.1560 -0.2934
17482TIP3    H173937   2.382   4.799   1.659  0.5964 -3.0997  0.1505
17482TIP3    H273938   2.256   4.740   1.719 -1.2946  0.7286  0.2563
17483TIP3   OH273939   1.934   6.724   1.422  0.0726 -0.2428 -0.5727
17483TIP3    H173940   1.880   6.653   1.388  0.1999 -0.2409 -0.7810
17483TIP3    H273941   2.015   6.682   1.450 -0.7096 -0.5297  1.4379
17484TIP3   OH273942   1.915   4.139  14.657  0.3026  0.7115 -0.0690
17484TIP3    H173943   1.854   4.130  14.730 -2.2546  1.6776 -1.9446
17484TIP3    H273944   1.859   4.150  14.580  2.8481 -0.4022 -2.2406
17485TIP3   OH273945   6.594   3.321   1.840 -0.1260 -0.3293 -0.7144
17485TIP3    H173946   6.579   3.355   1.929  0.5792  0.1822 -0.7797
17485TIP3    H273947   6.507   3.316   1.801 -0.2823  1.3900 -0.6820
17486TIP3   OH273948   3.658   2.003   2.711 -0.3105  0.1699  0.5499
17486TIP3    H173949   3.649   2.086   2.665 -0.3953  0.6674  1.4407
17486TIP3    H273950   3.589   1.947   2.675 -0.6161  0.6736  0.3524
17487TIP3   OH273951   0.689   5.767  15.169 -0.1452 -0.1992  0.0063
17487TIP3    H173952   0.754   5.696  15.171  1.2130  0.9761 -0.3215
17487TIP3    H273953   0.734   5.841  15.209 -1.6211  0.4331  0.5659
17488TIP3   OH273954   2.393   1.943   2.968 -0.3336 -0.1377 -0.2134
17488TIP3    H173955   2.416   1.858   3.004  0.5962  0.9855  2.0854
17488TIP3    H273956   2.474   1.975   2.927 -0.0255  0.4922  0.8361
17489TIP3   OH273957   1.818   3.580   3.337  0.0850  0.1970  0.2151
17489TIP3    H173958   1.773   3.512   3.388 -1.2447 -0.3142 -1.5517
17489TIP3    H273959   1.769   3.660   3.355 -0.3427  0.0297 -0.1914
17490TIP3   OH273960   2.630   2.439   1.990  0.2227 -0.1928 -0.0617
17490TIP3    H173961   2.559   2.496   1.962  0.3217 -0.3102 -0.5718
17490TIP3    H273962   2.673   2.486   2.061  0.7453  0.7045 -0.9416
17491TIP3   OH273963   3.989   3.158  15.579 -0.1073  0.0711 -0.6720
17491TIP3    H173964   4.080   3.142  15.553  0.5192  0.8867  0.8710
17491TIP3    H273965   3.951   3.071  15.588  0.4729 -0.2760 -1.4745
17492TIP3   OH273966   3.973   6.703  11.043  0.1861  0.1078 -0.0366
17492TIP3    H173967   3.953   6.638  10.975 -0.7704 -0.2865  0.6150
17492TIP3    H273968   3.993   6.783  10.994  1.7987 -0.7471 -0.8796
17493TIP3   OH273969   4.798   1.537   1.125  0.0325  0.0590  0.0423
17493TIP3    H173970   4.754   1.564   1.206  0.5096  0.3347  0.2128
17493TIP3    H273971   4.728   1.529   1.061 -0.4523 -0.9060  0.6740
17494TIP3   OH273972   6.034   6.714  12.504  1.1193 -0.6359  0.1478
17494TIP3    H173973   5.980   6.635  12.502 -0.9865  0.6906 -1.6960
17494TIP3    H273974   6.010   6.757  12.586  1.3988 -1.3449  0.6057
17495TIP3   OH273975   1.045   4.273  11.309 -0.3894 -0.1388 -0.1979
17495TIP3    H173976   0.971   4.331  11.288 -0.2372  0.1239 -0.0201
17495TIP3    H273977   1.005   4.198  11.353 -0.5679 -0.0780 -0.2572
17496TIP3   OH273978   4.510   2.358   1.552  0.7769  0.1452 -0.1077
17496TIP3    H173979   4.444   2.382   1.618 -0.3349 -0.0172 -1.1268
17496TIP3    H273980   4.494   2.265   1.535 -0.1274  0.5944 -1.8755
17497TIP3   OH273981   3.461   2.780  15.050 -0.3494  0.1709  0.4918
17497TIP3    H173982   3.536   2.731  15.016  0.5647  1.2193  0.9310
17497TIP3    H273983   3.446   2.849  14.986 -0.3229  0.5378  0.8736
17498TIP3   OH273984   0.727   2.517  12.413  0.1438 -0.4050  0.1562
17498TIP3    H173985   0.752   2.564  12.334 -2.7886  1.2040  0.0422
17498TIP3    H273986   0.775   2.561  12.483 -0.8603  1.3593 -0.2158
17499TIP3   OH273987   4.305   3.006   3.324 -0.4766  0.0407  0.2573
17499TIP3    H173988   4.348   3.092   3.332  0.4451 -0.1086 -2.2529
17499TIP3    H273989   4.277   3.002   3.233 -0.4290 -2.3672  0.3026
17500TIP3   OH273990   0.115   0.808  14.787  0.0759  0.6903  0.0562
17500TIP3    H173991   0.157   0.753  14.853 -0.0574  0.1263 -0.3256
17500TIP3    H273992   0.025   0.776  14.782 -0.2941  1.5983  0.5404
17501TIP3   OH273993   3.831   0.096   5.179  0.7316  0.0982  0.0572
17501TIP3    H173994   3.889   0.087   5.104  1.2531  2.2129  0.1369
17501TIP3    H273995   3.885   0.073   5.254  0.1975 -2.0608 -0.1406
17502TIP3   OH273996   5.887   6.573   1.829  0.0786 -0.6832 -0.9055
17502TIP3    H173997   5.866   6.505   1.765 -1.5215  0.5902 -1.8046
17502TIP3    H273998   5.807   6.626   1.835  0.8014  0.3027  0.8133
17503TIP3   OH273999   4.371   4.401   0.490  1.1576 -0.0346  0.3092
17503TIP3    H174000   4.301   4.391   0.425  2.0795  0.9989 -0.8789
17503TIP3    H274001   4.330   4.452   0.561  1.2140  2.3920 -1.2980
17504TIP3   OH274002   4.912   0.721   6.015 -0.2631 -0.0082 -0.1728
17504TIP3    H174003   4.845   0.788   6.028 -2.4358 -1.8282 -1.3026
17504TIP3    H274004   4.895   0.655   6.082 -1.0731 -1.5208 -1.7621
17505TIP3   OH274005   5.709   3.194  11.740  0.1629 -0.0175  0.0416
17505TIP3    H174006   5.626   3.185  11.788 -0.2198  1.3003 -0.3143
17505TIP3    H274007   5.687   3.173  11.650  0.1872  0.3733 -0.0606
17506TIP3   OH274008   5.743   4.985   1.981  0.1093 -0.2006 -0.3670
17506TIP3    H174009   5.789   4.960   2.061 -0.7297  1.8307  0.8303
17506TIP3    H274010   5.809   4.980   1.912  1.5667  0.5586  0.9250
17507TIP3   OH274011   1.755   2.789   0.230 -0.2710 -0.0530 -0.7882
17507TIP3    H174012   1.696   2.714   0.225  0.1732 -0.4494 -0.1864
17507TIP3    H274013   1.718   2.853   0.169 -3.1859  1.0287  1.8515
17508TIP3   OH274014   2.479   2.045   0.651  0.2000  0.0275  0.6130
17508TIP3    H174015   2.530   2.070   0.574  0.6721 -0.8576  0.6316
17508TIP3    H274016   2.436   1.963   0.626  0.1308 -0.1173  1.1917
17509TIP3   OH274017   2.160   5.915   5.386  0.7321  0.2902  0.2483
17509TIP3    H174018   2.213   5.964   5.449 -0.3537  1.4730  0.2835
17509TIP3    H274019   2.135   5.980   5.320 -0.5943 -0.2380  0.1982
17510TIP3   OH274020   5.492   1.785   2.776  0.4471 -0.7075  0.4591
17510TIP3    H174021   5.518   1.794   2.684  3.2177 -1.5673  1.0675
17510TIP3    H274022   5.528   1.863   2.818 -1.2571 -0.0544  0.7963
17511TIP3   OH274023   2.563   1.357  12.227 -0.3365 -0.0705  0.1863
17511TIP3    H174024   2.530   1.429  12.281 -0.2361 -0.4926  0.8167
17511TIP3    H274025   2.572   1.284  12.287 -2.1544 -1.1627 -0.7794
17512TIP3   OH274026   3.447   0.674   2.789  0.2017 -0.6853 -0.0146
17512TIP3    H174027   3.363   0.701   2.753 -0.5307 -0.9327  1.4549
17512TIP3    H274028   3.445   0.578   2.787  0.7369 -0.6956 -0.5743
17513TIP3   OH274029   1.041   5.050  13.179  0.0649  0.5570 -0.2340
17513TIP3    H174030   0.989   5.129  13.161 -2.4188 -1.0179 -0.4712
17513TIP3    H274031   1.014   5.023  13.267  1.9578  0.7065  0.4279
17514TIP3   OH274032   6.193   0.239   4.771  0.0624 -0.2653 -0.0981
17514TIP3    H174033   6.143   0.159   4.753 -1.0809  0.7901 -1.9300
17514TIP3    H274034   6.269   0.233   4.714 -0.8656  0.6477 -1.5056
17515TIP3   OH274035   4.467   3.268   4.825 -0.0830  0.3921  0.2136
17515TIP3    H174036   4.446   3.334   4.759 -0.1234  0.8778  0.7114
17515TIP3    H274037   4.539   3.307   4.876  0.7905 -0.4830 -0.3115
17516TIP3   OH274038   2.617   4.081  12.581 -0.2800  0.3914 -0.2926
17516TIP3    H174039   2.710   4.083  12.602  0.2417  0.0077 -2.2930
17516TIP3    H274040   2.599   4.167  12.542 -0.5973  0.2403 -0.4881
17517TIP3   OH274041   6.735   4.953   5.335  0.0246 -0.1019 -1.4002
17517TIP3    H174042   6.719   4.959   5.241  2.0542 -0.3411 -1.7979
17517TIP3    H274043   6.734   4.859   5.353 -0.1301 -0.0670 -1.2236
17518TIP3   OH274044   4.564   4.731  11.900 -0.4523 -0.4011 -0.0983
17518TIP3    H174045   4.643   4.767  11.857 -0.6023  2.6623  1.8727
17518TIP3    H274046   4.582   4.638  11.908  2.0098 -0.1779 -1.6773
17519TIP3   OH274047   5.137   4.123  12.181 -0.4127  0.0437 -0.1190
17519TIP3    H174048   5.156   4.069  12.258  0.0584 -0.3874 -0.5309
17519TIP3    H274049   5.212   4.182  12.174 -1.2304  1.2289  0.7203
17520TIP3   OH274050   2.107   0.718  17.117  0.5978 -0.2602 -0.2290
17520TIP3    H174051   2.101   0.801  17.164  0.4862 -0.7320  0.6187
17520TIP3    H274052   2.021   0.708  17.076 -0.2229 -1.0154  1.5515
17521TIP3   OH274053   0.882   4.102   4.294  0.8672  0.4671  0.1177
17521TIP3    H174054   0.806   4.153   4.267  1.6155  0.5830 -1.9234
17521TIP3    H274055   0.950   4.167   4.313  1.4232  0.3200 -1.2370
17522TIP3   OH274056   2.898   3.016   2.310  0.2446 -0.3244  0.7726
17522TIP3    H174057   2.855   3.084   2.363 -0.7470 -0.0878 -0.2885
17522TIP3    H274058   2.825   2.970   2.267  0.9791 -1.1122  0.3483
17523TIP3   OH274059   4.227   0.987  10.553  0.3354  0.2569  0.2343
17523TIP3    H174060   4.168   0.912  10.552  2.0570 -1.1611  0.5977
17523TIP3    H274061   4.169   1.063  10.551 -1.4594 -0.9205 -4.1604
17524TIP3   OH274062   6.424   5.697  14.980 -0.3436 -0.1468  0.3827
17524TIP3    H174063   6.432   5.648  15.062  2.9797  0.5572  0.6284
17524TIP3    H274064   6.488   5.657  14.922 -1.5028  0.4075 -1.3378
17525TIP3   OH274065   4.697   5.552  14.216 -0.1735 -0.1933 -0.3958
17525TIP3    H174066   4.784   5.518  14.238 -0.7048 -1.4207 -0.1154
17525TIP3    H274067   4.701   5.566  14.122  0.7697  1.1089 -0.1917
17526TIP3   OH274068   1.278   5.171  13.263 -0.0712 -0.1300 -0.9608
17526TIP3    H174069   1.194   5.129  13.250  0.5602 -1.5214 -0.6882
17526TIP3    H274070   1.333   5.104  13.302  0.3791  1.5739  1.5509
17527TIP3   OH274071   1.009   2.731  13.373 -0.0733  0.0896  0.3011
17527TIP3    H174072   0.981   2.682  13.450  0.8717  0.4683  0.9123
17527TIP3    H274073   0.958   2.812  13.375  1.0876  0.8350  1.4769
17528TIP3   OH274074   4.425   0.779   4.462  0.4979  0.5434 -0.6704
17528TIP3    H174075   4.466   0.697   4.488 -0.5780  0.5001  1.0315
17528TIP3    H274076   4.336   0.774   4.498  1.4508  3.9714  2.8312
17529TIP3   OH274077   5.999   1.826  13.232 -0.1250  0.1483  0.1213
17529TIP3    H174078   6.067   1.865  13.177  1.3228 -0.5000  1.3888
17529TIP3    H274079   6.009   1.868  13.317  0.0248 -1.3701  0.8914
17530TIP3   OH274080   3.197   3.678   2.930  0.3274 -0.3600 -0.0383
17530TIP3    H174081   3.112   3.710   2.902  1.7794  2.5283 -1.6805
17530TIP3    H274082   3.197   3.585   2.907 -1.8523 -0.0933 -1.3370
17531TIP3   OH274083   5.434   6.555   6.308  0.0898  0.2067 -0.0375
17531TIP3    H174084   5.358   6.497   6.309 -0.6148  1.0654 -1.3917
17531TIP3    H274085   5.400   6.640   6.337  0.3875  0.7226 -1.1347
17532TIP3   OH274086   5.387   0.039  15.224 -0.8292  0.0101  0.2631
17532TIP3    H174087   5.454   0.085  15.173 -1.3530  0.3773 -0.1019
17532TIP3    H274088   5.436  -0.024  15.276 -0.0118  1.4259  1.2872
17533TIP3   OH274089   2.147   0.377   5.443  0.1384  0.5342 -1.0311
17533TIP3    H174090   2.187   0.437   5.506  0.7806  0.0784 -0.9959
17533TIP3    H274091   2.087   0.324   5.495  3.3904 -2.4594  0.0597
17534TIP3   OH274092   0.410   5.516   5.726 -0.1616  0.4259 -0.1163
17534TIP3    H174093   0.329   5.513   5.777 -0.2522 -0.4348 -0.2987
17534TIP3    H274094   0.439   5.607   5.733 -0.8838  0.6303  0.3538
17535TIP3   OH274095   6.185   5.871   0.387  0.3028  0.3122  0.5708
17535TIP3    H174096   6.099   5.850   0.424  0.0219  2.9706  1.6389
17535TIP3    H274097   6.247   5.852   0.457  0.2920  0.8350  0.7257
17536TIP3   OH274098   0.572   0.354   5.067  0.0612  0.0780 -0.3574
17536TIP3    H174099   0.499   0.346   5.129  0.1116  0.3376 -0.2640
17536TIP3    H274100   0.614   0.268   5.068  1.7758  0.8540  2.1014
17537TIP3   OH274101   4.007   6.148   2.438  0.6882 -0.6091 -0.0718
17537TIP3    H174102   3.959   6.229   2.455 -0.4806 -1.7911  2.9376
17537TIP3    H274103   3.949   6.096   2.383  0.1345 -0.5571  0.4564
17538TIP3   OH274104   0.939   5.252   0.627  0.5743  0.3438 -0.0064
17538TIP3    H174105   0.893   5.174   0.594  0.7389 -0.0701  0.7130
17538TIP3    H274106   1.027   5.246   0.590  0.7312 -0.0709  0.4229
17539TIP3   OH274107   3.020   0.798  12.187 -0.1971 -0.2421 -0.1576
17539TIP3    H174108   2.926   0.783  12.180 -0.1153 -0.7987 -0.0909
17539TIP3    H274109   3.033   0.885  12.149 -0.6689 -0.3716 -0.6304
17540TIP3   OH274110   4.847   4.254  16.267 -0.4473 -0.2832  0.0447
17540TIP3    H174111   4.788   4.218  16.200  3.0650 -0.0766 -3.5597
17540TIP3    H274112   4.913   4.185  16.279  0.9424  1.1041  0.6113
17541TIP3   OH274113   0.036   1.029   4.260  0.4866 -0.4520  0.1408
17541TIP3    H174114   0.090   1.091   4.213  3.8975 -2.3403  1.2396
17541TIP3    H274115  -0.005   0.976   4.191 -0.7959  1.5612 -0.7315
17542TIP3   OH274116   4.336   6.643   0.838  0.1057 -0.0369 -0.1142
17542TIP3    H174117   4.301   6.699   0.768  0.1388 -0.1291 -0.2048
17542TIP3    H274118   4.266   6.582   0.858 -1.2408  2.0759  2.2870
17543TIP3   OH274119   4.522   2.726   0.829 -0.7377  0.6869  0.0040
17543TIP3    H174120   4.589   2.783   0.867  2.7079 -0.9484 -2.9827
17543TIP3    H274121   4.504   2.763   0.743 -1.1949 -0.6919 -0.5306
17544TIP3   OH274122   3.388   3.022  12.753 -0.4068  0.1481 -0.6032
17544TIP3    H174123   3.426   2.989  12.672 -1.3221  0.1749 -1.0505
17544TIP3    H274124   3.294   3.012  12.742 -0.6529  1.7260 -0.2400
17545TIP3   OH274125   1.711   1.961   3.140  0.4380 -0.0534 -0.3088
17545TIP3    H174126   1.724   1.969   3.234 -2.2544  0.6633  0.1021
17545TIP3    H274127   1.656   1.883   3.131  0.6531 -0.1005 -1.2857
17546TIP3   OH274128   6.274   1.803   0.460 -0.4755  0.1307 -0.2282
17546TIP3    H174129   6.205   1.806   0.526  0.6700  1.1304  0.9828
17546TIP3    H274130   6.233   1.836   0.380 -2.2789 -2.4088 -0.4703
17547TIP3   OH274131   5.573   4.214  17.015 -0.0872 -0.1687 -0.0893
17547TIP3    H174132   5.513   4.278  17.053 -2.0536 -0.8920 -1.7508
17547TIP3    H274133   5.556   4.133  17.064 -2.0858 -0.9054 -1.7952
17548TIP3   OH274134   2.081   3.948  15.934  0.3501 -0.5264 -0.9385
17548TIP3    H174135   2.031   3.879  15.891  1.4619 -1.1528 -1.2835
17548TIP3    H274136   2.019   3.989  15.994 -0.4636 -1.5171 -1.0670
17549TIP3   OH274137   2.961   1.622  15.326  0.5961  0.4392  0.2153
17549TIP3    H174138   3.002   1.622  15.413  2.1806 -0.2442 -0.4925
17549TIP3    H274139   3.033   1.605  15.266 -0.7526 -0.8590 -1.1036
17550TIP3   OH274140   6.753   2.151   4.149 -0.1511  0.2040  0.2024
17550TIP3    H174141   6.737   2.172   4.057 -2.0658  0.4177  0.5421
17550TIP3    H274142   6.763   2.236   4.192  2.5018  0.0905 -0.0238
17551TIP3   OH274143   0.154   5.092   2.219 -0.2771 -0.6237  0.1624
17551TIP3    H174144   0.113   5.149   2.154 -0.7521 -1.2460 -0.0971
17551TIP3    H274145   0.217   5.148   2.264  0.4278 -0.3192 -1.1713
17552TIP3   OH274146   5.878   3.639   5.548  0.2122  0.1664  0.0626
17552TIP3    H174147   5.894   3.568   5.609  1.1502  2.0867  2.1869
17552TIP3    H274148   5.793   3.675   5.574 -0.0647  0.1277 -0.7364
17553TIP3   OH274149   1.421   3.416  13.018 -0.3104  0.4672  0.6554
17553TIP3    H174150   1.327   3.403  13.003 -0.1626  1.0874 -1.1043
17553TIP3    H274151   1.438   3.504  12.984  1.3480 -0.5809 -1.4983
17554TIP3   OH274152   2.887   4.641  12.240 -0.2588  0.4401 -0.2684
17554TIP3    H174153   2.953   4.573  12.227 -0.5050  0.0008  0.7066
17554TIP3    H274154   2.902   4.673  12.329 -0.9892  0.7457 -0.2504
17555TIP3   OH274155   2.483   0.563  15.182  0.2636 -0.3393  0.3187
17555TIP3    H174156   2.450   0.533  15.266 -1.8296  0.1031 -0.2832
17555TIP3    H274157   2.491   0.483  15.129  0.7418 -0.5195  0.6642
17556TIP3   OH274158   3.157   6.390   4.625 -0.3945  0.4618  0.6200
17556TIP3    H174159   3.125   6.477   4.649 -0.5452  0.6577 -0.2294
17556TIP3    H274160   3.148   6.388   4.529  0.6446 -0.0742  0.5248
17557TIP3   OH274161   1.411   0.943   5.117 -0.6265  0.0143 -0.3482
17557TIP3    H174162   1.493   0.968   5.073 -1.4945  0.6049 -1.7213
17557TIP3    H274163   1.359   0.902   5.048 -1.1665 -1.1668  0.7204
17558TIP3   OH274164   2.232   6.421  13.576 -0.5200  1.0095 -0.3747
17558TIP3    H174165   2.214   6.474  13.654 -0.1346  1.2023 -0.4181
17558TIP3    H274166   2.325   6.433  13.559 -0.5280  0.6875 -0.6599
17559TIP3   OH274167   3.982   4.887  16.045 -0.4308 -0.1532 -0.4126
17559TIP3    H174168   3.965   4.800  16.008 -0.4991 -0.5630  0.5585
17559TIP3    H274169   4.031   4.870  16.126 -0.2857  0.7220 -0.3057
17560TIP3   OH274170   0.684   5.153  12.897  0.1759 -0.2366 -0.7910
17560TIP3    H174171   0.749   5.221  12.880  0.3025 -0.3347 -0.6998
17560TIP3    H274172   0.735   5.079  12.931 -0.0579 -0.1063 -0.1564
17561TIP3   OH274173   5.576   3.204   2.304 -0.2226 -0.4690  0.5475
17561TIP3    H174174   5.490   3.244   2.315 -0.1562  0.1602 -0.9746
17561TIP3    H274175   5.636   3.262   2.351 -0.4129  0.0698  0.1409
17562TIP3   OH274176   4.771   1.071  14.074  0.3190  0.0067  0.4502
17562TIP3    H174177   4.804   1.156  14.046  1.8533 -0.9751 -0.9584
17562TIP3    H274178   4.848   1.025  14.107 -0.3591 -1.0316  0.6518
17563TIP3   OH274179   3.455   3.060  14.984  0.1222 -0.2837  0.0179
17563TIP3    H174180   3.475   3.122  15.054 -0.7387 -0.1725  0.1866
17563TIP3    H274181   3.415   3.113  14.915 -0.4840 -0.6120  0.1023
17564TIP3   OH274182   1.228   4.508  13.650  0.3506 -0.1435 -0.0259
17564TIP3    H174183   1.320   4.487  13.635  0.1679 -0.8477 -0.1986
17564TIP3    H274184   1.206   4.460  13.730  1.2315  3.2858  2.5106
17565TIP3   OH274185   0.699   2.101   4.686 -0.1091 -0.4121 -0.0382
17565TIP3    H174186   0.665   2.089   4.598  0.8038 -0.3595 -0.4168
17565TIP3    H274187   0.661   2.184   4.716 -1.8647 -1.3167  0.3506
17566TIP3   OH274188   6.728   4.202  16.627 -0.3925 -0.4615  0.2709
17566TIP3    H174189   6.638   4.186  16.653 -1.3698  0.6832 -2.1984
17566TIP3    H274190   6.763   4.259  16.696 -1.6745 -0.5444  1.0179
17567TIP3   OH274191   6.030   0.134  16.163 -0.2037 -0.3248  0.2355
17567TIP3    H174192   6.047   0.208  16.220 -1.6999  3.0084 -3.1798
17567TIP3    H274193   6.117   0.098  16.144  0.9760  2.4270 -0.1387
17568TIP3   OH274194   3.760   4.512  12.025 -0.5152  0.6932  0.2244
17568TIP3    H174195   3.821   4.458  11.974 -0.8624 -0.6417  1.1694
17568TIP3    H274196   3.675   4.496  11.985 -0.5050  1.2166 -0.0162
17569TIP3   OH274197   5.222   2.577   0.545 -0.1908  0.2237  0.0937
17569TIP3    H174198   5.142   2.552   0.591  0.6750 -1.8477  0.5947
17569TIP3    H274199   5.267   2.635   0.605 -1.0145  0.9330  0.0539
17570TIP3   OH274200   4.990   0.646   0.477 -0.3944  0.2347 -0.1053
17570TIP3    H174201   5.046   0.721   0.495 -1.2202  0.6499  0.8386
17570TIP3    H274202   4.902   0.683   0.469 -0.8766 -0.6676  0.7927
17571TIP3   OH274203   2.020   3.499  13.474  0.4596 -0.4234 -0.1837
17571TIP3    H174204   1.987   3.453  13.552  0.5017 -0.9890 -0.4939
17571TIP3    H274205   2.098   3.545  13.505  1.5416 -2.0977 -0.2712
17572TIP3   OH274206   0.578   0.846  16.489  0.2154 -0.4221  0.4012
17572TIP3    H174207   0.566   0.751  16.486 -0.5485 -0.3482  0.8361
17572TIP3    H274208   0.495   0.881  16.457  0.1047  0.1093  1.2457
17573TIP3   OH274209   4.735   3.665  15.410 -0.2861 -0.0628  0.4876
17573TIP3    H174210   4.677   3.738  15.390 -1.2329 -1.0087 -0.3517
17573TIP3    H274211   4.794   3.699  15.477 -0.3537  1.6310 -0.2557
17574TIP3   OH274212   0.041   4.705  14.613 -0.1694  0.4342 -0.6570
17574TIP3    H174213   0.126   4.691  14.570 -0.5409  0.5711 -1.4621
17574TIP3    H274214   0.040   4.798  14.635 -0.5526  0.6727 -1.6475
17575TIP3   OH274215   4.609   6.460   2.694 -0.2988 -0.0255  0.6768
17575TIP3    H174216   4.635   6.386   2.749  0.1685  0.4591  1.1170
17575TIP3    H274217   4.690   6.508   2.677 -0.3000 -0.5981 -1.1086
17576TIP3   OH274218   3.022   2.231   5.454 -0.5760  0.2779 -0.4331
17576TIP3    H174219   3.101   2.192   5.491 -1.7783 -0.6723  1.2280
17576TIP3    H274220   3.032   2.219   5.359  1.3435  0.3740 -0.2805
17577TIP3   OH274221   4.436   3.951   3.650 -0.1616 -0.0118  0.0947
17577TIP3    H174222   4.365   3.887   3.641 -1.7803  1.6322  0.4982
17577TIP3    H274223   4.512   3.900   3.677 -0.7618 -2.0618 -1.7981
17578TIP3   OH274224   6.448   0.434   4.389 -0.0155  0.2966 -0.4282
17578TIP3    H174225   6.486   0.355   4.428 -3.1357 -2.4318 -2.3712
17578TIP3    H274226   6.512   0.460   4.322 -0.4257 -3.0115 -2.3423
17579TIP3   OH274227   1.729   5.405   2.646 -0.9354 -0.5298  0.2685
17579TIP3    H174228   1.701   5.451   2.725 -2.3501 -1.8999  0.6259
17579TIP3    H274229   1.825   5.403   2.652 -1.0037 -3.4191  3.7054
17580TIP3   OH274230   0.405   2.915  13.520  0.3303  0.2604  0.0287
17580TIP3    H174231   0.367   2.838  13.477  1.9801  0.4141 -1.8592
17580TIP3    H274232   0.464   2.878  13.586  0.8416 -0.1009 -0.6189
17581TIP3   OH274233   0.873   0.577   0.854  0.3680 -0.1911 -0.1632
17581TIP3    H174234   0.933   0.566   0.928 -0.2364 -0.5320  0.2925
17581TIP3    H274235   0.929   0.598   0.780  0.9619  0.4703  0.4606
17582TIP3   OH274236   3.627   6.245   2.420  0.8579 -0.6787  0.0875
17582TIP3    H174237   3.570   6.319   2.401 -1.5947 -2.4949 -0.0234
17582TIP3    H274238   3.669   6.225   2.337  2.2895  1.0954  0.3204
17583TIP3   OH274239   6.733   6.643   1.524 -0.0208 -0.0500 -0.3630
17583TIP3    H174240   6.785   6.724   1.521  0.2791 -0.1367  1.4447
17583TIP3    H274241   6.650   6.666   1.481 -0.1462  1.3867  0.5914
17584TIP3   OH274242   0.450   5.054   3.079 -0.2607 -0.4145 -0.2638
17584TIP3    H174243   0.524   5.065   3.138  0.5892 -1.5557 -1.0803
17584TIP3    H274244   0.486   5.012   3.002 -1.1764  1.6803 -1.9616
17585TIP3   OH274245   1.358   5.152   2.259 -0.2812  0.6581  0.1475
17585TIP3    H174246   1.421   5.174   2.327 -0.0813 -1.8452  0.8794
17585TIP3    H274247   1.410   5.148   2.179  0.0651  0.7923  0.3608
17586TIP3   OH274248   3.655   3.883  14.416 -0.4169 -0.2685 -0.2562
17586TIP3    H174249   3.581   3.828  14.439 -0.7504 -0.3892 -1.5382
17586TIP3    H274250   3.708   3.829  14.358 -0.1517  0.3578 -0.6088
17587TIP3   OH274251   5.311   6.558   3.686 -0.0779  0.1327  0.3251
17587TIP3    H174252   5.383   6.599   3.639 -0.1045  0.0572  0.2197
17587TIP3    H274253   5.234   6.575   3.632 -0.6198  2.5296  1.6865
17588TIP3   OH274254   0.144   3.197  15.395  0.7552  0.2781 -0.3338
17588TIP3    H174255   0.058   3.188  15.435  0.4503  3.7858  0.0395
17588TIP3    H274256   0.199   3.135  15.444 -0.4962  1.4567  2.8299
17589TIP3   OH274257   0.016   3.057   1.126  0.2493 -0.0645  0.0454
17589TIP3    H174258   0.111   3.062   1.127  0.3480 -1.2727  1.9616
17589TIP3    H274259  -0.012   3.114   1.198 -0.2433 -1.9209  1.4140
17590TIP3   OH274260   0.536   0.916   3.716  0.0469  0.8479 -0.2813
17590TIP3    H174261   0.632   0.916   3.723  0.0077  2.4454  0.6922
17590TIP3    H274262   0.512   0.824   3.718  1.5645  0.4149 -0.5385
17591TIP3   OH274263   5.531   5.630  15.234 -0.2155  0.0733 -0.3625
17591TIP3    H174264   5.593   5.558  15.247 -1.5854 -1.0047  0.5366
17591TIP3    H274265   5.458   5.609  15.292 -1.6094  1.0762 -1.6677
17592TIP3   OH274266   1.886   0.190  11.426  0.1136  0.3607  0.2792
17592TIP3    H174267   1.947   0.256  11.393 -1.0135  0.5995 -1.4884
17592TIP3    H274268   1.906   0.182  11.519  1.0670  2.3188  0.2848
17593TIP3   OH274269   3.382   4.804   5.469  0.1501 -0.0463 -0.8087
17593TIP3    H174270   3.298   4.825   5.511 -1.4004 -0.8627 -3.2844
17593TIP3    H274271   3.435   4.883   5.483 -1.4392  0.9744 -0.1557
17594TIP3   OH274272   5.762   2.924   2.647  0.1384  0.7209 -0.5228
17594TIP3    H174273   5.821   2.992   2.679 -0.1598 -0.1462  2.1513
17594TIP3    H274274   5.675   2.962   2.653  0.2432  1.9732 -4.4018
17595TIP3   OH274275   0.690   2.411  16.361 -0.4363 -0.6562 -0.3326
17595TIP3    H174276   0.648   2.497  16.354 -0.8058 -0.9018 -1.3228
17595TIP3    H274277   0.749   2.419  16.436 -0.0608  0.6468 -0.7365
17596TIP3   OH274278   5.677   3.118   6.372  0.1622 -0.1542  0.7935
17596TIP3    H174279   5.725   3.182   6.424 -1.0373  0.2064  1.5035
17596TIP3    H274280   5.732   3.040   6.374  1.3748  0.6576  0.3923
17597TIP3   OH274281   2.446   6.753   2.627  0.1135  0.0025  0.0066
17597TIP3    H174282   2.387   6.734   2.700  0.0984 -1.0531 -0.2582
17597TIP3    H274283   2.393   6.803   2.565  0.3196  1.4915  0.9951
17598TIP3   OH274284   6.176   1.635   2.649 -0.4429 -0.1921 -0.0502
17598TIP3    H174285   6.138   1.615   2.563 -1.6059 -2.8892  0.9772
17598TIP3    H274286   6.100   1.638   2.708  0.5354 -1.1637  1.3092
17599TIP3   OH274287   4.954   3.201  15.809 -0.3342 -0.1267 -0.1531
17599TIP3    H174288   5.041   3.162  15.800 -0.4125 -0.2521 -0.3885
17599TIP3    H274289   4.896   3.141  15.761 -0.5358  0.0081 -0.0801
17600TIP3   OH274290   0.920   0.404  15.416  0.2066  0.6899  0.0461
17600TIP3    H174291   0.881   0.369  15.335  2.1883  1.3832 -1.2744
17600TIP3    H274292   0.866   0.481  15.436 -0.9647 -0.0929  0.0234
17601TIP3   OH274293   3.022   6.552  10.909 -0.1369  0.2463 -0.0058
17601TIP3    H174294   2.934   6.523  10.934  0.4542 -2.4846 -0.7212
17601TIP3    H274295   3.080   6.508  10.972  0.8456  0.1281 -0.9637
17602TIP3   OH274296   3.729   5.878  16.933 -0.1283  0.1762 -0.6138
17602TIP3    H174297   3.738   5.970  16.959  0.7060  0.5089 -1.9431
17602TIP3    H274298   3.819   5.849  16.916 -0.5431 -0.1946 -2.3901
17603TIP3   OH274299   1.882   4.007  16.193  0.1106  0.2485  0.2643
17603TIP3    H174300   1.872   4.026  16.286  1.9918 -0.6809  0.6916
17603TIP3    H274301   1.886   4.094  16.151  0.4139  0.6927  1.1959
17604TIP3   OH274302   5.068   6.743  11.846 -0.1089 -0.2516 -0.6208
17604TIP3    H174303   4.992   6.801  11.844 -0.6341 -0.7278  2.1302
17604TIP3    H274304   5.142   6.801  11.824 -1.0505  0.5491 -1.7929
17605TIP3   OH274305   2.991   1.402  11.892 -0.6899  0.0678  0.1123
17605TIP3    H174306   2.900   1.427  11.881 -0.5758  0.8924  0.8643
17605TIP3    H274307   3.002   1.323  11.840 -2.2323 -0.9446  1.2473
17606TIP3   OH274308   2.346   3.473  12.868  0.0652 -0.4055  0.1712
17606TIP3    H174309   2.263   3.506  12.904 -0.3577  0.7055 -1.6943
17606TIP3    H274310   2.319   3.407  12.805  0.6798 -0.9134  0.4390
17607TIP3   OH274311   3.808   0.207   1.643  0.3426 -0.2728 -0.2343
17607TIP3    H174312   3.863   0.207   1.564  2.3875 -0.5129  1.0887
17607TIP3    H274313   3.747   0.135   1.630  0.1559  0.1379 -1.8759
17608TIP3   OH274314   2.677   3.237  13.581  0.9774 -0.4336 -0.1906
17608TIP3    H174315   2.627   3.260  13.659  0.6270  0.0182 -0.5427
17608TIP3    H274316   2.659   3.144  13.567 -0.4053 -0.0947 -0.7695
17609TIP3   OH274317   0.157   6.017  10.583  0.0940 -0.3469  0.4626
17609TIP3    H174318   0.210   6.044  10.508 -0.2523  1.1674  0.7353
17609TIP3    H274319   0.076   5.984  10.546 -0.5601  1.4816  0.1637
17610TIP3   OH274320   5.927   1.842  15.332  0.4537 -0.5250  0.6332
17610TIP3    H174321   5.918   1.926  15.288 -1.7411 -0.7246  0.5830
17610TIP3    H274322   5.992   1.795  15.280  0.1752  0.3822 -0.5889
17611TIP3   OH274323   3.448   4.329  12.349 -0.2800 -0.2103  0.4134
17611TIP3    H174324   3.528   4.383  12.341 -0.4235 -0.1679 -1.0625
17611TIP3    H274325   3.463   4.276  12.427  1.2405 -0.2556  0.1345
17612TIP3   OH274326   3.942   0.337  14.444  0.2182  0.0766  0.2472
17612TIP3    H174327   3.862   0.358  14.397  0.6576  0.3483 -0.3968
17612TIP3    H274328   4.007   0.322  14.376  1.1146  1.4454  0.7458
17613TIP3   OH274329   3.535   6.841   1.660  0.5649 -0.0979 -0.1585
17613TIP3    H174330   3.535   6.916   1.601 -0.5483 -0.2356 -0.3622
17613TIP3    H274331   3.479   6.868   1.733  2.3008  0.2627  1.1214
17614TIP3   OH274332   3.718   2.063   2.367 -0.3769 -0.3581 -0.1382
17614TIP3    H174333   3.692   2.029   2.281 -0.9260 -0.0634 -0.0948
17614TIP3    H274334   3.708   1.989   2.427 -1.1869 -0.2430 -0.1146
17615TIP3   OH274335   0.895   1.515   5.130 -0.5254  0.5178  0.1458
17615TIP3    H174336   0.863   1.603   5.149 -1.4680  0.0817  0.6474
17615TIP3    H274337   0.922   1.480   5.215  1.3169  0.8563 -0.2523
17616TIP3   OH274338   3.639   1.800  13.412  0.3724  0.0743  0.4339
17616TIP3    H174339   3.550   1.795  13.444  0.5553  0.5058  1.0255
17616TIP3    H274340   3.648   1.890  13.381  0.4482 -0.1089 -0.0893
17617TIP3   OH274341   2.736   0.021  14.861 -0.4787  0.3153  0.6109
17617TIP3    H174342   2.801  -0.037  14.900 -0.6023 -1.2296 -1.3250
17617TIP3    H274343   2.663   0.020  14.924 -1.7823 -4.2217 -0.5416
17618TIP3   OH274344   4.686   2.827   0.567 -0.4325  0.1218 -0.4019
17618TIP3    H174345   4.663   2.750   0.515 -1.1685  1.7597 -2.6782
17618TIP3    H274346   4.742   2.794   0.637  0.9075 -2.1966 -2.4410
17619TIP3   OH274347   3.222   6.352   3.440 -0.3820 -0.2383  0.2674
17619TIP3    H174348   3.228   6.350   3.535  1.6983  0.1539  0.2109
17619TIP3    H274349   3.154   6.289   3.418  0.3155 -1.6557  1.9590
17620TIP3   OH274350   0.227   5.145   5.793  0.1847  0.4110  0.1552
17620TIP3    H174351   0.293   5.152   5.724  0.0595 -0.6371 -0.0888
17620TIP3    H274352   0.274   5.167   5.873  0.4429  1.2042 -0.2092
17621TIP3   OH274353   4.168   3.963  15.035  0.0264  0.5271 -0.0848
17621TIP3    H174354   4.089   3.910  15.048  0.4902  0.3679  2.5287
17621TIP3    H274355   4.226   3.907  14.982 -0.5636 -0.4679  0.3048
17622TIP3   OH274356   5.334   4.326  12.193 -0.3185 -0.6738  0.1825
17622TIP3    H174357   5.422   4.353  12.169 -1.0779  0.9756 -0.9664
17622TIP3    H274358   5.277   4.368  12.128 -1.9597 -1.6380  0.9146
17623TIP3   OH274359   3.616   0.007  10.959 -0.3830 -0.2111 -0.7493
17623TIP3    H174360   3.573  -0.011  10.875  0.1450  1.5744 -1.4608
17623TIP3    H274361   3.687   0.067  10.936  1.5012 -1.8081  0.6230
17624TIP3   OH274362   0.712   3.071   2.492 -0.2601 -0.2617  0.1128
17624TIP3    H174363   0.638   3.119   2.529  1.2602  2.0498  0.3628
17624TIP3    H274364   0.784   3.134   2.493  1.0133 -1.5220 -2.6926
17625TIP3   OH274365   1.326   4.650   1.279  0.3449  0.4565 -0.2609
17625TIP3    H174366   1.399   4.589   1.290  0.8193  1.2897  1.7248
17625TIP3    H274367   1.328   4.675   1.187  2.9316  0.9106 -0.1406
17626TIP3   OH274368   0.189   5.160  13.089 -0.0386  0.1822  0.2016
17626TIP3    H174369   0.264   5.129  13.039 -1.1093  0.4689 -1.6690
17626TIP3    H274370   0.227   5.217  13.156  1.3663  1.3187 -1.4594
17627TIP3   OH274371   4.268   6.435   3.796  0.1937  0.1942 -0.0628
17627TIP3    H174372   4.318   6.453   3.717  2.4154 -1.4979  0.8285
17627TIP3    H274373   4.237   6.345   3.785 -0.9621  0.5320  0.2763
17628TIP3   OH274374   4.208   0.144   3.147  0.4288 -0.1994  0.4542
17628TIP3    H174375   4.298   0.170   3.130  2.1873 -4.3706  1.8168
17628TIP3    H274376   4.186   0.185   3.231  1.0082  0.9203  0.0694
17629TIP3   OH274377   0.412   1.212  12.113 -0.1776 -0.1589  0.1978
17629TIP3    H174378   0.356   1.217  12.036  0.0912 -0.7796 -0.0420
17629TIP3    H274379   0.487   1.267  12.091  0.0298 -0.5577 -0.0980
17630TIP3   OH274380   2.587   1.019   0.741  0.1203  0.1380 -0.0901
17630TIP3    H174381   2.592   1.029   0.646  2.0079 -3.7007 -0.6261
17630TIP3    H274382   2.678   1.031   0.771 -0.4884  1.5261  1.3197
17631TIP3   OH274383   4.792   0.430   3.075  0.1122  0.2109  0.0412
17631TIP3    H174384   4.874   0.410   3.031  0.3310 -0.7338  0.8434
17631TIP3    H274385   4.781   0.359   3.138  0.5938  2.2907  2.6302
17632TIP3   OH274386   5.626   2.815  13.598 -0.1969  0.1439 -0.1827
17632TIP3    H174387   5.633   2.737  13.653  2.8014  0.5980  0.2345
17632TIP3    H274388   5.676   2.882  13.643 -1.8207  2.0620 -1.0634
17633TIP3   OH274389   5.564   2.823  13.330  0.6466 -0.5494  0.2219
17633TIP3    H174390   5.597   2.827  13.420  1.5200  1.7807 -0.1085
17633TIP3    H274391   5.617   2.888  13.283 -1.0936 -0.2918 -1.5144
17634TIP3   OH274392   6.379   6.400   1.686  0.4398  0.3612 -0.4960
17634TIP3    H174393   6.311   6.464   1.663  0.1314 -0.2891 -1.4432
17634TIP3    H274394   6.453   6.453   1.714 -0.0721  1.1158 -0.5338
17635TIP3   OH274395   3.398   0.811   4.471  0.1163  0.5185  0.7272
17635TIP3    H174396   3.488   0.780   4.457 -0.0215  0.9303 -1.3970
17635TIP3    H274397   3.347   0.730   4.481  0.1369  0.0015 -2.3267
17636TIP3   OH274398   1.403   5.960   3.971  0.2461 -0.3026  0.4335
17636TIP3    H174399   1.453   6.034   3.936  0.8840 -0.3629  1.1948
17636TIP3    H274400   1.316   5.996   3.987  0.4742  0.2218  0.5350
17637TIP3   OH274401   1.301   3.280  16.948  0.3084  0.1972  0.2539
17637TIP3    H174402   1.285   3.371  16.924 -2.1898  0.0334  1.0269
17637TIP3    H274403   1.282   3.277  17.042 -1.1428 -1.4017 -0.0604
17638TIP3   OH274404   0.853   6.309   5.276  0.1888 -0.3631 -0.0689
17638TIP3    H174405   0.824   6.392   5.314 -1.5693 -0.6850 -0.6179
17638TIP3    H274406   0.827   6.315   5.184 -0.1474 -1.5961 -0.0703
17639TIP3   OH274407   0.697   6.424  15.808 -0.5236  0.0404 -0.3891
17639TIP3    H174408   0.789   6.441  15.790 -0.0538 -1.8913 -0.0332
17639TIP3    H274409   0.695   6.335  15.844 -2.4533  0.2859  0.2517
17640TIP3   OH274410   2.301   6.320   2.143  0.3350 -0.6157 -0.0985
17640TIP3    H174411   2.325   6.403   2.184 -0.5356 -0.2842 -0.2354
17640TIP3    H274412   2.361   6.256   2.182  0.9139  0.0420  0.1246
17641TIP3   OH274413   1.948   1.373   6.200  0.0053  0.2131  0.2921
17641TIP3    H174414   1.941   1.456   6.247 -2.8102  0.9851 -1.2186
17641TIP3    H274415   1.860   1.336   6.205  0.8267 -1.9599 -0.3734
17642TIP3   OH274416   1.586   3.225  17.058 -0.2368  0.6245  0.2535
17642TIP3    H174417   1.496   3.191  17.062  0.1630 -0.4286  2.5550
17642TIP3    H274418   1.641   3.149  17.082  0.9566  2.0181  2.3009
17643TIP3   OH274419   3.264   6.098  14.990 -0.1526 -0.2680 -0.3194
17643TIP3    H174420   3.273   6.185  14.951  1.2261 -0.3766 -0.2959
17643TIP3    H274421   3.250   6.114  15.083  0.3764 -0.0645 -0.2720
17644TIP3   OH274422   2.149   5.787   1.743 -0.5718 -0.0237  0.1049
17644TIP3    H174423   2.089   5.831   1.803  0.6585  1.9588 -0.0442
17644TIP3    H274424   2.131   5.827   1.658 -0.7408 -1.2112 -0.4338
17645TIP3   OH274425   1.475   6.298  13.518  0.7729 -0.3626  0.1104
17645TIP3    H174426   1.450   6.260  13.434 -0.6003 -1.7519  1.0940
17645TIP3    H274427   1.493   6.390  13.498 -1.1161 -0.2710 -1.4203
17646TIP3   OH274428   6.019   3.249  15.036 -0.1407 -0.0546  0.2863
17646TIP3    H174429   5.968   3.295  15.103 -1.9105 -0.4552 -0.6979
17646TIP3    H274430   6.068   3.318  14.991  0.6766  0.2745  1.6276
17647TIP3   OH274431   3.721   3.639  11.694  0.4161 -0.6302 -0.1887
17647TIP3    H174432   3.678   3.633  11.608 -1.0885 -0.9090  0.5355
17647TIP3    H274433   3.756   3.551  11.709  1.6933 -0.2788 -0.9883
17648TIP3   OH274434   6.682   0.913  12.264 -0.1177 -0.4379 -0.1109
17648TIP3    H174435   6.654   0.874  12.182 -0.4001 -2.0303  0.7065
17648TIP3    H274436   6.775   0.930  12.253 -0.7818  2.7469 -2.0240
17649TIP3   OH274437   2.394   6.374  16.714  0.7461 -0.1748 -0.7358
17649TIP3    H174438   2.432   6.461  16.708  1.1099 -0.4334 -3.7423
17649TIP3    H274439   2.439   6.333  16.788  0.1089  2.3024  1.1665
17650TIP3   OH274440   5.291   5.720   2.063 -0.0104  0.2059  0.4323
17650TIP3    H174441   5.210   5.728   2.112  0.1260  1.3006  0.4997
17650TIP3    H274442   5.263   5.698   1.974 -0.3901  0.5691  0.4567
17651TIP3   OH274443   6.524   1.274  11.359 -0.2897  0.5342  0.3475
17651TIP3    H174444   6.586   1.286  11.288 -0.4523 -0.0180  0.1087
17651TIP3    H274445   6.544   1.187  11.394 -2.2972 -0.6043 -1.1209
17652TIP3   OH274446   5.874   1.225  16.546 -0.1486 -0.4289  0.1607
17652TIP3    H174447   5.841   1.293  16.487 -2.2757 -0.6486  1.0366
17652TIP3    H274448   5.937   1.176  16.493  0.2210  1.1984 -0.9883
17653TIP3   OH274449   6.067   3.464  14.497  0.3827 -0.0869 -0.3252
17653TIP3    H174450   6.101   3.454  14.408 -0.7949 -1.0120 -0.6954
17653TIP3    H274451   6.136   3.510  14.544  0.6410  1.2800 -1.9560
17654TIP3   OH274452   0.997   3.203   3.253 -0.5198  0.1702  0.3837
17654TIP3    H174453   1.013   3.214   3.159  1.2591  1.0889  0.7487
17654TIP3    H274454   1.035   3.117   3.273  0.2398  0.5182  0.4730
17655TIP3   OH274455   4.301   2.364   1.723 -0.0903  0.1484  0.5523
17655TIP3    H174456   4.315   2.369   1.817  1.5684  0.5662  0.3152
17655TIP3    H274457   4.212   2.396   1.710 -0.2580  0.2883  1.9497
17656TIP3   OH274458   5.906   2.943  15.306 -0.4125  0.0180 -0.1127
17656TIP3    H174459   5.937   2.944  15.215  0.5336 -0.3635  0.1961
17656TIP3    H274460   5.846   2.868  15.309  2.0807 -2.1316  0.3315
17657TIP3   OH274461   4.041   0.420  16.975  0.3976 -0.3183  0.2945
17657TIP3    H174462   4.124   0.445  17.016  0.3671  2.4887 -1.0957
17657TIP3    H274463   4.031   0.327  16.994  3.1351 -0.4026  1.7282
17658TIP3   OH274464   1.817   3.239   1.373  0.2939  0.0286 -0.0542
17658TIP3    H174465   1.875   3.200   1.439 -1.2744 -2.1204  0.1770
17658TIP3    H274466   1.846   3.201   1.290 -1.0621 -1.5944  0.1395
17659TIP3   OH274467   2.378   1.977   6.048  0.4584 -0.4740 -0.3088
17659TIP3    H174468   2.426   1.918   5.990  1.0556  0.1470 -0.4601
17659TIP3    H274469   2.421   1.967   6.133 -0.2904 -1.2383 -0.0137
17660TIP3   OH274470   3.284   2.642  16.690  0.4056 -0.6042 -0.4889
17660TIP3    H174471   3.350   2.686  16.636 -0.4747  2.9900  1.0418
17660TIP3    H274472   3.219   2.610  16.628  2.2502 -1.9619 -1.8463
17661TIP3   OH274473   0.130   4.311  12.357 -0.3777 -0.1069  0.4711
17661TIP3    H174474   0.080   4.358  12.290 -0.6445  0.3757  1.0030
17661TIP3    H274475   0.088   4.225  12.361 -1.4131  0.3965  1.1419
17662TIP3   OH274476   2.256   5.150  12.780  0.2664 -0.2082 -0.5982
17662TIP3    H174477   2.184   5.206  12.809  0.6272 -0.4591  0.8406
17662TIP3    H274478   2.263   5.167  12.686  0.8955  2.7514 -0.0930
17663TIP3   OH274479   0.723   1.578  10.680  0.0902  0.4683  0.7625
17663TIP3    H174480   0.773   1.586  10.599 -0.7305 -0.7879  0.0986
17663TIP3    H274481   0.699   1.667  10.703  0.1356  0.8277 -0.5128
17664TIP3   OH274482   6.248   3.257  16.041 -0.3672  0.5361  0.0879
17664TIP3    H174483   6.255   3.333  16.099 -0.6673  0.0756  0.7446
17664TIP3    H274484   6.288   3.186  16.091  0.0535  0.2921 -0.5845
17665TIP3   OH274485   0.656   1.200   0.414  0.2514 -0.3055  0.2063
17665TIP3    H174486   0.726   1.158   0.364  0.9974  1.7534 -0.6151
17665TIP3    H274487   0.597   1.129   0.439  1.9360 -1.9129 -0.2404
17666TIP3   OH274488   1.919   4.086   3.541  0.4719  0.2756  0.3431
17666TIP3    H174489   2.014   4.081   3.527  0.7182 -0.3703  1.9882
17666TIP3    H274490   1.910   4.105   3.634 -1.0327 -0.0732  0.2868
17667TIP3   OH274491   0.276   4.146   6.584  0.5879 -0.4101 -0.3354
17667TIP3    H174492   0.191   4.190   6.579  0.5597 -0.1642  1.6270
17667TIP3    H274493   0.271   4.078   6.517 -0.4818  0.6739 -1.4290
17668TIP3   OH274494   1.708   3.445  12.517 -0.2975  0.3001 -0.2767
17668TIP3    H174495   1.800   3.419  12.520  0.4165  2.6760  1.9773
17668TIP3    H274496   1.689   3.455  12.424  1.8672  0.1815 -0.7898
17669TIP3   OH274497   4.071   6.841   5.741  0.2053 -0.0092  0.6039
17669TIP3    H174498   4.033   6.899   5.674  0.4227 -0.7921 -0.2265
17669TIP3    H274499   4.003   6.834   5.808  0.9749  2.9236  1.8518
17670TIP3   OH274500   4.980   0.432  15.041  0.1119  0.3839  0.0955
17670TIP3    H174501   4.956   0.346  15.007  0.9222 -0.2314  1.0392
17670TIP3    H274502   4.897   0.480  15.047 -0.1630  0.3309 -2.1335
17671TIP3   OH274503   2.909   1.933  11.438 -0.3379  0.1817 -0.1475
17671TIP3    H174504   2.957   1.900  11.513 -1.0869 -0.6326 -0.0148
17671TIP3    H274505   2.958   2.010  11.410  0.3072  0.1171  0.7749
17672TIP3   OH274506   5.156   6.388   2.970 -0.7558  0.2374  0.1642
17672TIP3    H174507   5.158   6.326   2.896 -0.0513  0.4114  0.0340
17672TIP3    H274508   5.212   6.460   2.942  0.8578 -0.4269  1.5065
17673TIP3   OH274509   5.103   3.422   3.182  0.1701  0.5763 -0.0552
17673TIP3    H174510   5.114   3.327   3.190 -0.2417  0.5241 -0.0815
17673TIP3    H274511   5.017   3.432   3.140 -0.2626  0.9770  0.8988
17674TIP3   OH274512   3.166   1.143   6.069  0.4962 -0.3870  0.5580
17674TIP3    H174513   3.214   1.107   5.995  2.1624  2.2617  0.1964
17674TIP3    H274514   3.216   1.116   6.146  2.1905  1.6288  0.2396
17675TIP3   OH274515   3.852   2.180   2.104 -0.6144  0.3608  0.9830
17675TIP3    H174516   3.783   2.114   2.116 -2.9523  2.1165 -1.5648
17675TIP3    H274517   3.917   2.137   2.049 -0.6217 -0.6902  1.7594
17676TIP3   OH274518   2.754   3.281  16.564 -0.2461  0.1222  0.0413
17676TIP3    H174519   2.697   3.279  16.641  0.7708 -0.8322  0.8010
17676TIP3    H274520   2.764   3.374  16.543 -1.6282  0.3233  0.2180
17677TIP3   OH274521   1.222   2.019   2.283  0.2198 -0.6525 -0.1063
17677TIP3    H174522   1.270   2.071   2.348  0.1079 -2.2556  1.3431
17677TIP3    H274523   1.186   1.945   2.334 -1.0495 -1.2211 -1.7536
17678TIP3   OH274524   3.407   4.838   6.171 -0.4328  0.4967 -0.4696
17678TIP3    H174525   3.456   4.890   6.235 -3.1333  0.7491  1.6029
17678TIP3    H274526   3.461   4.840   6.092  2.3755  1.4670  1.2991
17679TIP3   OH274527   3.340   1.142  11.667 -0.5535  0.6432  0.2248
17679TIP3    H174528   3.342   1.085  11.590 -2.0851  0.6703  0.1447
17679TIP3    H274529   3.325   1.230  11.631 -0.7959  0.7244  0.5232
17680TIP3   OH274530   0.412   4.660   5.392 -0.7403 -0.1065  0.2434
17680TIP3    H174531   0.328   4.649   5.437 -1.1812 -0.9002 -0.7261
17680TIP3    H274532   0.478   4.646   5.460 -1.3962 -0.5290  0.8023
17681TIP3   OH274533   6.568   2.958   3.129  0.2557  0.0011  0.1636
17681TIP3    H174534   6.566   2.892   3.059  0.5878 -0.4357  0.5612
17681TIP3    H274535   6.525   3.034   3.091  1.8180  0.3106 -1.0581
17682TIP3   OH274536   0.498   2.124   2.029 -0.2388  0.2360 -0.2139
17682TIP3    H174537   0.403   2.118   2.025 -0.2822  1.0849 -0.7135
17682TIP3    H274538   0.520   2.096   2.118 -0.9379 -0.1193 -0.1481
17683TIP3   OH274539   5.901   6.399   2.346  0.1772  0.2380 -0.6756
17683TIP3    H174540   5.894   6.426   2.255 -1.7891 -1.2519 -1.0236
17683TIP3    H274541   5.811   6.403   2.380  0.9392  1.4453  1.4449
17684TIP3   OH274542   2.824   0.950  15.402  0.1371  0.3758 -0.4892
17684TIP3    H174543   2.834   0.869  15.351  0.4966  0.3156 -0.3303
17684TIP3    H274544   2.893   1.008  15.369 -0.4867  0.8374 -1.0040
17685TIP3   OH274545   0.137   2.050  11.766  0.5339 -0.2010 -0.6432
17685TIP3    H174546   0.176   1.965  11.786 -0.1746 -0.5073 -0.5284
17685TIP3    H274547   0.206   2.098  11.721  1.2158 -0.5321  0.0394
17686TIP3   OH274548   3.546   0.394  15.185  0.1659 -0.3798  0.1655
17686TIP3    H174549   3.634   0.418  15.156  0.3398  1.7018  2.0591
17686TIP3    H274550   3.560   0.349  15.269 -0.5401  0.6562  0.8733
17687TIP3   OH274551   1.513   0.312  11.982  0.2622 -0.5314 -0.5486
17687TIP3    H174552   1.435   0.356  11.949  1.0654  0.8279 -0.7105
17687TIP3    H274553   1.544   0.368  12.054  0.5809 -1.5298  0.1081
17688TIP3   OH274554   5.986   4.141   1.800 -0.2316 -0.2225  0.7759
17688TIP3    H174555   5.906   4.178   1.837  1.2578  1.8953  2.0889
17688TIP3    H274556   5.982   4.162   1.707  0.3720  3.1192  1.4010
17689TIP3   OH274557   5.848   5.856  11.037 -0.1807  0.9279  0.0202
17689TIP3    H174558   5.811   5.944  11.025 -2.5240  0.4679  2.8781
17689TIP3    H274559   5.784   5.798  10.996  1.1062  0.4288 -1.3949
17690TIP3   OH274560   5.017   1.948   1.852 -0.0074  0.1149 -0.3626
17690TIP3    H174561   5.045   2.038   1.833  1.0649 -0.0752  0.2416
17690TIP3    H274562   5.012   1.944   1.947 -2.2459  0.1530 -0.4372
17691TIP3   OH274563   1.226   2.812  12.584 -0.1727  0.3405  0.2281
17691TIP3    H174564   1.309   2.801  12.537  0.2367  1.1831  0.7284
17691TIP3    H274565   1.236   2.760  12.663 -0.2545  0.1646  0.1221
17692TIP3   OH274566   0.227   3.203  15.693  0.1748 -0.6012 -0.2253
17692TIP3    H174567   0.275   3.166  15.767 -0.1016  0.5837  0.5782
17692TIP3    H274568   0.170   3.269  15.732 -0.8003 -0.7310 -1.3754
17693TIP3   OH274569   0.361   5.341   3.612  0.3421 -0.6587  0.0944
17693TIP3    H174570   0.427   5.337   3.542 -1.0960  1.3579 -1.5240
17693TIP3    H274571   0.393   5.409   3.671  0.3855 -0.6566  0.0686
17694TIP3   OH274572   5.647   3.943  13.505  0.5427 -0.5066  0.3693
17694TIP3    H174573   5.572   3.885  13.492  0.5449 -0.3728 -0.2422
17694TIP3    H274574   5.651   3.996  13.426  0.2380  0.6924  1.1286
17695TIP3   OH274575   2.264   3.564  16.904  0.0697  0.4224 -0.5342
17695TIP3    H174576   2.314   3.629  16.954 -1.0678  0.9121 -0.0025
17695TIP3    H274577   2.246   3.495  16.967  0.3600  0.0864 -0.8180
17696TIP3   OH274578   0.782   1.686   2.871  0.4000 -0.0035 -0.1942
17696TIP3    H174579   0.702   1.736   2.855  0.5262  0.5015  0.6936
17696TIP3    H274580   0.766   1.601   2.830  0.2508  0.8050 -1.8999
17697TIP3   OH274581   3.577   3.594  11.444  0.6799  0.3892 -0.0365
17697TIP3    H174582   3.483   3.576  11.436  1.0213 -1.7071  0.1529
17697TIP3    H274583   3.596   3.654  11.372 -0.4055 -0.8842 -1.4411
17698TIP3   OH274584   5.838   5.233  14.070  0.1610 -0.5514 -0.0227
17698TIP3    H174585   5.748   5.207  14.088 -0.0409  0.5188  0.5374
17698TIP3    H274586   5.831   5.321  14.034  0.9658 -0.5900 -0.2886
17699TIP3   OH274587   5.768   0.213   1.831 -0.0985  0.1671 -0.3626
17699TIP3    H174588   5.681   0.174   1.821 -0.3383  0.5804  0.0660
17699TIP3    H274589   5.791   0.196   1.923  0.6702 -0.7447 -0.7075
17700TIP3   OH274590   0.975   5.858   2.856 -0.1860  0.3373  0.1446
17700TIP3    H174591   1.047   5.865   2.793  0.7101  1.4854  1.2538
17700TIP3    H274592   0.901   5.825   2.804  1.0415 -0.6112 -1.0793
17701TIP3   OH274593   2.701   0.188   3.233 -1.1794  0.0316 -0.1835
17701TIP3    H174594   2.678   0.268   3.280  0.0412  0.3466 -0.0823
17701TIP3    H274595   2.779   0.211   3.183  1.2870 -1.9410  2.4324
17702TIP3   OH274596   5.919   1.918   0.197  0.7887  0.0871  0.4716
17702TIP3    H174597   5.881   1.924   0.285 -0.3651 -0.4126  0.0177
17702TIP3    H274598   5.891   1.833   0.164  1.6062  0.0665 -0.2101
17703TIP3   OH274599   1.907   4.354   1.238 -0.1605 -0.0700 -0.2154
17703TIP3    H174600   1.842   4.298   1.282 -0.5445 -0.0939 -0.7954
17703TIP3    H274601   1.854   4.414   1.185  0.2766  0.3159 -0.2151
17704TIP3   OH274602   0.443   3.557   1.877  1.4437 -0.1520 -0.4571
17704TIP3    H174603   0.539   3.560   1.876  1.4736 -1.2311 -1.0409
17704TIP3    H274604   0.421   3.465   1.864  0.3187  0.0788 -0.2865
17705TIP3   OH274605   2.464   4.407  11.394  0.1224 -0.4466 -0.4157
17705TIP3    H174606   2.427   4.464  11.327  0.3883  1.4264  0.9277
17705TIP3    H274607   2.523   4.349  11.347  0.6232  1.0745 -1.7538
17706TIP3   OH274608   1.127   2.550   2.504 -0.3584  0.1051  0.3798
17706TIP3    H174609   1.037   2.523   2.524  0.4975 -2.1172  1.5891
17706TIP3    H274610   1.182   2.486   2.550  1.8756  1.9717  0.5020
17707TIP3   OH274611   4.559   5.787   0.044 -0.3070 -0.2340 -0.2118
17707TIP3    H174612   4.487   5.747   0.092 -1.2485  1.2896 -0.2902
17707TIP3    H274613   4.637   5.765   0.094 -0.9798 -0.8085  0.5982
17708TIP3   OH274614   3.246   3.959  11.929  0.1067 -0.4992  0.4949
17708TIP3    H174615   3.326   3.967  11.876 -0.1249  0.4923  0.2702
17708TIP3    H274616   3.209   4.048  11.930 -0.0994 -0.5743  1.9982
17709TIP3   OH274617   5.600   2.030  12.460 -0.8121 -0.0210 -0.2409
17709TIP3    H174618   5.595   2.124  12.447 -0.2313  0.2006  0.9978
17709TIP3    H274619   5.679   2.017  12.513 -1.1827 -1.1540  0.0699
17710TIP3   OH274620   2.684   6.404  10.595  0.1055  0.0969  0.0072
17710TIP3    H174621   2.646   6.316  10.591  1.8003 -0.6443 -0.7050
17710TIP3    H274622   2.659   6.437  10.682  1.1496 -1.9151  1.1430
17711TIP3   OH274623   6.411   5.424   2.094 -0.3348 -0.7519  0.1481
17711TIP3    H174624   6.471   5.489   2.132  1.2709 -0.4601 -2.5919
17711TIP3    H274625   6.366   5.471   2.024  1.3595 -2.6239 -2.3569
17712TIP3   OH274626   2.671   4.203   1.379  0.3447  0.6394  0.0831
17712TIP3    H174627   2.639   4.209   1.469  0.0020 -1.3766  0.1227
17712TIP3    H274628   2.607   4.149   1.333  0.6756  1.3718 -1.3265
17713TIP3   OH274629   5.234   4.640  16.804  0.4627  0.6867  0.2337
17713TIP3    H174630   5.157   4.585  16.787 -0.2311  1.1936  1.6261
17713TIP3    H274631   5.304   4.598  16.754 -0.0623 -1.4271  1.1350
17714TIP3   OH274632   3.476   0.480  14.520 -0.0013  0.7409  0.3725
17714TIP3    H174633   3.384   0.495  14.540 -0.4483  0.1116 -1.0358
17714TIP3    H274634   3.517   0.465  14.605 -1.5273 -0.6491  0.9192
17715TIP3   OH274635   4.708   4.788   0.739  0.0234  0.1776  0.5001
17715TIP3    H174636   4.665   4.843   0.805 -2.1228  0.4709 -1.0382
17715TIP3    H274637   4.779   4.745   0.787 -0.6083  1.3706  2.6690
17716TIP3   OH274638   4.212   6.689  11.786 -0.0504 -0.1874 -0.4723
17716TIP3    H174639   4.241   6.779  11.783  1.1968 -0.5770 -0.5780
17716TIP3    H274640   4.127   6.693  11.830  0.4540  0.9198  0.4487
17717TIP3   OH274641   4.939   0.567   1.131  0.0912 -0.1036 -0.6526
17717TIP3    H174642   4.988   0.485   1.142  1.2550  0.4994 -1.1323
17717TIP3    H274643   4.997   0.622   1.078 -0.0461  1.5663  0.8396
17718TIP3   OH274644   3.537   4.773  16.231  0.3786  0.0286 -0.0854
17718TIP3    H174645   3.475   4.772  16.158 -1.1593 -2.1532  1.1401
17718TIP3    H274646   3.560   4.681  16.245  0.9086  0.4089  1.9384
17719TIP3   OH274647   4.561   6.801   0.096  0.0828 -0.0218 -0.0583
17719TIP3    H174648   4.596   6.822   0.183  0.0487 -0.8725  0.1687
17719TIP3    H274649   4.629   6.748   0.055 -0.1422 -0.1010 -0.3320
17720TIP3   OH274650   4.882   3.195   2.041  0.3593  0.2856  0.1085
17720TIP3    H174651   4.933   3.116   2.021 -0.2679  0.4848 -2.7574
17720TIP3    H274652   4.793   3.172   2.017 -0.3281  1.0677  1.7717
17721TIP3   OH274653   5.138   6.195   3.381 -0.0191 -0.5929  0.8049
17721TIP3    H174654   5.186   6.225   3.458  3.1421  1.0049 -1.5523
17721TIP3    H274655   5.204   6.148   3.328 -2.2031 -2.1835 -0.6917
17722TIP3   OH274656   0.623   1.731  15.204  0.1551  0.5903 -0.2181
17722TIP3    H174657   0.686   1.719  15.133  0.1191  0.0889 -0.1712
17722TIP3    H274658   0.548   1.677  15.179 -0.7491  2.0520 -0.8333
17723TIP3   OH274659   0.157   5.015  13.551 -0.5924 -0.4530 -0.0511
17723TIP3    H174660   0.230   5.022  13.490  0.9500  0.8711  1.8290
17723TIP3    H274661   0.143   5.104  13.583 -2.4493 -0.8290  0.3357
17724TIP3   OH274662   1.455   5.769   3.295 -0.2332  0.1264 -0.3884
17724TIP3    H174663   1.364   5.758   3.267 -0.1082  0.5955 -0.9949
17724TIP3    H274664   1.474   5.690   3.345 -1.8110  1.1507  2.0417
17725TIP3   OH274665   6.206   0.354   5.042 -0.2249  0.1392 -0.2498
17725TIP3    H174666   6.249   0.385   4.963  0.1939 -0.5259 -0.2936
17725TIP3    H274667   6.226   0.260   5.045 -0.3668  0.1242  0.5531
17726TIP3   OH274668   4.503   1.077  16.492 -0.9663 -0.0989 -0.3771
17726TIP3    H174669   4.420   1.033  16.512  0.7083 -2.7172  1.4753
17726TIP3    H274670   4.534   1.034  16.413 -1.2283  0.6984 -0.9217
17727TIP3   OH274671   2.475   2.931   4.609 -0.2400 -0.0448 -0.0000
17727TIP3    H174672   2.554   2.964   4.652 -0.3938  0.1150  0.1637
17727TIP3    H274673   2.504   2.853   4.562  0.2411  0.6256 -0.8512
17728TIP3   OH274674   3.176   3.444  15.932  0.0388 -0.6559  0.5877
17728TIP3    H174675   3.125   3.433  16.012 -0.4002 -1.8316  0.1645
17728TIP3    H274676   3.262   3.474  15.962 -1.0741  2.1440  1.2589
17729TIP3   OH274677   2.499   0.907  14.548 -0.5127 -0.3319 -0.0964
17729TIP3    H174678   2.441   0.859  14.489 -2.0266  1.5837 -0.2718
17729TIP3    H274679   2.440   0.960  14.602  1.0303  1.7641 -0.3306
17730TIP3   OH274680   1.660   0.316   0.186  0.0554  0.2070  0.5890
17730TIP3    H174681   1.742   0.350   0.150  0.2924 -0.4959  0.4449
17730TIP3    H274682   1.667   0.221   0.174 -1.0708  0.1896 -0.0347
17731TIP3   OH274683   3.925   5.619   3.486  0.4101 -0.1697  0.1330
17731TIP3    H174684   3.976   5.698   3.506 -0.2623  0.4330 -0.4505
17731TIP3    H274685   3.888   5.592   3.570 -1.1291  1.4234  0.0362
17732TIP3   OH274686   0.515   0.376   2.525 -0.1072 -0.2378 -0.1328
17732TIP3    H174687   0.580   0.313   2.556 -1.0020 -0.7449  0.7337
17732TIP3    H274688   0.439   0.363   2.581 -1.8028 -1.1638 -2.5069
17733TIP3   OH274689   2.726   3.042  17.130  0.1630 -0.0925 -0.2048
17733TIP3    H174690   2.760   2.999  17.052 -1.7927  1.2648 -1.8891
17733TIP3    H274691   2.671   2.975  17.171  0.6262 -0.5766 -0.3538
17734TIP3   OH274692   3.118   1.409   6.102  0.5432 -0.1173 -0.4484
17734TIP3    H174693   3.027   1.394   6.130  0.3922 -0.4873 -1.1204
17734TIP3    H274694   3.152   1.321   6.085  1.0751  0.0144 -0.0632
17735TIP3   OH274695   0.529   6.467  11.568  0.5113  0.0322 -0.2578
17735TIP3    H174696   0.549   6.374  11.571  3.6584  0.6184 -0.1595
17735TIP3    H274697   0.525   6.488  11.475  3.2102  0.3358 -0.3853
17736TIP3   OH274698   2.615   0.662  14.766  0.0263  0.2758  0.7369
17736TIP3    H174699   2.604   0.718  14.842 -0.2176 -0.4631  1.2583
17736TIP3    H274700   2.526   0.634  14.744 -0.0141  1.2362 -0.4066
17737TIP3   OH274701   5.265   6.124   4.167  0.3221  0.4074 -0.3033
17737TIP3    H174702   5.339   6.069   4.193  0.7022  0.1128 -1.9065
17737TIP3    H274703   5.234   6.086   4.085 -1.9024  0.2632  0.5111
17738TIP3   OH274704   1.075   4.521   5.813  0.0868  0.2333  0.4351
17738TIP3    H174705   1.029   4.602   5.835  0.1667 -0.0442  1.7046
17738TIP3    H274706   1.161   4.551   5.782 -0.9926  0.7732 -2.3209
17739TIP3   OH274707   0.521   2.898  15.714  0.0232  0.2203  0.0363
17739TIP3    H174708   0.521   2.972  15.774 -2.0899  0.1305  0.2243
17739TIP3    H274709   0.514   2.821  15.771 -1.0210  0.0808 -0.2695
17740TIP3   OH274710   0.273   1.902   5.382 -1.0330 -0.1785 -0.1134
17740TIP3    H174711   0.297   1.811   5.366  0.6142  0.1297  0.3622
17740TIP3    H274712   0.249   1.904   5.475  1.0909  0.2364  0.4816
17741TIP3   OH274713   6.008   6.610  14.282 -0.3988 -0.2596  0.3030
17741TIP3    H174714   6.097   6.590  14.252 -0.2896  0.0134  0.4390
17741TIP3    H274715   5.951   6.561  14.223 -0.1683 -0.1517 -0.0121
17742TIP3   OH274716   5.765   2.371  12.119 -0.3021 -0.2010  0.4409
17742TIP3    H174717   5.823   2.329  12.055 -1.8570  0.0308 -1.1864
17742TIP3    H274718   5.706   2.301  12.147 -1.1953  0.2337 -0.2791
17743TIP3   OH274719   6.403   4.924  16.919 -0.5503 -0.3306  0.6910
17743TIP3    H174720   6.401   4.829  16.916 -0.5831 -0.3624  1.4941
17743TIP3    H274721   6.338   4.952  16.855 -0.1848 -0.8397  0.0879
17744TIP3   OH274722   4.485   4.525  13.958 -0.2239  0.6067  0.6370
17744TIP3    H174723   4.449   4.507  13.871  0.0532 -0.3004  0.6958
17744TIP3    H274724   4.408   4.543  14.012 -0.3731  1.4990  0.1386
17745TIP3   OH274725   3.839   6.670  16.182 -0.2113 -0.3277 -0.5026
17745TIP3    H174726   3.903   6.601  16.166  0.0979  0.4461 -3.1238
17745TIP3    H274727   3.884   6.731  16.241  0.4591 -1.0723 -0.2253
17746TIP3   OH274728   1.220   0.707  12.353  0.0406 -0.0556 -0.1816
17746TIP3    H174729   1.190   0.668  12.271  0.1623 -0.9039  0.1686
17746TIP3    H274730   1.286   0.771  12.326 -0.2044 -0.0431 -0.7717
17747TIP3   OH274731   3.791   5.583  14.488  0.1290  0.0623  0.2568
17747TIP3    H174732   3.704   5.558  14.455  0.1757  0.6872 -0.3532
17747TIP3    H274733   3.846   5.506  14.471  0.3222  0.6176 -1.8067
17748TIP3   OH274734   2.498   2.214  16.497  0.0505 -0.4034  0.8521
17748TIP3    H174735   2.569   2.175  16.447  0.5140  0.4087  0.8541
17748TIP3    H274736   2.438   2.249  16.430 -0.8684 -1.9231  0.8240
17749TIP3   OH274737   5.970   6.242   2.079 -0.6702 -0.1221 -0.1112
17749TIP3    H174738   5.998   6.225   1.989 -1.8248 -0.2225 -0.4600
17749TIP3    H274739   6.049   6.273   2.122 -0.2176  0.4432 -1.2957
17750TIP3   OH274740   5.690   4.964  14.929  0.4376 -0.8794  0.1286
17750TIP3    H174741   5.673   4.997  15.018 -0.6561 -0.6474 -0.1510
17750TIP3    H274742   5.611   4.986  14.880  0.5498 -2.0424 -0.6126
17751TIP3   OH274743   2.580   5.134   5.455  0.1559 -0.2665 -0.1157
17751TIP3    H174744   2.630   5.166   5.380 -1.3503 -1.3553 -1.6718
17751TIP3    H274745   2.644   5.091   5.512  1.0491 -1.3932 -1.9006
17752TIP3   OH274746   3.981   2.999   6.465 -0.2225  0.1864 -0.4971
17752TIP3    H174747   3.901   3.000   6.516  0.1064 -0.6212  0.0417
17752TIP3    H274748   4.005   2.907   6.459 -0.0266  0.3031 -1.7513
17753TIP3   OH274749   6.574   1.531   0.766  0.1090 -0.0996  0.0382
17753TIP3    H174750   6.634   1.536   0.692  1.4611 -1.0626  1.0220
17753TIP3    H274751   6.574   1.619   0.803 -0.6578  0.4161 -1.1322
17754TIP3   OH274752   3.142   4.635  11.030  0.1077 -0.1042  0.4464
17754TIP3    H174753   3.214   4.580  10.999  0.7160  0.1981  1.2749
17754TIP3    H274754   3.144   4.711  10.971 -1.3170 -1.3193 -1.2813
17755TIP3   OH274755   2.245   3.856   3.400  0.4786  0.5407 -0.4954
17755TIP3    H174756   2.227   3.939   3.355 -1.0872  0.1875 -0.5798
17755TIP3    H274757   2.307   3.811   3.342  0.0195  0.9304 -1.3099
17756TIP3   OH274758   4.194   5.401   1.470  0.5459  0.2402 -0.5365
17756TIP3    H174759   4.278   5.382   1.428  1.0061 -1.6317  1.0609
17756TIP3    H274760   4.215   5.461   1.541  0.8668 -1.3326  0.7749
17757TIP3   OH274761   1.378   3.662  10.886 -0.3379  0.0407 -0.0774
17757TIP3    H174762   1.421   3.591  10.933  0.4759  0.2468 -0.4753
17757TIP3    H274763   1.288   3.661  10.917 -0.0961 -0.5422  0.6378
17758TIP3   OH274764   0.253   6.280  13.166 -0.2664 -0.1080  0.7208
17758TIP3    H174765   0.266   6.192  13.203  1.1937  0.2119  1.0535
17758TIP3    H274766   0.175   6.273  13.112 -0.8706 -1.3054  1.7095
17759TIP3   OH274767   1.427   0.551  16.335 -0.4528  0.0830  0.4416
17759TIP3    H174768   1.491   0.480  16.341 -0.8026 -0.1931  0.9769
17759TIP3    H274769   1.345   0.512  16.364 -0.7979  0.5215  0.0573
17760TIP3   OH274770   3.274   3.069   0.724 -0.2118  0.4532 -0.5803
17760TIP3    H174771   3.236   3.146   0.766  1.8132  0.1834  2.0242
17760TIP3    H274772   3.232   3.065   0.638 -2.7337  2.5898  0.4109
17761TIP3   OH274773   2.410   4.303   2.272  0.2576 -0.0053  0.3078
17761TIP3    H174774   2.353   4.257   2.334 -0.3134  0.2319 -0.0345
17761TIP3    H274775   2.352   4.365   2.228  1.0954  1.3296  1.0378
17762TIP3   OH274776   2.029   6.166   3.715 -0.3059 -0.6032 -0.4872
17762TIP3    H174777   2.032   6.221   3.637 -0.7879  1.2284  0.7259
17762TIP3    H274778   1.957   6.105   3.699 -1.0331  0.3872 -1.0947
17763TIP3   OH274779   1.183   1.410  16.102 -0.3478 -0.2986 -0.2922
17763TIP3    H174780   1.189   1.368  16.187 -1.9206  0.4847  0.2431
17763TIP3    H274781   1.174   1.337  16.040  2.4350 -0.9589 -0.0414
17764TIP3   OH274782   2.859   5.178   3.622  0.3549  0.3186 -0.4285
17764TIP3    H174783   2.768   5.202   3.640 -1.2193 -3.8071 -1.7546
17764TIP3    H274784   2.900   5.171   3.709 -1.0189  0.6479  0.2735
17765TIP3   OH274785   5.667   3.099   0.553 -0.1139  0.4394  0.2373
17765TIP3    H174786   5.750   3.138   0.526 -0.1539  0.0707 -0.4259
17765TIP3    H274787   5.693   3.033   0.618  0.0483  0.7936  0.5364
17766TIP3   OH274788   2.609   4.781  12.093  0.0283  0.3573  0.0931
17766TIP3    H174789   2.635   4.723  12.021  1.8835 -0.1649  1.1195
17766TIP3    H274790   2.550   4.845  12.052 -1.5235 -1.7862 -1.2193
17767TIP3   OH274791   4.577   5.034  15.074 -0.8052 -0.9016  0.0218
17767TIP3    H174792   4.546   5.018  15.163  0.6350 -0.6518  0.5990
17767TIP3    H274793   4.569   4.949  15.030 -3.0062 -0.6700 -0.1232
17768TIP3   OH274794   6.282   0.115  12.138 -0.3590 -0.0414  0.0131
17768TIP3    H174795   6.281   0.084  12.228 -1.8191 -1.7287 -0.5416
17768TIP3    H274796   6.212   0.179  12.133  1.0877  1.6736  0.5471
17769TIP3   OH274797   1.016   6.348  13.658  0.4880  0.1821  0.1469
17769TIP3    H174798   0.942   6.289  13.648 -0.7581  1.7486 -0.2371
17769TIP3    H274799   1.088   6.291  13.686 -1.2014 -1.1817  2.0568
17770TIP3   OH274800   4.450   5.497  16.947 -0.1847 -0.2902  0.5846
17770TIP3    H174801   4.518   5.549  16.991 -0.7175  0.8180  0.1317
17770TIP3    H274802   4.440   5.538  16.861  0.0811 -1.7754 -0.1952
17771TIP3   OH274803   3.765   5.116   6.205  0.0629  0.3190  0.6357
17771TIP3    H174804   3.805   5.203   6.201 -0.7256  0.7251  1.1513
17771TIP3    H274805   3.828   5.063   6.254  0.2367  0.7948  0.9428
17772TIP3   OH274806   5.225   1.751   2.055  0.3342 -0.2396  0.1827
17772TIP3    H174807   5.155   1.796   2.102  0.5907 -0.2459  0.5799
17772TIP3    H274808   5.267   1.820   2.003 -0.3154 -0.3429 -0.4930
17773TIP3   OH274809   0.569   2.102   6.315  0.0988  0.1935  0.1768
17773TIP3    H174810   0.562   2.189   6.275  2.2766  0.6850  0.7277
17773TIP3    H274811   0.480   2.066   6.310 -1.0976  2.8269  0.8423
17774TIP3   OH274812   3.489   6.560   0.543 -0.6268  0.2021  0.0209
17774TIP3    H174813   3.472   6.473   0.580 -0.6369  0.8220  1.5348
17774TIP3    H274814   3.513   6.542   0.452 -0.9423 -1.3584  0.2016
17775TIP3   OH274815   0.394   0.288   5.282  0.2973  0.9325  0.0386
17775TIP3    H174816   0.307   0.324   5.300 -0.5360 -0.0317 -1.8075
17775TIP3    H274817   0.406   0.220   5.348 -2.6474 -2.4768 -2.5228
17776TIP3   OH274818   0.097   0.566  14.313  0.1523  0.0321 -0.1197
17776TIP3    H174819   0.103   0.661  14.299 -0.0178 -0.0542 -0.8500
17776TIP3    H274820   0.157   0.548  14.385 -0.4651  0.8189  0.6056
17777TIP3   OH274821   2.294   2.109   2.001 -0.0330  0.1215 -0.4483
17777TIP3    H174822   2.313   2.035   2.059 -1.1217  0.1002 -0.0915
17777TIP3    H274823   2.292   2.070   1.913 -1.1627 -0.4091 -0.2096
17778TIP3   OH274824   0.616   1.273  13.593  0.3995 -0.0695  0.1788
17778TIP3    H174825   0.558   1.303  13.663  1.1257 -0.7523  1.0994
17778TIP3    H274826   0.698   1.320  13.607  0.0017  1.1860 -1.3494
17779TIP3   OH274827   3.540   5.655   0.788 -0.4120  0.3328  0.4163
17779TIP3    H174828   3.549   5.738   0.742  1.4258 -0.2207 -0.3352
17779TIP3    H274829   3.569   5.673   0.877 -0.5052  0.6020  0.3919
17780TIP3   OH274830   0.618   1.985   1.443 -0.1367 -0.4126  0.1411
17780TIP3    H174831   0.576   1.913   1.490 -0.5401 -0.9988 -1.0545
17780TIP3    H274832   0.612   1.959   1.351 -0.3855  1.2126 -0.3302
17781TIP3   OH274833   1.013   0.541   3.441  0.3534 -0.4955 -0.6589
17781TIP3    H174834   1.023   0.616   3.499 -0.1376 -0.1698 -0.9877
17781TIP3    H274835   1.102   0.517   3.416  0.4655  0.9726 -1.8113
17782TIP3   OH274836   1.575   5.892  15.912 -0.2284 -0.0799  0.0527
17782TIP3    H174837   1.604   5.946  15.986 -0.3168 -1.1445  0.8926
17782TIP3    H274838   1.480   5.899  15.913 -0.3654 -1.6117  1.2742
17783TIP3   OH274839   2.036   4.021   3.263  0.2306  0.2125 -0.1815
17783TIP3    H174840   2.038   3.929   3.239 -0.5756  0.1998 -0.2442
17783TIP3    H274841   2.095   4.063   3.200 -1.4397  0.0957 -1.9246
17784TIP3   OH274842   2.782   2.232  10.781 -0.4482 -0.0523 -0.0175
17784TIP3    H174843   2.850   2.266  10.721  0.6086 -1.0615  0.5781
17784TIP3    H274844   2.820   2.153  10.818 -0.7806  0.8892  2.5379
17785TIP3   OH274845   0.648   5.785  11.460  0.4362  0.1599 -0.1352
17785TIP3    H174846   0.728   5.836  11.446 -0.4334  1.2883 -1.1712
17785TIP3    H274847   0.678   5.694  11.460  1.7416  0.5631 -0.3713
17786TIP3   OH274848   3.558   5.065   0.620 -0.5623 -0.0741  0.3137
17786TIP3    H174849   3.464   5.056   0.610 -0.5656  1.7343 -2.1314
17786TIP3    H274850   3.594   5.049   0.533  1.2827  0.4743  0.9182
17787TIP3   OH274851   3.379   4.926  13.153  0.2134  0.1095  0.3218
17787TIP3    H174852   3.385   5.010  13.106  1.2411  0.8113  1.6418
17787TIP3    H274853   3.308   4.879  13.109  1.5721  0.3938 -2.4457
17788TIP3   OH274854   6.633   1.552  16.545 -0.3290  0.1705  0.0364
17788TIP3    H174855   6.702   1.501  16.502 -0.2500 -1.1659  1.6420
17788TIP3    H274856   6.654   1.546  16.638 -1.4769  1.4924  0.4036
17789TIP3   OH274857   0.696   4.587  16.629 -0.1128  0.1868 -0.6612
17789TIP3    H174858   0.661   4.542  16.552  0.9457  1.2116 -1.7767
17789TIP3    H274859   0.622   4.590  16.690 -0.5475 -2.0060 -0.9810
17790TIP3   OH274860   4.726   1.279  14.881  0.4943 -0.2825  0.3802
17790TIP3    H174861   4.815   1.315  14.891 -0.4060  2.4091 -0.5565
17790TIP3    H274862   4.700   1.257  14.971  0.9961  1.8744  1.1329
17791TIP3   OH274863   2.567   3.511  15.872 -0.5045 -0.0986 -0.8177
17791TIP3    H174864   2.607   3.571  15.808  1.5519 -0.4018  0.1099
17791TIP3    H274865   2.628   3.510  15.946 -0.5919 -3.0561 -0.6414
17792TIP3   OH274866   5.161   2.039  13.571  0.1927 -0.3712 -0.0898
17792TIP3    H174867   5.198   2.088  13.645  1.7612  0.9781 -1.6884
17792TIP3    H274868   5.232   2.032  13.508 -0.8204 -2.3662 -1.0923
17793TIP3   OH274869   2.993   0.178   1.631  0.3722 -0.2801  0.4653
17793TIP3    H174870   3.010   0.249   1.693 -0.4880  0.8708 -0.5815
17793TIP3    H274871   2.918   0.208   1.580  3.4489  0.7873 -4.0016
17794TIP3   OH274872   4.765   1.358  16.433 -0.1053  0.3587  0.0879
17794TIP3    H174873   4.845   1.326  16.476  1.2453  0.4205 -2.2055
17794TIP3    H274874   4.795   1.434  16.381 -1.4287 -0.2108 -1.5905
17795TIP3   OH274875   4.401   0.731   5.839  0.6277  0.3366 -0.0894
17795TIP3    H174876   4.318   0.726   5.886  0.3707 -0.9916 -0.6504
17795TIP3    H274877   4.399   0.657   5.778  1.9125  0.7095 -0.6198
17796TIP3   OH274878   0.469   1.174  12.921 -0.4275  0.5181  0.2397
17796TIP3    H174879   0.542   1.236  12.912 -0.3679  0.3870 -0.2407
17796TIP3    H274880   0.449   1.173  13.014  1.2159 -0.6185  0.6232
17797TIP3   OH274881   5.760   4.747   2.836 -0.0455 -0.3881 -0.0948
17797TIP3    H174882   5.820   4.731   2.909 -0.0790 -0.3535 -0.0599
17797TIP3    H274883   5.768   4.669   2.781  0.1601 -0.3096 -0.1782
17798TIP3   OH274884   5.730   2.132  13.674 -0.0003 -0.0691  0.2634
17798TIP3    H174885   5.680   2.104  13.597 -0.5972  1.3012  0.1310
17798TIP3    H274886   5.802   2.069  13.680 -1.8004 -2.2188  0.5776
17799TIP3   OH274887   4.142   0.395  15.075 -0.0431 -0.3408  0.6289
17799TIP3    H174888   4.132   0.436  15.162 -1.4462  0.5980  0.0639
17799TIP3    H274889   4.146   0.301  15.093 -1.4027 -0.2310  1.6515
17800TIP3   OH274890   4.310   0.589  12.226 -0.0535  0.2051 -0.4748
17800TIP3    H174891   4.340   0.643  12.153 -1.3765 -0.3687 -1.5037
17800TIP3    H274892   4.321   0.499  12.195 -2.7624 -0.0389 -0.9569
17801TIP3   OH274893   5.849   6.111   1.063  0.1456  0.4151 -0.6103
17801TIP3    H174894   5.898   6.030   1.068  0.3972  0.4844 -1.7647
17801TIP3    H274895   5.784   6.097   0.994 -0.2083  0.9794 -0.4068
17802TIP3   OH274896   1.136   5.161  17.157  0.0736 -0.6156  0.2322
17802TIP3    H174897   1.055   5.212  17.168 -0.3679 -1.1661 -0.3838
17802TIP3    H274898   1.206   5.225  17.168 -0.3824 -0.3790  2.2160
17803TIP3   OH274899   5.306   5.036  14.094 -0.3316 -0.0418 -0.4492
17803TIP3    H174900   5.339   4.947  14.090  0.4810  0.1447  1.2068
17803TIP3    H274901   5.308   5.059  14.187  1.5564  2.4322 -0.9673
17804TIP3   OH274902   3.596   0.632   0.841 -0.1539 -0.1432  0.8747
17804TIP3    H174903   3.641   0.668   0.764  0.6153 -1.6433  0.6027
17804TIP3    H274904   3.525   0.695   0.858  1.2456  1.6071  0.5452
17805TIP3   OH274905   4.313   6.171   2.005 -0.4323 -0.4775 -0.1354
17805TIP3    H174906   4.379   6.232   2.040 -1.3677 -0.0885  1.0335
17805TIP3    H274907   4.297   6.201   1.916  0.8156 -0.4579 -0.3705
17806TIP3   OH274908   5.974   2.518  15.657  0.2882 -0.2011 -0.0434
17806TIP3    H174909   5.883   2.491  15.673  0.3605 -1.1535 -1.0714
17806TIP3    H274910   6.022   2.436  15.651  0.6213  0.0841 -2.7813
17807TIP3   OH274911   6.397   3.835  16.923  0.2559  0.2493 -0.3181
17807TIP3    H174912   6.359   3.882  16.849  1.3933  1.0301 -0.4380
17807TIP3    H274913   6.466   3.893  16.956  1.0282 -0.8992  0.1718
17808TIP3   OH274914   1.576   3.924   5.009 -0.6814 -0.5952  0.0559
17808TIP3    H174915   1.552   3.846   4.960  0.0686 -0.6688 -0.2062
17808TIP3    H274916   1.642   3.967   4.955 -3.1118  1.7869 -1.2658
17809TIP3   OH274917   3.174   2.513  11.449  0.2746 -0.1819  0.2325
17809TIP3    H174918   3.203   2.574  11.381  2.3348 -1.2354  0.0758
17809TIP3    H274919   3.133   2.568  11.516 -0.1288  1.0704 -0.9977
17810TIP3   OH274920   6.550   0.730  12.967  0.3912  0.6244  0.4244
17810TIP3    H174921   6.571   0.805  13.022 -1.4576 -0.1352  2.2897
17810TIP3    H274922   6.524   0.768  12.883  0.3941  2.0085  1.0332
17811TIP3   OH274923   4.970   6.607   6.186 -0.0983 -0.9064 -0.5460
17811TIP3    H174924   4.951   6.593   6.279 -2.3908  2.1327 -0.3998
17811TIP3    H274925   4.894   6.571   6.141 -0.6788  0.7256 -0.9279
17812TIP3   OH274926   1.827   5.978   3.661  0.3649 -0.4263  0.5980
17812TIP3    H174927   1.870   5.893   3.654  0.7243 -0.2642  0.8190
17812TIP3    H274928   1.745   5.967   3.612 -0.0142 -1.1646  1.3801
17813TIP3   OH274929   1.805   5.836   2.630 -0.1120 -0.1831  0.1458
17813TIP3    H174930   1.845   5.812   2.713 -2.4841 -0.6136  1.2571
17813TIP3    H274931   1.764   5.921   2.646 -0.1677 -0.0286 -0.7408
17814TIP3   OH274932   6.763   6.571  11.229 -0.2720 -0.0998 -0.6348
17814TIP3    H174933   6.679   6.524  11.236 -0.3776  0.2166  0.4044
17814TIP3    H274934   6.740   6.663  11.243  0.3155 -0.0711  0.1667
17815TIP3   OH274935   1.748   0.449   2.518  0.0216  0.2505 -0.3725
17815TIP3    H174936   1.655   0.472   2.526  0.2173  1.2962 -0.8767
17815TIP3    H274937   1.792   0.533   2.504  1.1123 -0.1777  0.3633
17816TIP3   OH274938   3.319   3.279  16.462  0.5288  0.3228  0.2570
17816TIP3    H174939   3.354   3.348  16.407 -0.7592  0.4405 -0.4508
17816TIP3    H274940   3.386   3.211  16.462  0.9463  0.7276 -0.6838
17817TIP3   OH274941   3.250   1.356   2.504 -0.4267 -0.3128  0.5803
17817TIP3    H174942   3.263   1.318   2.418  1.7904  4.0324 -1.3189
17817TIP3    H274943   3.332   1.338   2.551 -0.7293 -0.7353  0.9539
17818TIP3   OH274944   0.129   6.748  14.279  0.3446  0.2096 -0.2558
17818TIP3    H174945   0.097   6.762  14.189 -1.8557  1.6960  0.6509
17818TIP3    H274946   0.162   6.834  14.306  1.9132 -0.4709  0.0517
17819TIP3   OH274947   4.546   4.945  12.077  0.5969 -0.3992  0.0291
17819TIP3    H174948   4.582   4.892  12.006 -0.0539  2.4830 -2.6580
17819TIP3    H274949   4.623   4.981  12.121  1.0430  0.0247 -1.0606
17820TIP3   OH274950   5.797   5.832   1.222  0.7646 -0.4822  0.3174
17820TIP3    H174951   5.850   5.870   1.152  0.2778  0.8226  0.6314
17820TIP3    H274952   5.849   5.842   1.301 -0.3884  1.9530  0.8491
17821TIP3   OH274953   5.904   5.022   1.036 -0.5533 -0.0120 -0.5562
17821TIP3    H174954   5.964   4.947   1.044  0.5670  0.9005 -0.2299
17821TIP3    H274955   5.916   5.053   0.946 -1.6296 -0.7115 -0.9567
17822TIP3   OH274956   4.339   6.311  13.917  0.2116 -0.2233 -0.3626
17822TIP3    H174957   4.427   6.316  13.880  0.7547  0.3588  0.9108
17822TIP3    H274958   4.281   6.308  13.842  1.2875  0.1713 -1.2416
17823TIP3   OH274959   2.381   3.241  13.472 -0.3051 -0.1158  0.3846
17823TIP3    H174960   2.328   3.226  13.550  0.1159  0.5780  0.8146
17823TIP3    H274961   2.468   3.261  13.505  0.1194 -0.7731 -0.3019
17824TIP3   OH274962   3.298   0.928  17.152  0.0342 -0.2420 -0.0639
17824TIP3    H174963   3.236   0.859  17.175 -0.1889 -0.0936 -0.2230
17824TIP3    H274964   3.263   1.007  17.194  0.6350 -0.3471  0.6704
17825TIP3   OH274965   1.911   6.606   3.187  0.0591  0.0193 -0.0801
17825TIP3    H174966   1.823   6.628   3.216 -1.1302 -3.9980  0.0246
17825TIP3    H274967   1.962   6.601   3.268 -0.5546 -0.9587  0.2672
17826TIP3   OH274968   5.534   0.223   1.501  0.5303  0.0901 -0.3177
17826TIP3    H174969   5.461   0.282   1.517 -1.0004 -1.3312 -1.5940
17826TIP3    H274970   5.500   0.136   1.524  2.4326 -0.4250  0.7590
17827TIP3   OH274971   5.458   0.662   0.266  1.1947 -0.2398 -0.1547
17827TIP3    H174972   5.530   0.696   0.214  1.1314 -1.4390 -1.0680
17827TIP3    H274973   5.402   0.616   0.203 -1.0648  1.7227  0.2879
17828TIP3   OH274974   5.868   3.484   4.273  0.3847  0.1816  0.6002
17828TIP3    H174975   5.899   3.570   4.301  0.2932  0.4325 -0.0391
17828TIP3    H274976   5.843   3.439   4.353 -0.8495  1.2547  0.8314
17829TIP3   OH274977   4.836   5.023   6.111 -0.6424 -0.3603 -0.0857
17829TIP3    H174978   4.777   5.073   6.168 -0.2051 -1.8016  1.7303
17829TIP3    H274979   4.917   5.017   6.162  0.7919  0.7509 -2.1180
17830TIP3   OH274980   1.831   1.357   2.772 -0.0482 -0.0366 -0.1206
17830TIP3    H174981   1.915   1.396   2.750  0.0072 -1.0105 -1.7737
17830TIP3    H274982   1.848   1.305   2.851  0.3029  1.6356  0.9709
17831TIP3   OH274983   3.637   2.069  15.735 -0.0045  0.3479  0.5157
17831TIP3    H174984   3.680   2.025  15.661  0.3702  0.5775  0.5975
17831TIP3    H274985   3.565   2.010  15.758  0.8578 -0.5374  1.0183
17832TIP3   OH274986   3.473   4.187   5.197  0.1715 -0.6347 -0.2151
17832TIP3    H174987   3.506   4.125   5.263 -0.2312 -0.2146  0.3967
17832TIP3    H274988   3.380   4.164   5.189  0.4745 -1.4955 -1.5685
17833TIP3   OH274989   6.398   0.987  13.646  0.0019  0.1756  0.0078
17833TIP3    H174990   6.448   1.055  13.690 -0.0136 -0.8940  1.7925
17833TIP3    H274991   6.307   1.017  13.651 -0.1178 -0.3288  1.6037
17834TIP3   OH274992   3.450   5.296  15.087  0.0190 -0.0510  0.5164
17834TIP3    H174993   3.499   5.258  15.014 -1.5348 -1.9726  0.3958
17834TIP3    H274994   3.383   5.231  15.108 -1.2846  1.6282  1.9124
17835TIP3   OH274995   5.444   3.227   5.657  0.2809 -0.2342  0.3663
17835TIP3    H174996   5.404   3.184   5.732  0.2413 -0.8595 -0.0045
17835TIP3    H274997   5.514   3.168   5.630  1.5799  0.9313  1.1051
17836TIP3   OH274998   0.018   3.883  14.148  0.1584 -0.0837  0.1380
17836TIP3    H174999   0.022   3.866  14.243  2.3301 -2.9112 -0.3141
17836TIP3    H275000   0.094   3.938  14.130 -0.2838  0.4969  0.0370
17837TIP3   OH275001   4.434   6.713   3.326 -0.2564 -0.4149  0.2074
17837TIP3    H175002   4.385   6.795   3.337  1.8775  1.3281 -2.1706
17837TIP3    H275003   4.511   6.723   3.381 -2.1649 -3.0640  3.7754
17838TIP3   OH275004   0.834   3.143  13.779 -0.2137 -0.4276  0.2038
17838TIP3    H175005   0.923   3.159  13.746 -1.1560  2.1659 -1.4068
17838TIP3    H275006   0.781   3.135  13.700 -1.4384 -2.1140  1.1357
17839TIP3   OH275007   0.295   4.925   5.009  0.0972  0.2485 -0.3690
17839TIP3    H175008   0.383   4.926   4.970 -0.3527 -1.0352 -1.4612
17839TIP3    H275009   0.276   5.017   5.025  1.8035  0.5322  0.2664
17840TIP3   OH275010   2.253   4.629  16.024  0.2304  0.1215  0.3779
17840TIP3    H175011   2.348   4.632  16.018  0.3157 -1.3569  0.4758
17840TIP3    H275012   2.236   4.609  16.116 -0.0037 -2.4717 -0.1307
17841TIP3   OH275013   5.527   5.869  16.608 -0.3712  0.1826 -0.5732
17841TIP3    H175014   5.448   5.816  16.615 -0.7110  0.3308 -2.6845
17841TIP3    H275015   5.495   5.959  16.603  0.1134  0.4979  1.1281
17842TIP3   OH275016   1.235   6.631  16.767 -0.3800  0.6670  0.1521
17842TIP3    H175017   1.277   6.626  16.853  1.6714 -0.0811 -0.8348
17842TIP3    H275018   1.276   6.561  16.716 -1.6843  0.9703 -1.3908
17843TIP3   OH275019   5.159   6.184   0.675 -0.3069  0.2248 -0.1958
17843TIP3    H175020   5.091   6.230   0.626  0.2691 -1.3384 -2.6531
17843TIP3    H275021   5.116   6.103   0.704  0.5896 -1.1360 -2.4233
17844TIP3   OH275022   0.042   2.545  11.840 -0.5257  0.1504 -0.3530
17844TIP3    H175023  -0.049   2.561  11.814 -0.7920  0.3736  0.6950
17844TIP3    H275024   0.046   2.450  11.855 -1.5605  0.5021  3.0146
17845TIP3   OH275025   3.775   5.095  16.505 -0.3864 -0.0860 -0.5246
17845TIP3    H175026   3.722   5.093  16.585  0.4727 -3.7279  0.1426
17845TIP3    H275027   3.813   5.183  16.503 -1.6106  0.6102  2.2340
17846TIP3   OH275028   2.909   4.176   1.538  0.0946  0.3733  0.5178
17846TIP3    H175029   2.880   4.092   1.574 -0.7530  0.3028 -0.2788
17846TIP3    H275030   2.839   4.201   1.477  0.6383  1.3499  0.2762
17847TIP3   OH275031   3.388   2.227   3.335  0.6865 -0.0549  0.2074
17847TIP3    H175032   3.389   2.322   3.325  2.0571  0.2107  2.4194
17847TIP3    H275033   3.317   2.198   3.277 -1.5335  2.5424  1.4266
17848TIP3   OH275034   3.493   6.836   5.912 -0.0937  0.0839  0.0872
17848TIP3    H175035   3.424   6.885   5.958  0.1897  0.0454  0.5565
17848TIP3    H275036   3.570   6.892   5.919 -0.3598  0.7014 -1.5024
17849TIP3   OH275037   4.477   4.758   1.723 -0.1027 -0.1507 -0.0010
17849TIP3    H175038   4.560   4.804   1.710 -0.3050  0.7668  1.5847
17849TIP3    H275039   4.416   4.801   1.663 -0.4263  2.1722  1.8326
17850TIP3   OH275040   6.725   6.656  14.493 -0.2707 -0.2842 -0.3135
17850TIP3    H175041   6.808   6.620  14.525 -0.4209 -2.1790 -1.8247
17850TIP3    H275042   6.659   6.616  14.549 -0.2247  0.7367  0.4904
17851TIP3   OH275043   4.028   1.433  11.150 -0.3221  0.7057 -0.2176
17851TIP3    H175044   3.944   1.477  11.138 -0.5536  0.1794 -0.5769
17851TIP3    H275045   4.063   1.423  11.061  0.7155  2.0517  0.0123
17852TIP3   OH275046   1.361   5.769  17.083  0.4856  0.7882 -0.0065
17852TIP3    H175047   1.435   5.734  17.132  0.0506 -0.9441 -0.5323
17852TIP3    H275048   1.286   5.760  17.143  0.6768  2.6483  0.5719
17853TIP3   OH275049   3.179   6.675   4.961  0.1036 -0.4664  0.2035
17853TIP3    H175050   3.272   6.698   4.950 -0.3318  0.9209 -0.9266
17853TIP3    H275051   3.160   6.697   5.052  0.1624  2.2691 -0.3406
17854TIP3   OH275052   5.111   3.789   5.865  0.1896 -0.2804  0.3696
17854TIP3    H175053   5.044   3.767   5.930 -0.5385  0.7114 -0.0275
17854TIP3    H275054   5.189   3.810   5.917 -0.3432  0.3668  0.9188
17855TIP3   OH275055   6.602   1.917  12.407  0.1713 -0.3382  0.7248
17855TIP3    H175056   6.600   1.822  12.397 -0.4729 -0.1708 -1.0233
17855TIP3    H275057   6.666   1.947  12.342  0.0314  0.4524  0.9478
17856TIP3   OH275058   3.431   3.548   6.286  0.1071  0.3027  0.6151
17856TIP3    H175059   3.356   3.575   6.232  0.9285 -0.7897 -1.1489
17856TIP3    H275060   3.442   3.621   6.348 -0.5461  1.9060 -1.0363
17857TIP3   OH275061   3.251   2.962   3.149 -0.0350 -0.5192  0.0841
17857TIP3    H175062   3.294   2.961   3.234 -1.4492 -2.8680  0.8421
17857TIP3    H275063   3.317   2.929   3.088  0.6378  0.1515  0.4375
17858TIP3   OH275064   3.798   2.997   5.520 -0.3062 -0.2778 -0.1608
17858TIP3    H175065   3.750   3.079   5.517 -0.4116 -0.3169  0.4111
17858TIP3    H275066   3.736   2.934   5.557 -0.1869 -0.5896 -0.4805
17859TIP3   OH275067   0.116   6.792   1.066  0.1908 -0.3925  0.7810
17859TIP3    H175068   0.057   6.809   1.140  2.5809  0.3014  2.6862
17859TIP3    H275069   0.107   6.869   1.009 -1.9072 -1.0723  0.1347
17860TIP3   OH275070   6.147   2.028  11.384  0.0926 -0.5325  0.0628
17860TIP3    H175071   6.140   2.122  11.397  1.9238 -0.5855  2.0058
17860TIP3    H275072   6.219   2.017  11.322 -1.4420 -0.6686 -1.8110
17861TIP3   OH275073   5.780   2.977  13.732  0.2893 -0.0374 -0.7669
17861TIP3    H175074   5.800   2.986  13.825  2.1742 -1.3381 -1.0020
17861TIP3    H275075   5.863   2.956  13.691 -0.8498 -1.6318 -2.4483
17862TIP3   OH275076   6.809   3.123   2.853 -0.1605  0.3799  0.3472
17862TIP3    H175077   6.883   3.069   2.827 -0.2252  0.6198 -0.3618
17862TIP3    H275078   6.741   3.104   2.788 -0.1746  1.3165  0.0755
17863TIP3   OH275079   3.393   3.370   2.833  0.1232 -0.4120  0.3783
17863TIP3    H175080   3.311   3.409   2.863  1.4916  0.8204  2.8616
17863TIP3    H275081   3.381   3.276   2.845 -1.4253 -0.3743 -0.7192
17864TIP3   OH275082   5.296   0.965  15.184 -0.0191 -0.2604 -0.0033
17864TIP3    H175083   5.341   1.049  15.182 -0.0799 -0.2172  0.3148
17864TIP3    H275084   5.206   0.985  15.159  0.0546 -0.2898 -0.2904
17865TIP3   OH275085   0.393   1.841   3.672 -0.3607  0.1497 -0.3753
17865TIP3    H175086   0.328   1.836   3.602 -0.2467 -1.3983 -0.3944
17865TIP3    H275087   0.350   1.891   3.741 -1.3385 -0.2830 -0.6517
17866TIP3   OH275088   2.111   2.848   6.096 -0.3265 -0.0983 -0.2300
17866TIP3    H175089   2.185   2.788   6.085  0.5930  0.7503  1.0933
17866TIP3    H275090   2.050   2.800   6.153  1.3496  0.9119  2.6160
17867TIP3   OH275091   3.249   0.045  12.721 -0.2338  0.0466  0.2732
17867TIP3    H175092   3.275   0.038  12.813  1.1380 -0.4903 -0.1285
17867TIP3    H275093   3.294  -0.028  12.677 -1.4592 -0.1626 -0.7093
17868TIP3   OH275094   4.239   3.675  11.672 -0.1739 -0.6854  0.2147
17868TIP3    H175095   4.161   3.731  11.662 -0.2469 -0.4888  1.7147
17868TIP3    H275096   4.209   3.603  11.728  1.3097  0.7115  2.9978
17869TIP3   OH275097   2.494   1.843  14.283 -0.3873 -0.0401 -0.2379
17869TIP3    H175098   2.584   1.821  14.258 -0.1730  0.9081 -0.3287
17869TIP3    H275099   2.502   1.886  14.368 -0.7595  0.0234 -0.2327
17870TIP3   OH275100   2.238   1.627   3.174 -0.6006  0.1790 -0.4350
17870TIP3    H175101   2.247   1.534   3.152 -0.1496  0.1033  0.0382
17870TIP3    H275102   2.327   1.654   3.196 -1.0313  0.1951  1.4725
17871TIP3   OH275103   5.090   6.126  14.834 -0.2786  0.3575  0.0169
17871TIP3    H175104   5.004   6.144  14.796 -0.6977  0.2803  0.9077
17871TIP3    H275105   5.145   6.199  14.803 -0.7516  0.6065 -0.2560
17872TIP3   OH275106   3.402   2.445  16.343  0.5303  0.9099  0.0490
17872TIP3    H175107   3.375   2.362  16.305 -0.8679  0.7744  1.2293
17872TIP3    H275108   3.497   2.441  16.347  0.5477 -0.1456 -0.9378
17873TIP3   OH275109   1.442   6.826  14.872  0.7636  0.1567 -0.8351
17873TIP3    H175110   1.537   6.820  14.861  0.9172 -0.8032  0.7134
17873TIP3    H275111   1.413   6.735  14.880 -0.2625  0.4470 -1.0662
17874TIP3   OH275112   3.687   5.447   1.146  0.2767 -0.2801  0.1503
17874TIP3    H175113   3.711   5.462   1.237  0.7269  1.7124 -0.2508
17874TIP3    H275114   3.695   5.532   1.105  0.1712 -1.1554 -1.7926
17875TIP3   OH275115   4.650   6.601   2.375  0.9791  0.5820  0.6145
17875TIP3    H175116   4.585   6.535   2.399  3.7986 -2.4691  0.4528
17875TIP3    H275117   4.641   6.610   2.281  0.8514  0.1091  0.5782
17876TIP3   OH275118   2.884   2.646   1.274 -0.2861  0.0466 -0.2964
17876TIP3    H175119   2.933   2.717   1.233  0.2379 -1.0599 -1.6794
17876TIP3    H275120   2.937   2.568   1.257 -0.7150 -0.6743  1.3853
17877TIP3   OH275121   3.687   5.995  13.052 -0.4276  0.3698  0.1575
17877TIP3    H175122   3.747   5.939  13.003 -0.7185 -0.2102  0.4566
17877TIP3    H275123   3.677   6.073  12.997 -1.8495 -0.8493 -1.3873
17878TIP3   OH275124   2.318   6.465   5.200 -0.1582 -0.4670  0.0204
17878TIP3    H175125   2.391   6.403   5.204  0.2550  0.0383  0.5643
17878TIP3    H275126   2.310   6.487   5.107  1.5433  0.7897  0.1076
17879TIP3   OH275127   6.532   4.150   2.948 -0.5224  0.3394  0.3391
17879TIP3    H175128   6.527   4.212   3.021  0.4188  2.1492 -1.0494
17879TIP3    H275129   6.622   4.159   2.915 -0.8800 -0.5190 -0.9498
17880TIP3   OH275130   1.042   6.083   0.613 -0.0662 -0.5326  0.1518
17880TIP3    H175131   1.005   6.165   0.579  0.9371 -0.5215 -1.0186
17880TIP3    H275132   0.975   6.017   0.594 -0.8688 -0.0031  1.0729
17881TIP3   OH275133   6.789   4.310   2.548  0.1639 -0.1427  0.6860
17881TIP3    H175134   6.879   4.288   2.571 -0.4192 -2.5354  0.9366
17881TIP3    H275135   6.796   4.351   2.462  1.4589 -0.8953  0.3985
17882TIP3   OH275136   5.719   4.132   1.750 -0.5674 -0.2739  0.2038
17882TIP3    H175137   5.757   4.082   1.678 -0.1812  0.9374 -0.4486
17882TIP3    H275138   5.650   4.076   1.784 -0.9560 -0.7379 -1.2923
17883TIP3   OH275139   6.119   5.675   6.723 -0.0770  0.2295  0.0056
17883TIP3    H175140   6.208   5.643   6.711 -0.6654 -1.1351 -0.8886
17883TIP3    H275141   6.064   5.598   6.710 -1.4579  1.2989 -0.6312
17884TIP3   OH275142   3.180   6.005  15.344  0.2429 -0.3153  0.2323
17884TIP3    H175143   3.253   6.063  15.366 -0.8809  2.0008 -1.5711
17884TIP3    H275144   3.122   6.010  15.420  0.8855 -0.3359  0.7362
17885TIP3   OH275145   2.598   5.774   5.417 -0.2469 -0.2936 -0.3479
17885TIP3    H175146   2.693   5.780   5.429 -0.1699 -1.4700 -0.2501
17885TIP3    H275147   2.585   5.781   5.322 -0.0503 -0.2627 -0.3729
17886TIP3   OH275148   0.753   0.182   5.418  0.0692 -0.0754 -0.1125
17886TIP3    H175149   0.825   0.244   5.424  0.5164 -0.5508 -0.4028
17886TIP3    H275150   0.743   0.146   5.506  0.4508 -0.2896 -0.1534
17887TIP3   OH275151   4.348   2.445  10.696  0.2613  0.6468  0.9818
17887TIP3    H175152   4.419   2.429  10.758  0.8990 -0.5477 -0.0229
17887TIP3    H275153   4.388   2.495  10.625 -0.0623  0.5400  0.7185
17888TIP3   OH275154   3.106   6.276  13.284  0.2434 -0.2208 -0.1259
17888TIP3    H175155   3.179   6.292  13.344  1.1099 -1.0171 -0.9340
17888TIP3    H275156   3.135   6.202  13.230 -0.9157 -0.1552 -0.8796
17889TIP3   OH275157   4.459   6.773  15.047  0.6932 -0.6960  1.0075
17889TIP3    H175158   4.497   6.699  14.999  1.9162 -0.3819  1.4562
17889TIP3    H275159   4.409   6.733  15.118  2.5871 -1.1229  2.1796
17890TIP3   OH275160   0.960   6.484   2.687 -0.0041 -0.6765 -0.1104
17890TIP3    H175161   1.030   6.454   2.629  0.1280 -2.2942  0.8232
17890TIP3    H275162   0.995   6.472   2.775 -0.8879 -0.0275  0.3446
17891TIP3   OH275163   1.849   3.128  14.775 -0.1564 -0.2966  0.4632
17891TIP3    H175164   1.785   3.113  14.705 -0.7028 -0.4343  0.9877
17891TIP3    H275165   1.851   3.045  14.823  0.6828 -0.4152  0.2379
17892TIP3   OH275166   3.301   2.123  11.246  0.0727  0.1893 -0.0818
17892TIP3    H175167   3.312   2.071  11.326  0.2433 -0.3274 -0.4409
17892TIP3    H275168   3.387   2.121  11.204 -0.7872 -2.3584 -1.9880
17893TIP3   OH275169   1.169   2.784   2.144 -0.9351 -0.4749  0.1350
17893TIP3    H175170   1.094   2.814   2.195 -2.3550  0.4211 -2.3067
17893TIP3    H275171   1.139   2.705   2.100  0.5180 -1.6685  1.1605
17894TIP3   OH275172   1.784   1.707  16.312 -0.3505  0.6028  0.3176
17894TIP3    H175173   1.728   1.641  16.353  0.0561  1.2143  1.9314
17894TIP3    H275174   1.836   1.658  16.248 -0.3534 -0.5768  1.1762
17895TIP3   OH275175   3.369   1.355   3.139 -0.1274  0.0140  0.3320
17895TIP3    H175176   3.365   1.395   3.052 -1.2437 -1.2891 -0.2527
17895TIP3    H275177   3.281   1.366   3.175  0.1050 -0.1556  0.9700
17896TIP3   OH275178   4.479   4.138   4.182 -0.0871 -0.4411  0.1974
17896TIP3    H175179   4.504   4.150   4.091  0.7346 -1.7439  0.2209
17896TIP3    H275180   4.555   4.096   4.223 -0.9431 -1.1279  1.1520
17897TIP3   OH275181   3.456   5.901   2.301  0.5895 -0.1266  0.2205
17897TIP3    H175182   3.536   5.926   2.348  1.6867 -1.6398 -0.7280
17897TIP3    H275183   3.421   5.828   2.353  0.4336 -0.1754  0.0434
17898TIP3   OH275184   6.680   3.371   2.945  0.4832  0.3428 -0.0987
17898TIP3    H175185   6.591   3.369   2.908 -0.1602 -1.3716  1.3644
17898TIP3    H275186   6.722   3.294   2.908  1.1475  0.7752 -0.2545
17899TIP3   OH275187   2.588   6.138   4.161  0.2726  0.1810 -0.4385
17899TIP3    H175188   2.646   6.193   4.214 -1.8579  1.5899  0.5383
17899TIP3    H275189   2.592   6.176   4.073 -0.2693  1.1670 -0.0397
17900TIP3   OH275190   6.635   1.542   2.624  0.1269 -0.0579 -0.4942
17900TIP3    H175191   6.617   1.606   2.555 -0.7868 -0.1110 -0.3188
17900TIP3    H275192   6.662   1.594   2.699 -1.8572  0.2679  0.0589
17901TIP3   OH275193   4.903   2.142   1.288  0.2516  0.1054  0.0124
17901TIP3    H175194   4.923   2.193   1.367 -0.3922  1.0660 -0.4239
17901TIP3    H275195   4.894   2.052   1.320 -2.2586  0.7641  1.4814
17902TIP3   OH275196   4.223   1.232  16.539  0.3216 -0.0532  0.0361
17902TIP3    H175197   4.188   1.223  16.628  1.5128 -1.6943  0.3942
17902TIP3    H275198   4.293   1.296  16.546  0.4330 -0.2040  0.2862
17903TIP3   OH275199   3.999   0.206  12.048 -0.1416 -0.1982 -0.0404
17903TIP3    H175200   4.010   0.215  12.142  0.6453  0.0222 -0.1389
17903TIP3    H275201   4.072   0.151  12.020 -1.9166 -2.6130 -0.1729
17904TIP3   OH275202   3.992   6.513  11.294  0.0529 -0.1609 -0.2236
17904TIP3    H175203   3.899   6.513  11.313  0.3749  2.7503  2.0256
17904TIP3    H275204   4.001   6.564  11.214 -0.2452  0.3850  0.0842
17905TIP3   OH275205   3.375   3.062   0.977 -0.2205 -0.0180  0.3751
17905TIP3    H175206   3.306   3.114   1.017 -1.3949 -0.9875 -0.3408
17905TIP3    H275207   3.347   3.052   0.886  2.1920  1.8483 -0.7000
17906TIP3   OH275208   0.231   2.628   1.094 -0.1142  0.2965  0.3024
17906TIP3    H175209   0.167   2.602   1.027  1.3432  0.9226 -1.4262
17906TIP3    H275210   0.247   2.548   1.144 -0.5010 -0.4763 -0.7731
17907TIP3   OH275211   0.815   0.801   3.240  0.1702 -0.1893 -0.4038
17907TIP3    H175212   0.880   0.757   3.186 -0.2852 -0.1511 -0.9975
17907TIP3    H275213   0.855   0.808   3.326  1.4710  0.9897 -1.0700
17908TIP3   OH275214   1.473   0.234   5.607  0.0424  0.2078  0.0574
17908TIP3    H175215   1.479   0.267   5.517  0.2629  1.0628  0.3824
17908TIP3    H275216   1.562   0.243   5.641  0.1331 -0.8104  0.1322
17909TIP3   OH275217   0.934   6.723   0.815  0.5379 -0.3358 -0.2991
17909TIP3    H175218   0.960   6.752   0.728 -0.8669  0.2767 -0.5477
17909TIP3    H275219   0.930   6.804   0.867 -0.4543 -0.4417 -0.1870
17910TIP3   OH275220   1.575   5.335   4.484  0.4253  0.1139  0.7004
17910TIP3    H175221   1.599   5.394   4.556  1.6648 -0.6792  0.9779
17910TIP3    H275222   1.589   5.247   4.520 -0.3817 -0.3255 -0.0399
17911TIP3   OH275223   1.727   2.475   2.209  0.3004 -0.2371 -0.2600
17911TIP3    H175224   1.672   2.545   2.245 -0.8590 -1.4684  0.4618
17911TIP3    H275225   1.814   2.491   2.245 -0.5092 -0.6082  2.0505
17912TIP3   OH275226   0.177   6.291  13.754  0.4465  0.4985 -0.3272
17912TIP3    H175227   0.213   6.377  13.779 -0.8454  1.2103 -0.8397
17912TIP3    H275228   0.252   6.232  13.759  1.2688  1.5655  0.4757
17913TIP3   OH275229   3.968   0.153  17.003 -0.1758  0.3497  0.4111
17913TIP3    H175230   4.056   0.119  17.019 -0.9142 -2.2086 -0.5393
17913TIP3    H275231   3.925   0.150  17.088  0.5422  1.4194  0.8399
17914TIP3   OH275232   2.148   5.197  14.723 -0.1762  0.0763 -0.2922
17914TIP3    H175233   2.154   5.152  14.807 -1.6627  1.6386  0.7056
17914TIP3    H275234   2.239   5.204  14.693  0.2980 -1.2603  0.7313
17915TIP3   OH275235   3.360   4.755   4.279 -0.6346  0.0282  0.1342
17915TIP3    H175236   3.444   4.732   4.239 -1.6360  0.1834 -2.2302
17915TIP3    H275237   3.334   4.676   4.328 -0.5496 -1.2187 -1.7312
17916TIP3   OH275238   1.986   2.003   0.291 -0.3683 -0.0357  0.1988
17916TIP3    H175239   1.962   1.919   0.251 -2.3620 -0.3233  1.8418
17916TIP3    H275240   2.050   2.041   0.230  0.1336 -2.4467 -0.9029
17917TIP3   OH275241   4.538   2.645  11.574  0.5295  0.2183  0.1862
17917TIP3    H175242   4.495   2.566  11.543 -0.0511  0.5933  0.0185
17917TIP3    H275243   4.521   2.647  11.668 -0.8395  0.9579 -0.0454
17918TIP3   OH275244   1.340   3.879  15.900 -0.0771  0.1987  0.0741
17918TIP3    H175245   1.313   3.969  15.913  0.1162  0.3507 -0.5253
17918TIP3    H275246   1.390   3.880  15.818  0.9121 -0.2396  0.6415
17919TIP3   OH275247   2.246   0.826  14.881  0.0283  0.0377 -0.5098
17919TIP3    H175248   2.273   0.739  14.853 -1.3102 -0.6801  0.3150
17919TIP3    H275249   2.289   0.886  14.820 -1.0319 -1.3099 -2.6886
17920TIP3   OH275250   3.718   0.234  15.378  0.1614 -0.5195 -0.0735
17920TIP3    H175251   3.793   0.293  15.384 -0.8952  0.7474  1.6807
17920TIP3    H275252   3.651   0.275  15.433 -1.0241 -2.7804  0.2865
17921TIP3   OH275253   2.671   6.290   4.979 -0.5810 -0.1901 -0.8096
17921TIP3    H175254   2.680   6.201   4.944 -1.8905 -0.0103 -1.6635
17921TIP3    H275255   2.614   6.335   4.917 -1.0829  0.8329  0.3377
17922TIP3   OH275256   0.661   1.407  12.876  0.3770  0.0165 -0.2399
17922TIP3    H175257   0.622   1.409  12.790  2.2040  0.5560 -1.1135
17922TIP3    H275258   0.605   1.463  12.930 -0.6068 -0.0738 -1.1368
17923TIP3   OH275259   4.753   0.794   0.422  0.4269  0.2546 -0.4585
17923TIP3    H175260   4.671   0.838   0.447 -0.0087 -1.8226  2.2805
17923TIP3    H275261   4.744   0.778   0.328 -2.2323  0.2959 -0.2876
17924TIP3   OH275262   1.606   5.288   6.839 -0.5199  0.0977 -0.2488
17924TIP3    H175263   1.632   5.200   6.814  0.0882 -0.0887  0.9681
17924TIP3    H275264   1.688   5.332   6.863 -0.9350  0.6426  0.2030
17925TIP3   OH275265   6.053   4.804   1.999  0.0570  1.1569  0.0473
17925TIP3    H175266   6.015   4.863   1.933  0.1943  0.5918 -0.5443
17925TIP3    H275267   6.140   4.840   2.017 -0.7138  2.4791  1.4294
17926TIP3   OH275268   2.102   2.958   1.934  0.4302  0.2386  0.1558
17926TIP3    H175269   2.038   3.013   1.889  0.1342 -0.2300 -0.0048
17926TIP3    H275270   2.183   3.009   1.931  0.2879  0.4380 -0.4479
17927TIP3   OH275271   3.089   6.669  17.002  0.2031  0.3793 -0.5967
17927TIP3    H175272   3.120   6.580  17.017  0.5147  0.9136  2.6605
17927TIP3    H275273   3.162   6.725  17.030 -1.4625  1.6032  1.6720
17928TIP3   OH275274   2.628   2.333  13.930 -0.0448 -0.1671 -0.1910
17928TIP3    H175275   2.633   2.241  13.957 -0.4693 -0.9467 -2.5677
17928TIP3    H275276   2.610   2.330  13.837 -0.9902  2.3651 -0.1655
17929TIP3   OH275277   0.564   0.132   4.433 -0.1507  0.1134  0.4930
17929TIP3    H175278   0.549   0.100   4.344  1.9766  0.0748  0.1048
17929TIP3    H275279   0.521   0.218   4.436  2.0385  1.3918 -1.5180
17930TIP3   OH275280   4.803   1.902   3.287 -0.2206  0.1667  0.4116
17930TIP3    H175281   4.822   1.995   3.276 -0.8464  0.0987 -1.6375
17930TIP3    H275282   4.715   1.891   3.250  0.3479 -1.4494 -0.5401
17931TIP3   OH275283   6.296   0.141  11.729  0.0833 -0.7411  0.4030
17931TIP3    H175284   6.379   0.098  11.747 -0.3186 -1.1607  1.3459
17931TIP3    H275285   6.286   0.136  11.634  0.3136 -2.2717  0.4299
17932TIP3   OH275286   2.984   1.258   4.128  0.5805 -0.3648  0.1261
17932TIP3    H175287   3.016   1.318   4.060 -0.8387  0.3516  0.0404
17932TIP3    H275288   2.930   1.313   4.185 -0.0267 -1.3855  0.5690
17933TIP3   OH275289   1.781   5.508   2.344  0.0792  0.4246  0.0704
17933TIP3    H175290   1.869   5.471   2.345 -0.5868 -1.2706 -0.4163
17933TIP3    H275291   1.750   5.500   2.434  0.1755  0.4268  0.1042
17934TIP3   OH275292   4.670   5.409   6.181  0.3764  0.0942 -0.3354
17934TIP3    H175293   4.756   5.367   6.177  1.3238  2.0607 -2.3975
17934TIP3    H275294   4.643   5.396   6.272  2.8066 -0.6376  0.3834
17935TIP3   OH275295   2.498   3.647   4.666  0.1840  0.0701 -0.7822
17935TIP3    H175296   2.582   3.622   4.705  0.0006 -0.8073 -0.9230
17935TIP3    H275297   2.498   3.743   4.669  1.3883  0.1034 -1.2038
17936TIP3   OH275298   2.819   1.188   1.909  1.0807 -0.4122  0.0280
17936TIP3    H175299   2.739   1.241   1.915  0.4820 -1.3828  1.0906
17936TIP3    H275300   2.889   1.251   1.900  0.3185  0.5336  0.5415
17937TIP3   OH275301   2.825   6.643   4.454  0.1919 -0.0917 -0.3233
17937TIP3    H175302   2.754   6.614   4.396 -0.3212 -0.2385  0.3751
17937TIP3    H275303   2.866   6.716   4.406  0.8086 -1.2232 -1.6021
17938TIP3   OH275304   5.885   1.524  17.121 -0.1770 -0.1541  0.0433
17938TIP3    H175305   5.911   1.509  17.030  1.5650 -0.9223  0.6206
17938TIP3    H275306   5.885   1.437  17.160  0.9877  0.3340  1.2128
17939TIP3   OH275307   4.168   3.799  15.813  0.2239  0.5467  0.0912
17939TIP3    H175308   4.189   3.717  15.859  1.8545  0.5297 -0.6115
17939TIP3    H275309   4.113   3.848  15.875  1.1855 -0.0626  1.4769
17940TIP3   OH275310   2.147   4.514   1.334 -0.1348 -0.8865  0.5453
17940TIP3    H175311   2.133   4.602   1.298 -0.9413 -0.7762  1.0897
17940TIP3    H275312   2.073   4.464   1.301  1.9760 -2.2841 -2.4756
17941TIP3   OH275313   1.331   6.820  13.647 -0.4612 -0.1799  0.5823
17941TIP3    H175314   1.262   6.885  13.660  0.0122  0.0381  2.3056
17941TIP3    H275315   1.285   6.736  13.643 -1.2236  0.2719 -3.1623
17942TIP3   OH275316   1.619   1.781   4.851 -0.5542 -0.6532 -0.1195
17942TIP3    H175317   1.614   1.696   4.808 -0.9986 -0.7683  0.1519
17942TIP3    H275318   1.528   1.809   4.861 -0.4044 -0.0279 -0.4373
17943TIP3   OH275319   0.870   4.803   4.707  0.4767  0.1436  0.3735
17943TIP3    H175320   0.786   4.758   4.698 -0.1206  1.4059 -0.6930
17943TIP3    H275321   0.874   4.861   4.632  1.2776  1.7670  1.6048
17944TIP3   OH275322   2.554   2.819  11.287 -0.1120 -0.3998 -0.3307
17944TIP3    H175323   2.562   2.744  11.228  0.5353  0.4911 -1.4046
17944TIP3    H275324   2.501   2.882  11.238  0.2555  0.2690  0.1244
17945TIP3   OH275325   0.904   1.218   0.930  0.1364 -0.2852  0.6240
17945TIP3    H175326   0.938   1.129   0.942  0.5500 -0.2834 -0.3814
17945TIP3    H275327   0.812   1.206   0.909  0.3457 -0.5269 -0.1778
17946TIP3   OH275328   3.848   1.641  10.620  0.0789  0.1698 -0.3278
17946TIP3    H175329   3.914   1.646  10.551  1.1402 -0.5960  0.6083
17946TIP3    H275330   3.864   1.718  10.674 -1.3456  1.2767 -1.4104
17947TIP3   OH275331   4.466   4.112  16.992  0.3835  0.3957  0.8653
17947TIP3    H175332   4.392   4.171  16.981 -0.9182 -0.7403  2.9473
17947TIP3    H275333   4.509   4.142  17.072  2.6614  1.4705 -0.6712
17948TIP3   OH275334   0.400   2.705   5.190  0.2782 -0.0042  0.3431
17948TIP3    H175335   0.378   2.699   5.097  1.6698  0.8310 -0.0718
17948TIP3    H275336   0.321   2.678   5.235 -0.6800  0.3184 -1.0782
17949TIP3   OH275337   3.262   5.756  13.185 -0.1279  0.3959 -0.2740
17949TIP3    H175338   3.238   5.842  13.152  0.5614 -0.1677 -2.4406
17949TIP3    H275339   3.181   5.721  13.222 -1.6456  0.2941 -3.3450
17950TIP3   OH275340   6.798   5.074   1.510  0.2645 -0.1646 -0.7283
17950TIP3    H175341   6.716   5.119   1.492 -0.1096 -0.4000  0.3209
17950TIP3    H275342   6.792   4.992   1.461  1.5195  1.4093 -3.7663
17951TIP3   OH275343   1.608   5.979  11.897 -0.0982 -0.5595  0.3527
17951TIP3    H175344   1.529   5.937  11.931 -0.4556  0.4423  0.7962
17951TIP3    H275345   1.623   5.937  11.812 -2.0738  0.3741 -0.5207
17952TIP3   OH275346   3.451   5.054   4.686  0.1350  1.0816 -0.3090
17952TIP3    H175347   3.379   4.997   4.658 -0.0318  1.5734 -0.9047
17952TIP3    H275348   3.438   5.135   4.636  0.5699  1.5149  0.2683
17953TIP3   OH275349   0.017   5.520  16.246 -0.7497 -0.1063  0.2634
17953TIP3    H175350   0.090   5.554  16.297  0.7727 -0.8540 -1.2833
17953TIP3    H275351  -0.023   5.597  16.206  1.2261  0.1779 -1.3770
17954TIP3   OH275352   4.446   1.961   2.600  0.3223 -0.1433 -0.4669
17954TIP3    H175353   4.363   1.966   2.647  0.0712  1.1087 -0.9982
17954TIP3    H275354   4.491   2.043   2.623  0.4587  0.2043 -1.8810
17955TIP3   OH275355   1.792   1.619   2.493 -0.0825 -0.1370 -0.2164
17955TIP3    H175356   1.794   1.544   2.433  0.2304 -0.4819  0.2182
17955TIP3    H275357   1.842   1.590   2.569 -0.6059  0.2480  0.2781
17956TIP3   OH275358   0.858   0.176   0.175 -0.3822  0.0039 -0.7249
17956TIP3    H175359   0.867   0.136   0.089  1.6242  0.2183 -0.6538
17956TIP3    H275360   0.916   0.252   0.173 -1.0508  0.5769  0.4980
17957TIP3   OH275361   4.656   6.006  14.236 -0.3333  0.1943  0.2203
17957TIP3    H175362   4.695   6.073  14.179  0.6663  1.0607  1.8500
17957TIP3    H275363   4.706   5.927  14.218 -1.5423 -0.1865 -1.7456
17958TIP3   OH275364   4.688   4.454   3.299 -0.0325  0.0496  0.3858
17958TIP3    H175365   4.615   4.427   3.243 -0.3535 -2.2250  1.7734
17958TIP3    H275366   4.766   4.423   3.252  0.1874  2.8078 -1.2810
17959TIP3   OH275367   3.297   0.958  13.632  0.2788  0.1739 -0.7261
17959TIP3    H175368   3.226   1.020  13.653 -0.6336 -1.0355 -0.1006
17959TIP3    H275369   3.320   0.978  13.541  0.2035  1.5970 -0.4585
17960TIP3   OH275370   3.457   3.782  12.846  0.0755 -0.0404  0.1681
17960TIP3    H175371   3.547   3.773  12.813 -0.0143  1.9396 -0.7508
17960TIP3    H275372   3.403   3.782  12.768 -0.6148  0.0591  0.6393
17961TIP3   OH275373   1.578   5.053   1.706  0.1714  0.2724 -0.1508
17961TIP3    H175374   1.575   5.147   1.727  1.0895  0.3401 -0.2849
17961TIP3    H275375   1.513   5.043   1.636  1.4137  1.1954 -1.5063
17962TIP3   OH275376   1.580   4.297  12.787  0.7356  0.1542  0.4456
17962TIP3    H175377   1.532   4.363  12.837  0.7536 -1.6375  2.9972
17962TIP3    H275378   1.664   4.290  12.831  0.6236 -1.7357  0.4148
17963TIP3   OH275379   4.813   1.829   0.818 -0.2836  0.8772 -0.0287
17963TIP3    H175380   4.866   1.887   0.873 -1.8626  1.3670  1.0327
17963TIP3    H275381   4.733   1.879   0.799 -1.0213 -0.3824 -0.3677
17964TIP3   OH275382   5.124   4.073   3.770  0.8456 -0.6626 -0.3729
17964TIP3    H175383   5.212   4.107   3.753  0.5898 -0.6356 -1.8084
17964TIP3    H275384   5.066   4.148   3.755  0.5811 -0.5916  0.8858
17965TIP3   OH275385   2.934   1.800  14.987 -0.6419 -0.4239 -0.1255
17965TIP3    H175386   2.999   1.730  14.997 -0.8576 -0.8077 -1.2929
17965TIP3    H275387   2.984   1.881  14.990  0.0673 -0.7465 -2.2060
17966TIP3   OH275388   4.734   5.541   0.731 -0.4759  0.2380  0.4859
17966TIP3    H175389   4.757   5.516   0.821 -0.1579  0.0950  0.3672
17966TIP3    H275390   4.666   5.608   0.742  0.1029  0.7867  0.8542
17967TIP3   OH275391   4.580   6.575   0.693  0.5601 -0.0169  0.5593
17967TIP3    H175392   4.630   6.612   0.765 -1.1510 -1.4145  2.6237
17967TIP3    H275393   4.496   6.551   0.733 -1.0953  0.5858 -2.2867
17968TIP3   OH275394   5.047   5.108  12.550 -0.4330 -0.1097 -0.2930
17968TIP3    H175395   4.955   5.119  12.523 -0.2963 -0.9510 -1.1328
17968TIP3    H275396   5.098   5.147  12.479 -0.1305  0.3358  0.1613
17969TIP3   OH275397   0.132   2.171  17.113  0.2446  0.4620 -0.1953
17969TIP3    H175398   0.039   2.196  17.112  0.2556  0.4996 -0.3242
17969TIP3    H275399   0.142   2.117  17.192  0.4540  1.7806  0.7119
17970TIP3   OH275400   2.499   2.056  11.467  0.2431 -0.1702 -0.2628
17970TIP3    H175401   2.521   2.005  11.388 -1.4271  1.7396 -2.0870
17970TIP3    H275402   2.562   2.128  11.467  1.1822 -0.9479  1.0534
17971TIP3   OH275403   6.223   0.190  15.750  0.0783 -0.0440  0.4950
17971TIP3    H175404   6.240   0.283  15.736  2.1494 -0.5191 -0.4955
17971TIP3    H275405   6.164   0.188  15.825 -0.1347  2.0603  0.4482
17972TIP3   OH275406   4.785   6.137   2.593  0.2168  0.1263  0.5404
17972TIP3    H175407   4.789   6.214   2.537  1.5404  1.2203  2.0440
17972TIP3    H275408   4.691   6.126   2.610 -0.1627  0.1172 -1.3527
17973TIP3   OH275409   4.614   5.853  13.810 -0.0201 -0.2877 -0.3473
17973TIP3    H175410   4.672   5.817  13.742  0.6132  1.1161 -0.5747
17973TIP3    H275411   4.581   5.776  13.856  1.0125 -1.1768 -1.0514
17974TIP3   OH275412   2.628   1.532  14.413  0.0928 -0.2287  0.4112
17974TIP3    H175413   2.699   1.595  14.421 -1.4165  1.5590  0.5694
17974TIP3    H275414   2.622   1.513  14.320 -0.1107  0.7137  0.2244
17975TIP3   OH275415   5.271   3.261   3.605 -0.7566 -0.7454 -0.2634
17975TIP3    H175416   5.213   3.294   3.536  0.2109 -2.2825 -1.8869
17975TIP3    H275417   5.226   3.183   3.638  0.1575 -1.6997 -1.2329
17976TIP3   OH275418   2.178   1.133  12.864  0.0302  0.4569 -0.2045
17976TIP3    H175419   2.187   1.047  12.823  0.3832  0.0826  0.6287
17976TIP3    H275420   2.216   1.122  12.951  0.6878  1.6418 -0.3245
17977TIP3   OH275421   3.197   3.029  13.986  0.0906 -0.0395 -0.2233
17977TIP3    H175422   3.117   3.036  14.037 -0.4216 -0.4621 -0.9514
17977TIP3    H275423   3.175   2.970  13.913  0.0571  2.3813 -2.3151
17978TIP3   OH275424   5.244   6.401  15.486  1.0057  0.2114 -0.1009
17978TIP3    H175425   5.302   6.378  15.413 -0.8382 -0.4926 -1.4161
17978TIP3    H275426   5.202   6.483  15.459  1.7236  1.0084  1.0763
17979TIP3   OH275427   1.453   5.247   1.347 -0.0070 -0.2400 -0.4665
17979TIP3    H175428   1.483   5.277   1.261 -0.0907  0.2650 -0.3242
17979TIP3    H275429   1.533   5.241   1.399 -0.1896  2.0679  0.2095
17980TIP3   OH275430   3.211   2.265   4.048 -0.1020 -0.3935 -0.0440
17980TIP3    H175431   3.267   2.203   4.095  1.7037  1.2800  0.0876
17980TIP3    H275432   3.243   2.351   4.073 -1.0095  0.5997 -2.0786
17981TIP3   OH275433   2.740   3.899  16.200  0.1560  0.3381 -0.1136
17981TIP3    H175434   2.787   3.965  16.250 -0.6910 -0.2955  1.5707
17981TIP3    H275435   2.783   3.816  16.224 -0.2498  0.0243 -0.4519
17982TIP3   OH275436   5.494   6.319   0.976  0.1866  0.2211  0.1419
17982TIP3    H175437   5.480   6.238   0.927  1.4357  0.6666 -1.0133
17982TIP3    H275438   5.461   6.300   1.064 -0.8288 -1.0645 -0.4811
17983TIP3   OH275439   3.190   1.134   5.177 -0.1816 -0.1180  0.2685
17983TIP3    H175440   3.188   1.188   5.257 -2.4941  0.2891  0.0056
17983TIP3    H275441   3.280   1.141   5.146  0.1267  1.8605  1.4265
17984TIP3   OH275442   4.046   2.766   3.176  0.1396 -0.0613 -0.0907
17984TIP3    H175443   4.015   2.694   3.231 -0.1140  0.7920  0.9032
17984TIP3    H275444   4.052   2.841   3.235 -1.0444  1.1219 -1.4001
17985TIP3   OH275445   2.110   4.477   1.701  0.5276 -0.0526 -0.0779
17985TIP3    H175446   2.128   4.424   1.779  1.2010  0.3110  0.0318
17985TIP3    H275447   2.064   4.554   1.735  1.1112  0.2636  0.0206
17986TIP3   OH275448   0.966   5.845  14.795  0.3249  0.0578  0.2134
17986TIP3    H175449   0.997   5.924  14.750 -2.3143  0.8814 -0.3445
17986TIP3    H275450   0.912   5.801  14.730 -0.0017 -1.0827  1.2310
17987TIP3   OH275451   5.832   3.757  11.362  0.5735 -0.3220  0.2712
17987TIP3    H175452   5.909   3.704  11.382  1.1956  1.3136  2.6978
17987TIP3    H275453   5.864   3.847  11.363 -0.9154  0.2743 -1.2779
17988TIP3   OH275454   3.112   1.765  13.731  0.5627  0.0723 -0.0551
17988TIP3    H175455   3.109   1.751  13.636 -1.3169 -2.0105  0.2534
17988TIP3    H275456   3.132   1.858  13.740 -3.4058  1.3939 -2.5954
17989TIP3   OH275457   1.382   0.258   2.894 -0.5124  0.3251 -0.0942
17989TIP3    H175458   1.431   0.296   2.966  3.2823 -0.7750 -1.8260
17989TIP3    H275459   1.347   0.176   2.929 -0.1546  0.6051  0.9405
17990TIP3   OH275460   4.085   4.850   3.387 -0.3372  0.2080  0.6411
17990TIP3    H175461   4.070   4.886   3.300 -0.8628 -1.0229  0.1901
17990TIP3    H275462   3.997   4.840   3.424 -0.5118 -2.8511 -0.2467
17991TIP3   OH275463   6.575   2.383  16.029 -0.4298  0.5831 -0.1610
17991TIP3    H175464   6.601   2.291  16.023 -1.7097  0.1603  0.3885
17991TIP3    H275465   6.582   2.416  15.940  1.7443  0.4515 -0.0738
17992TIP3   OH275466   5.798   0.642  14.472  0.0973 -0.0950  0.3708
17992TIP3    H175467   5.755   0.650  14.557  1.3913 -1.7890  1.2618
17992TIP3    H275468   5.883   0.685  14.483  0.0466  0.1741 -0.2432
17993TIP3   OH275469   1.843   2.247  13.977 -0.1085  0.3749  0.0843
17993TIP3    H175470   1.821   2.304  13.903  1.7359  0.7686 -0.2018
17993TIP3    H275471   1.852   2.160  13.938  0.2019  0.4625 -0.0415
17994TIP3   OH275472   6.809   4.068   6.282  0.6250  0.0140  0.4824
17994TIP3    H175473   6.809   4.096   6.190  0.8329  2.3649  1.1197
17994TIP3    H275474   6.716   4.065   6.305  0.6063  1.0895  0.6139
17995TIP3   OH275475   0.660   4.322  10.807  0.2699 -0.0735  0.1215
17995TIP3    H175476   0.570   4.332  10.839 -0.4700 -0.0301 -1.8673
17995TIP3    H275477   0.691   4.412  10.798  0.3403 -0.0760  0.3347
17996TIP3   OH275478   2.476   6.612   4.666  0.0634  0.9682  0.1266
17996TIP3    H175479   2.392   6.599   4.709 -0.4847  1.4135 -0.7794
17996TIP3    H275480   2.460   6.680   4.601  0.7845  0.0998 -0.9963
17997TIP3   OH275481   3.237   4.621   0.970 -0.0662  0.1857  1.0061
17997TIP3    H175482   3.325   4.660   0.976  0.5198  0.0157 -3.3195
17997TIP3    H275483   3.184   4.689   0.928 -1.6134 -0.3075  2.1036
17998TIP3   OH275484   0.948   6.668  10.642  0.0159  0.8682 -0.1967
17998TIP3    H175485   0.930   6.655  10.735 -0.7067  0.4194 -0.3901
17998TIP3    H275486   0.865   6.699  10.606  0.3371  1.1984 -0.6696
17999TIP3   OH275487   4.652   4.656  13.144 -0.5078  0.2319  0.1188
17999TIP3    H175488   4.708   4.729  13.117 -2.0493  0.9484 -1.3884
17999TIP3    H275489   4.635   4.672  13.236 -0.2987  1.4342 -0.0277
18000TIP3   OH275490   5.928   0.059  12.727 -0.2558  0.5040  0.6823
18000TIP3    H175491   5.887   0.100  12.803 -0.9596  1.6724 -0.3015
18000TIP3    H275492   5.855   0.031  12.672  0.2406 -0.4020  0.4518
18001TIP3   OH275493   3.652   5.357  16.558  0.4593  0.3205  0.6588
18001TIP3    H175494   3.600   5.437  16.551 -0.0193 -0.0302  0.0896
18001TIP3    H275495   3.715   5.363  16.486 -0.1399 -0.2035  0.0711
18002TIP3   OH275496   1.094   3.466  14.891 -0.1316 -0.0682 -0.9490
18002TIP3    H175497   1.127   3.399  14.950 -0.1982 -0.6897 -1.6085
18002TIP3    H275498   1.060   3.418  14.816 -0.4621  0.6860 -1.2977
18003TIP3   OH275499   0.542   5.386  13.012 -0.0250  0.5148  0.0254
18003TIP3    H175500   0.570   5.306  12.967  0.3369 -0.7735  2.3617
18003TIP3    H275501   0.551   5.455  12.946  1.0820 -1.1158 -1.6517
18004TIP3   OH275502   3.695   3.984   3.847  0.2326  0.0791  0.1069
18004TIP3    H175503   3.666   4.075   3.850  0.1917  0.1305 -1.2833
18004TIP3    H275504   3.741   3.976   3.764 -1.9337 -1.7832 -1.0233
18005TIP3   OH275505   2.061   1.451   2.666 -0.0232  0.8280 -0.2364
18005TIP3    H175506   2.143   1.413   2.698 -1.3678 -1.7838  0.4306
18005TIP3    H275507   2.078   1.471   2.574  1.3128  0.1179 -0.1645
18006TIP3   OH275508   3.760   5.528   2.558  0.1022  0.0711  0.4867
18006TIP3    H175509   3.821   5.457   2.537  0.0810 -0.2915  1.6185
18006TIP3    H275510   3.685   5.512   2.501  1.7359  1.6102 -2.4062
18007TIP3   OH275511   2.742   0.795   4.509 -0.5646  0.2463  0.0708
18007TIP3    H175512   2.667   0.832   4.556  0.7754  2.3368  0.7189
18007TIP3    H275513   2.815   0.801   4.571  0.3659 -0.7548 -0.8882
18008TIP3   OH275514   0.726   3.993   2.586  0.4751  0.8240  0.3505
18008TIP3    H175515   0.776   3.978   2.505  0.0695  0.0757  0.2329
18008TIP3    H275516   0.782   4.051   2.638  0.2203  2.2752 -0.9473
18009TIP3   OH275517   2.732   4.236  11.690 -0.5182  0.5235  0.0486
18009TIP3    H175518   2.688   4.204  11.611 -0.4389 -0.4497  0.3883
18009TIP3    H275519   2.825   4.227  11.671 -0.4679  1.4744 -0.2153
18010TIP3   OH275520   5.318   2.248  13.706  0.0472 -0.6680  0.3804
18010TIP3    H175521   5.350   2.224  13.619  0.3649 -0.0130  0.3067
18010TIP3    H275522   5.395   2.285  13.751 -0.0315 -1.3021  1.0600
18011TIP3   OH275523   5.348   0.515   4.471 -0.0137 -0.4520 -0.1361
18011TIP3    H175524   5.413   0.573   4.431  1.4419 -2.0094 -0.1280
18011TIP3    H275525   5.279   0.574   4.501  1.9455  1.4402  0.9642
18012TIP3   OH275526   0.431   6.093  10.821 -0.1025 -0.2253 -0.0531
18012TIP3    H175527   0.487   6.156  10.866 -1.0276  0.3034  0.3876
18012TIP3    H275528   0.488   6.019  10.801  0.5742 -0.0065  1.0384
18013TIP3   OH275529   1.065   5.920   1.695 -0.1379  0.4408  0.3508
18013TIP3    H175530   1.110   5.896   1.614 -0.0682 -0.1454  0.5557
18013TIP3    H275531   1.056   5.837   1.743 -1.9543  0.4220  0.0553
18014TIP3   OH275532   0.083   1.158  15.847  0.8897  0.0508  0.3931
18014TIP3    H175533   0.050   1.248  15.841  0.7195 -0.1048 -1.6902
18014TIP3    H275534   0.172   1.168  15.878 -0.2211  0.6420  3.7772
18015TIP3   OH275535   5.752   3.768   2.334  0.1931  0.0302  0.3081
18015TIP3    H175536   5.674   3.822   2.321  0.6700  0.6112 -0.1746
18015TIP3    H275537   5.806   3.819   2.396 -0.1157 -0.6976  1.2056
18016TIP3   OH275538   6.207   2.910   2.728 -0.2016 -0.3769  0.2479
18016TIP3    H175539   6.178   2.987   2.778  0.4510  1.1941 -1.6394
18016TIP3    H275540   6.126   2.877   2.688 -0.1379  1.3210 -1.4605
18017TIP3   OH275541   2.373   1.423  16.738 -0.0132 -0.8705 -0.4393
18017TIP3    H175542   2.428   1.420  16.660  0.8608  2.6734 -0.1300
18017TIP3    H275543   2.295   1.469  16.711 -1.0208 -2.1564  0.1535
18018TIP3   OH275544   4.439   0.661  13.109 -0.4518 -0.2917 -0.5086
18018TIP3    H175545   4.495   0.591  13.141 -1.5702 -0.6154  0.8354
18018TIP3    H275546   4.467   0.739  13.157 -0.9570 -0.4067 -0.0043
18019TIP3   OH275547   4.695   4.585  12.278  0.2980 -0.0068 -0.6798
18019TIP3    H175548   4.601   4.594  12.260 -0.0536  1.0081  1.3141
18019TIP3    H275549   4.722   4.508  12.227 -1.0453  1.0688 -3.2076
18020TIP3   OH275550   4.577   0.041  12.849  0.2122 -0.0242  0.4731
18020TIP3    H175551   4.625   0.120  12.824  1.5093 -0.8381  0.3125
18020TIP3    H275552   4.550   0.057  12.939  0.6423  0.5109  0.5170
18021TIP3   OH275553   6.265   1.285  16.566 -0.5683 -0.3454  0.7775
18021TIP3    H175554   6.358   1.266  16.558 -0.4176  0.4110  0.6857
18021TIP3    H275555   6.259   1.353  16.633 -1.0124 -0.0949  0.4913
18022TIP3   OH275556   2.739   5.652  16.822 -0.3886 -0.1812  0.0380
18022TIP3    H175557   2.749   5.717  16.753 -0.9645 -1.1934 -1.0348
18022TIP3    H275558   2.829   5.631  16.848 -0.1639  0.1672 -0.4367
18023TIP3   OH275559   5.347   2.870   1.668 -0.8463  0.2539 -0.0081
18023TIP3    H175560   5.411   2.913   1.726 -0.2192  0.8182 -1.0793
18023TIP3    H275561   5.339   2.930   1.594  0.9986 -2.0088 -2.1813
18024TIP3   OH275562   6.773   0.020  11.958  0.2309 -0.3386  0.4004
18024TIP3    H175563   6.693   0.025  12.010  0.5250  0.7728  0.7868
18024TIP3    H275564   6.746   0.049  11.871  0.1136 -0.4081  0.4140
18025TIP3   OH275565   2.265   2.159   3.782  0.0843  0.1548 -0.0591
18025TIP3    H175566   2.355   2.166   3.750  1.2055 -2.1564  2.1652
18025TIP3    H275567   2.232   2.078   3.743 -0.3783  0.0422  0.5507
18026TIP3   OH275568   5.130   4.063   4.286  0.1246  0.4418 -0.6230
18026TIP3    H175569   5.179   3.981   4.278 -0.0881  0.2492 -0.0339
18026TIP3    H275570   5.193   4.126   4.320 -0.1436  0.0757  0.5840
18027TIP3   OH275571   0.293   4.165   5.202  0.7276 -0.0117  0.4203
18027TIP3    H175572   0.282   4.252   5.164 -2.4009 -1.3696 -2.3834
18027TIP3    H275573   0.228   4.162   5.272  1.4559  0.1656  1.1115
18028TIP3   OH275574   4.584   2.446   0.820 -0.0127 -0.3277 -0.4335
18028TIP3    H175575   4.546   2.534   0.812 -0.6083 -0.4701  0.6285
18028TIP3    H275576   4.651   2.456   0.887  1.0558 -0.3417 -1.4712
18029TIP3   OH275577   2.057   5.985  13.512  0.4901 -0.6539 -0.3279
18029TIP3    H175578   2.092   6.028  13.434  2.8362 -0.7623  0.5663
18029TIP3    H275579   2.036   6.057  13.572 -2.5119 -0.5027 -1.4329
18030TIP3   OH275580   1.439   0.611  13.341 -0.1699 -0.1624 -0.1446
18030TIP3    H175581   1.366   0.671  13.355 -0.6556 -0.8034  0.1438
18030TIP3    H275582   1.431   0.548  13.412 -0.1262 -1.0019 -0.8711
18031TIP3   OH275583   4.206   3.805  13.815  0.6854  0.1596  0.4677
18031TIP3    H175584   4.282   3.817  13.758 -0.0875  1.4761 -0.3432
18031TIP3    H275585   4.131   3.823  13.759 -0.2517 -1.2975  1.2096
18032TIP3   OH275586   3.373   2.618  10.773 -0.1716  0.1114  0.4141
18032TIP3    H175587   3.282   2.631  10.801 -0.9172 -0.1730 -1.6790
18032TIP3    H275588   3.388   2.687  10.709 -0.3735 -2.2271 -2.3456
18033TIP3   OH275589   5.194   4.055  14.031 -0.2382 -0.2085  0.6494
18033TIP3    H175590   5.281   4.039  14.069  1.0760  1.2810 -1.4821
18033TIP3    H275591   5.137   4.067  14.106  1.9486  1.4262  2.1876
18034TIP3   OH275592   6.177   1.934  14.306  0.2976  0.1324  0.0794
18034TIP3    H175593   6.232   1.918  14.229 -0.5602 -0.8982 -0.3437
18034TIP3    H275594   6.212   1.877  14.374 -0.5351 -0.9331 -0.3502
18035TIP3   OH275595   5.358   4.651   2.414 -0.6019 -0.4914  0.1232
18035TIP3    H175596   5.344   4.743   2.438 -1.1235 -0.6667  0.5180
18035TIP3    H275597   5.440   4.651   2.365 -0.7704  0.2353 -0.1680
18036TIP3   OH275598   2.264   6.650  12.457  0.1998 -0.6520  0.0786
18036TIP3    H175599   2.244   6.585  12.524 -2.1711  0.3277  0.4197
18036TIP3    H275600   2.229   6.612  12.376  2.6321 -1.6221 -0.5953
18037TIP3   OH275601   1.548   6.441   3.159  0.1100  0.1519 -0.1353
18037TIP3    H175602   1.601   6.492   3.221 -1.6454 -1.0218  2.5062
18037TIP3    H275603   1.457   6.461   3.183 -0.6358 -1.1164 -1.7123
18038TIP3   OH275604   0.072   2.293  13.832 -0.3129 -0.4403  0.0042
18038TIP3    H175605   0.118   2.307  13.915 -0.6031 -1.2637  0.3223
18038TIP3    H275606   0.098   2.367  13.777  2.3525 -1.4754 -0.2759
18039TIP3   OH275607   2.078   5.791  13.744  0.0123 -0.5416  0.1769
18039TIP3    H175608   2.015   5.727  13.712  0.4552 -0.8709 -0.0488
18039TIP3    H275609   2.075   5.862  13.679  1.2783 -1.4369 -0.9092
18040TIP3   OH275610   5.481   5.517   0.182  0.0736 -0.2971 -0.3604
18040TIP3    H175611   5.489   5.521   0.278 -0.7677  0.0752 -0.2925
18040TIP3    H275612   5.472   5.608   0.155  1.3791 -0.3155 -0.9158
18041TIP3   OH275613   0.615   3.218  14.743  0.0742 -0.0833  0.1065
18041TIP3    H175614   0.574   3.144  14.699 -0.3806  1.1146 -1.5589
18041TIP3    H275615   0.604   3.292  14.683  0.8394  1.2693  1.5407
18042TIP3   OH275616   2.841   5.467  13.883  0.5092 -0.3964 -0.3269
18042TIP3    H175617   2.754   5.458  13.922  0.7314 -1.4770 -0.0506
18042TIP3    H275618   2.825   5.500  13.795  0.0155  2.3907  0.7062
18043TIP3   OH275619   3.713   6.554  15.674  0.0535  0.1708 -0.2627
18043TIP3    H175620   3.709   6.615  15.748  0.8302 -1.4167  1.1592
18043TIP3    H275621   3.802   6.521  15.675 -0.4237 -1.2050 -0.7827
18044TIP3   OH275622   1.409   3.527  13.659  0.2693 -0.1166  0.4113
18044TIP3    H175623   1.458   3.544  13.578  1.5086 -1.3164  0.8718
18044TIP3    H275624   1.318   3.517  13.630  0.2923  1.8274 -0.5093
18045TIP3   OH275625   3.596   4.934   0.875 -0.3708  0.3555 -0.7216
18045TIP3    H175626   3.645   4.992   0.934  2.3945 -0.9570 -1.5488
18045TIP3    H275627   3.586   4.985   0.794  3.7472 -0.7160 -2.1400
18046TIP3   OH275628   1.026   1.452  13.935  0.3887  0.4891  0.3663
18046TIP3    H175629   1.087   1.400  13.883 -1.2916  0.1840 -1.4092
18046TIP3    H275630   1.023   1.408  14.020  0.9641 -0.7842 -0.2467
18047TIP3   OH275631   1.059   0.422  10.696 -0.5345 -0.6871  0.4554
18047TIP3    H175632   1.039   0.508  10.733  2.5476  0.3163  0.0497
18047TIP3    H275633   1.003   0.416  10.618 -0.1388  1.4218 -0.0684
18048TIP3   OH275634   3.777   4.078  12.658  0.1076 -0.1719 -0.3546
18048TIP3    H175635   3.682   4.069  12.665  0.0194  1.3145  1.0972
18048TIP3    H275636   3.791   4.138  12.585 -0.2605  1.6388  0.9972
18049TIP3   OH275637   1.878   6.226   4.164 -0.3516 -0.4030 -0.0177
18049TIP3    H175638   1.884   6.210   4.070  0.7796  0.9461 -0.2188
18049TIP3    H275639   1.822   6.303   4.172  0.4176  0.1444  0.2991
18050TIP3   OH275640   4.103   1.574  13.502 -0.1529 -0.0096 -0.6762
18050TIP3    H175641   4.140   1.657  13.533 -1.2617  0.6719 -1.1147
18050TIP3    H275642   4.144   1.560  13.417 -0.5768  0.5189 -0.9702
18051TIP3   OH275643   3.976   0.453   0.523 -0.1664  0.2103 -0.3515
18051TIP3    H175644   4.042   0.385   0.514  0.2931  0.7709 -1.5163
18051TIP3    H275645   3.913   0.436   0.453 -2.3540 -1.4080  1.8225
18052TIP3   OH275646   0.715   1.434   3.799  0.1691  0.1949 -0.0737
18052TIP3    H175647   0.734   1.510   3.744 -0.5542  0.4398  0.0024
18052TIP3    H275648   0.795   1.381   3.794 -0.1611 -0.1917 -1.9960
18053TIP3   OH275649   3.927   1.012   3.328 -0.3292 -0.2405  0.1035
18053TIP3    H175650   3.992   1.082   3.331 -0.7471  0.1766 -0.3105
18053TIP3    H275651   3.881   1.026   3.245 -0.2069 -1.1998 -0.1404
18054TIP3   OH275652   5.563   3.350  17.191 -0.6899 -0.1273 -0.3495
18054TIP3    H175653   5.480   3.321  17.153 -0.4324  0.2025 -1.2003
18054TIP3    H275654   5.628   3.332  17.123 -0.4825  2.1367 -0.8319
18055TIP3   OH275655   0.924   1.379   2.840 -0.1771 -0.0366 -0.2093
18055TIP3    H175656   0.942   1.305   2.782 -0.4122 -0.5705  0.3778
18055TIP3    H275657   0.837   1.409   2.815 -0.8722 -1.1549  0.7634
18056TIP3   OH275658   6.303   4.890  11.224  0.2901 -0.4806  0.6795
18056TIP3    H175659   6.331   4.889  11.133 -0.5270 -1.0162  0.4152
18056TIP3    H275660   6.279   4.981  11.242 -2.1238 -0.8041 -0.5002
18057TIP3   OH275661   3.354   0.803   1.327 -0.8295 -0.0837 -0.4591
18057TIP3    H175662   3.403   0.833   1.250 -1.4820  0.3711 -0.7126
18057TIP3    H275663   3.420   0.769   1.386  0.2369  3.3388  0.5629
18058TIP3   OH275664   5.246   0.357  14.664 -0.0154 -0.0409 -0.4697
18058TIP3    H175665   5.230   0.363  14.758 -1.0021 -1.5020 -0.5060
18058TIP3    H275666   5.341   0.352  14.656  0.0593 -0.3357  0.4803
18059TIP3   OH275667   5.677   3.582  11.505  0.2627 -1.0133 -0.0782
18059TIP3    H175668   5.642   3.512  11.450 -1.7792 -0.3027  0.2461
18059TIP3    H275669   5.728   3.637  11.445  1.4259 -2.4310 -0.4333
18060TIP3   OH275670   1.822   5.901  13.892 -0.5284  0.0060  0.2724
18060TIP3    H175671   1.878   5.979  13.898  2.5075 -1.7772 -2.1018
18060TIP3    H275672   1.768   5.916  13.814  0.4286 -0.4182 -0.4929
18061TIP3   OH275673   4.405   3.124  12.904  0.1639 -0.2354 -0.1795
18061TIP3    H175674   4.475   3.190  12.898 -1.2275  1.1615 -3.3968
18061TIP3    H275675   4.337   3.166  12.958 -0.1130  0.4034 -1.0051
18062TIP3   OH275676   6.205   3.283   4.967  0.6219  0.1005 -0.0274
18062TIP3    H175677   6.246   3.211   4.919 -1.0298 -0.9031 -0.0019
18062TIP3    H275678   6.218   3.360   4.911  2.2759 -0.2008 -0.1264
18063TIP3   OH275679   6.317   1.119  10.482  0.8033  0.1075 -0.2648
18063TIP3    H175680   6.222   1.128  10.494  0.9736  0.3650  0.9990
18063TIP3    H275681   6.329   1.028  10.456  0.1569  0.2332 -1.0346
18064TIP3   OH275682   2.584   6.704   0.991  0.0297 -0.2140  0.1533
18064TIP3    H175683   2.636   6.776   0.954 -0.5408 -0.0340 -0.3088
18064TIP3    H275684   2.520   6.747   1.046 -1.4084 -0.2122 -1.4248
18065TIP3   OH275685   5.900   0.396  11.636 -0.2182  0.6259 -0.2784
18065TIP3    H175686   5.866   0.451  11.565 -1.5262 -1.6923 -1.5941
18065TIP3    H275687   5.847   0.420  11.712 -2.5587 -0.4884 -1.4566
18066TIP3   OH275688   3.091   3.975  15.754  0.0789 -0.2435  0.6818
18066TIP3    H175689   3.125   4.061  15.728  1.2238 -1.2794 -1.4776
18066TIP3    H275690   2.996   3.983  15.743  0.3942 -0.4300 -3.8566
18067TIP3   OH275691   0.715   2.737   1.542 -0.5152  0.3734  0.0549
18067TIP3    H175692   0.765   2.672   1.492  0.5854  0.8223  0.5553
18067TIP3    H275693   0.649   2.769   1.480 -0.1124 -0.1337 -0.6549
18068TIP3   OH275694   1.216   4.902  14.123  0.2444  0.1137  0.7606
18068TIP3    H175695   1.242   4.949  14.044  0.5554 -1.1747  0.0632
18068TIP3    H275696   1.275   4.935  14.191 -0.9389  2.2347  0.8171
18069TIP3   OH275697   1.771   0.251  14.238  0.5232 -0.2537  0.3327
18069TIP3    H175698   1.774   0.323  14.175 -1.8662 -0.6355 -0.2920
18069TIP3    H275699   1.701   0.194  14.207 -0.5368 -0.6483  3.1424
18070TIP3   OH275700   3.863   5.869   1.525 -0.2343 -0.2634  0.1050
18070TIP3    H175701   3.842   5.776   1.531 -0.7052 -0.2072 -0.5130
18070TIP3    H275702   3.958   5.873   1.531 -0.1475 -0.8651 -0.7011
18071TIP3   OH275703   3.491   5.969  14.954  0.2677 -0.0512 -0.0719
18071TIP3    H175704   3.410   6.020  14.957 -0.1506 -0.6773 -0.4536
18071TIP3    H275705   3.519   5.975  14.862 -0.1572 -1.0621 -0.2800
18072TIP3   OH275706   6.400   0.977  15.525 -0.3130  0.1169  0.5791
18072TIP3    H175707   6.432   1.063  15.552 -0.2675  0.2937 -0.0255
18072TIP3    H275708   6.332   0.956  15.588 -0.9486  1.0015  0.2035
18073TIP3   OH275709   4.050   1.276  12.935  0.1592  0.0102 -0.4004
18073TIP3    H175710   4.115   1.345  12.917 -0.5025  0.5947 -0.5785
18073TIP3    H275711   4.091   1.196  12.901  1.5481  0.0381  1.0717
18074TIP3   OH275712   1.693   6.091  11.098 -0.1862 -0.2946  0.1625
18074TIP3    H175713   1.752   6.166  11.096  0.5963 -0.8880  0.6223
18074TIP3    H275714   1.681   6.068  11.006  1.3398 -0.9700  0.1133
18075TIP3   OH275715   5.630   2.197  12.691  0.0339 -0.0824  0.0793
18075TIP3    H175716   5.703   2.137  12.703  1.2756  1.8455  3.7448
18075TIP3    H275717   5.671   2.279  12.662 -1.1694  0.1256 -1.1711
18076TIP3   OH275718   2.358   3.510   5.008 -0.3311  0.4053  0.0071
18076TIP3    H175719   2.436   3.454   5.017 -0.0920  0.4752 -1.2949
18076TIP3    H275720   2.384   3.576   4.943 -1.0659  1.2001  0.5061
18077TIP3   OH275721   1.669   3.830  10.895  0.0148  0.1173 -0.6134
18077TIP3    H175722   1.603   3.796  10.955  0.3210  0.4112 -0.0999
18077TIP3    H275723   1.620   3.888  10.837  0.1514  2.3021  1.3081
18078TIP3   OH275724   1.813   2.172  14.598 -0.0067 -0.0934 -0.5385
18078TIP3    H175725   1.828   2.243  14.661  0.6188  0.5322 -1.3699
18078TIP3    H275726   1.790   2.097  14.652  1.9912  0.0296  0.5744
18079TIP3   OH275727   1.695   4.379   0.770  0.8428 -0.0539 -0.0935
18079TIP3    H175728   1.635   4.314   0.808  0.0519  0.0351 -1.1430
18079TIP3    H275729   1.780   4.336   0.770 -0.0546 -2.1250 -2.9959
18080TIP3   OH275730   2.441   2.066   4.263  0.3849  0.7546 -0.2202
18080TIP3    H175731   2.525   2.056   4.308 -0.5608  0.1117  1.4798
18080TIP3    H275732   2.465   2.088   4.173  2.4061 -0.6338 -0.0911
18081TIP3   OH275733   2.525   1.644  14.764  1.0723 -0.3950  0.2805
18081TIP3    H175734   2.612   1.684  14.755  0.1902  1.3977 -0.9575
18081TIP3    H275735   2.536   1.556  14.729  2.7160 -0.7333  1.5140
18082TIP3   OH275736   1.326   5.074   1.900  0.2467 -0.1774  0.5441
18082TIP3    H175737   1.334   5.007   1.967 -0.5777 -2.5448 -1.5512
18082TIP3    H275738   1.366   5.035   1.822  0.0275  1.9146 -0.7042
18083TIP3   OH275739   1.272   3.701  15.500  0.3240  0.3013  0.1570
18083TIP3    H175740   1.352   3.754  15.499 -0.0265  0.8469  0.0964
18083TIP3    H275741   1.261   3.673  15.409  0.8955 -0.4761  0.3240
18084TIP3   OH275742   5.556   0.786   3.519  0.0332 -0.3046  0.2628
18084TIP3    H175743   5.617   0.826   3.581  1.0823 -0.9995 -0.2931
18084TIP3    H275744   5.610   0.764   3.443 -1.2443  0.6043 -0.9504
18085TIP3   OH275745   6.147   6.624  16.645  0.2996  0.2863  0.1887
18085TIP3    H175746   6.145   6.699  16.585 -0.6744  0.7929  0.8194
18085TIP3    H275747   6.238   6.619  16.674  0.8273 -0.0857 -1.4414
18086TIP3   OH275748   6.812   2.704  15.517 -0.4688 -0.6097  0.5688
18086TIP3    H175749   6.812   2.620  15.562 -1.7487 -0.7852  0.2720
18086TIP3    H275750   6.819   2.770  15.586  1.1146 -0.9528  0.7662
18087TIP3   OH275751   0.920   4.525  11.791  0.3350  0.1018 -0.1007
18087TIP3    H175752   0.926   4.528  11.696 -0.5888  0.2168 -0.1679
18087TIP3    H275753   0.892   4.614  11.816 -0.6421 -0.2685  0.1681
18088TIP3   OH275754   1.976   5.463   5.395 -0.2194  0.2118  0.8720
18088TIP3    H175755   2.060   5.434   5.360 -0.5355 -0.9377  1.0266
18088TIP3    H275756   1.995   5.548   5.436  1.1218 -0.5656  1.9545
18089TIP3   OH275757   0.544   6.415  13.921 -0.5129  0.6201  0.4800
18089TIP3    H175758   0.571   6.323  13.923 -0.8740  0.3986 -1.8873
18089TIP3    H275759   0.469   6.419  13.980 -0.0153 -0.4407  1.2090
18090TIP3   OH275760   6.190   0.354  11.922  0.2669 -0.3012  0.0003
18090TIP3    H175761   6.148   0.270  11.902 -1.4334  0.7934 -1.2433
18090TIP3    H275762   6.282   0.342  11.896 -0.4529 -1.0565 -2.4421
18091TIP3   OH275763   4.224   0.986  13.846 -0.6008  0.0427 -0.0234
18091TIP3    H175764   4.163   0.962  13.916 -0.1926  0.7845  0.6089
18091TIP3    H275765   4.168   1.010  13.772 -1.0678  0.1177  0.3479
18092TIP3   OH275766   0.505   0.986   1.116 -0.2409  0.5464 -0.2200
18092TIP3    H175767   0.512   1.068   1.066  0.0819  1.4489  1.2240
18092TIP3    H275768   0.582   0.936   1.089  0.7212  1.6332  0.3841
18093TIP3   OH275769   4.800   5.787  14.331 -0.9074 -0.5573  0.2219
18093TIP3    H175770   4.819   5.722  14.263 -0.0542  0.5095 -0.6067
18093TIP3    H275771   4.816   5.742  14.413 -0.7983 -1.5267 -0.3184
18094TIP3   OH275772   4.699   5.345   5.617 -0.4262 -0.2367 -0.0093
18094TIP3    H175773   4.615   5.320   5.654 -0.1169 -0.6056  0.4643
18094TIP3    H275774   4.695   5.318   5.525 -1.0228  0.2407 -0.1235
18095TIP3   OH275775   0.512   3.462   0.977 -0.0646 -0.1420 -0.2241
18095TIP3    H175776   0.445   3.521   1.010 -0.3704 -0.8695  0.4998
18095TIP3    H275777   0.560   3.434   1.054  0.6278 -0.1747 -0.6563
18096TIP3   OH275778   1.694   4.525   1.618  0.2253  0.1528  0.2301
18096TIP3    H175779   1.668   4.613   1.593  0.9997  0.0380 -1.0536
18096TIP3    H275780   1.639   4.468   1.564  1.0025 -0.1251 -0.2758
18097TIP3   OH275781   0.407   0.989  15.336 -0.0599 -0.6963  0.3821
18097TIP3    H175782   0.471   1.054  15.307 -0.7091 -0.3334 -0.3047
18097TIP3    H275783   0.356   0.970  15.257 -0.0277 -1.8794  0.6353
18098TIP3   OH275784   0.899   5.918  11.396 -0.6602  0.0974  0.7821
18098TIP3    H175785   0.973   5.939  11.339 -1.0747  0.7647  0.4790
18098TIP3    H275786   0.851   6.000  11.406 -1.1891 -0.2507  1.2326
18099TIP3   OH275787   6.580   5.238   1.489 -0.9846  0.2292 -0.2799
18099TIP3    H175788   6.572   5.234   1.585 -0.4216 -1.1930 -0.2723
18099TIP3    H275789   6.499   5.279   1.461 -1.9900 -0.9759  0.7107
18100TIP3   OH275790   2.025   6.327   4.870 -0.5552  0.1110  0.0882
18100TIP3    H175791   1.954   6.385   4.900 -0.3111  1.0553 -1.0717
18100TIP3    H275792   2.057   6.369   4.790 -0.9335 -2.0911 -1.2743
18101TIP3   OH275793   1.218   3.422   3.885  0.0296  0.4707  0.2859
18101TIP3    H175794   1.212   3.419   3.790  2.2825 -0.3638  0.1142
18101TIP3    H275795   1.204   3.331   3.912 -1.5459  0.8603  0.8542
18102TIP3   OH275796   4.241   0.795   2.981 -0.5614  0.0474 -0.0246
18102TIP3    H175797   4.149   0.775   2.997 -0.6368  0.7243  0.4007
18102TIP3    H275798   4.239   0.879   2.936 -0.1890 -0.3507 -0.8096
18103TIP3   OH275799   3.926   4.842  15.707 -0.1884 -0.1127  0.6254
18103TIP3    H175800   3.990   4.775  15.729 -0.2910 -0.3003  0.3493
18103TIP3    H275801   3.842   4.796  15.705 -0.0261 -0.4351 -1.6207
18104TIP3   OH275802   2.717   2.196  11.480  0.3491 -1.1926  0.1087
18104TIP3    H175803   2.810   2.185  11.461 -0.2951 -3.2655 -2.3769
18104TIP3    H275804   2.698   2.286  11.453  1.2310 -1.4403 -1.5136
18105TIP3   OH275805   0.375   2.462  15.426  0.1539  0.2126 -0.2429
18105TIP3    H175806   0.435   2.445  15.354  0.7668 -1.0320  0.5217
18105TIP3    H275807   0.305   2.397  15.414  1.9228 -2.3585  2.0528
18106TIP3   OH275808   6.763   4.013  15.800  0.1598 -0.0880  0.1398
18106TIP3    H175809   6.853   4.044  15.810  0.5427 -0.2834 -2.1814
18106TIP3    H275810   6.745   3.964  15.881  2.2597 -0.3659  0.4833
18107TIP3   OH275811   4.978   0.021  15.362 -0.1064 -0.3702 -0.4512
18107TIP3    H175812   4.976  -0.061  15.412 -1.4916  0.3967  0.8252
18107TIP3    H275813   4.904   0.014  15.302  0.4763 -0.5255 -1.1645
18108TIP3   OH275814   6.229   4.534   3.107 -0.4947  0.0967  0.6676
18108TIP3    H175815   6.284   4.595   3.156  1.9714 -0.6478 -0.9864
18108TIP3    H275816   6.287   4.461   3.086 -1.2490  0.4372 -3.4265
18109TIP3   OH275817   5.466   3.056  15.139 -0.1136 -0.6924 -0.1432
18109TIP3    H175818   5.371   3.056  15.144 -0.2012 -0.0818 -1.5323
18109TIP3    H275819   5.495   3.084  15.226 -1.2393  0.8746 -0.2523
18110TIP3   OH275820   5.003   5.092   3.295 -0.1925 -0.2523  0.2271
18110TIP3    H175821   4.983   5.064   3.384 -0.8576 -1.2445 -0.2128
18110TIP3    H275822   5.073   5.034   3.266 -0.2382 -0.1819 -0.0261
18111TIP3   OH275823   0.641   4.566   0.728  0.4639  0.2611  0.4923
18111TIP3    H175824   0.582   4.550   0.802  0.6509  0.4167  0.6754
18111TIP3    H275825   0.727   4.538   0.759  0.8938  2.0406  0.9906
18112TIP3   OH275826   1.080   5.648  16.312 -0.0399 -0.1436  0.4381
18112TIP3    H175827   1.071   5.609  16.225 -0.5747 -0.4652  0.6343
18112TIP3    H275828   0.991   5.647  16.348  0.2321 -0.3274  1.1244
18113TIP3   OH275829   2.545   0.529  16.584 -0.3867 -0.3479  0.4805
18113TIP3    H175830   2.466   0.583  16.590 -0.7733 -0.6516 -1.2899
18113TIP3    H275831   2.610   0.585  16.541 -0.4993 -0.9519 -0.5143
18114TIP3   OH275832   0.478   2.182  15.987 -0.1625  0.8091 -0.3504
18114TIP3    H175833   0.545   2.123  15.953 -1.4372 -1.3393  0.7056
18114TIP3    H275834   0.481   2.258  15.929  2.7262  0.5249 -0.7033
18115TIP3   OH275835   0.112   3.999   6.842 -0.1150 -0.1636  0.2633
18115TIP3    H175836   0.061   4.053   6.782 -0.9385 -0.9489  0.2430
18115TIP3    H275837   0.198   3.993   6.801 -0.6681 -0.7004 -0.8557
18116TIP3   OH275838   1.676   5.564  16.107 -0.0092  0.3540  0.1867
18116TIP3    H175839   1.626   5.641  16.133 -0.2295  0.6906 -1.1244
18116TIP3    H275840   1.768   5.589  16.118 -0.0020  1.5233 -1.9354
18117TIP3   OH275841   5.876   1.189  16.819 -0.1601  0.3509 -0.2686
18117TIP3    H175842   5.795   1.143  16.841  1.4639 -2.0735  1.0890
18117TIP3    H275843   5.882   1.183  16.724  0.6978 -3.8423 -0.1198
18118TIP3   OH275844   6.050   3.623  13.560 -0.1331 -0.4944 -0.4413
18118TIP3    H175845   5.988   3.661  13.622 -0.1584 -0.7522 -0.3092
18118TIP3    H275846   6.112   3.575  13.614 -1.1133 -2.1303 -0.6990
18119TIP3   OH275847   5.933   4.670  12.204 -0.2197  0.2902  0.7606
18119TIP3    H175848   5.982   4.617  12.267 -1.0308 -0.3300  0.8862
18119TIP3    H275849   5.861   4.707  12.256 -1.9684 -1.6740 -0.1396
18120TIP3   OH275850   0.249   6.787   5.134  0.5631  0.2004 -0.2443
18120TIP3    H175851   0.324   6.831   5.173  0.5986 -1.3261  1.5373
18120TIP3    H275852   0.174   6.818   5.185  0.0444  1.0863 -1.4822
18121TIP3   OH275853   1.656   5.722  14.311 -0.3253 -0.1894 -0.1290
18121TIP3    H175854   1.617   5.773  14.382 -1.4153  0.6118 -1.2669
18121TIP3    H275855   1.618   5.634  14.321  0.6525 -0.5054  1.1209
18122TIP3   OH275856   2.483   6.435   0.974 -0.2543  0.8199 -0.7674
18122TIP3    H175857   2.516   6.525   0.978  0.6681  0.6375 -2.9936
18122TIP3    H275858   2.558   6.383   0.943 -0.6401 -0.8357  0.8549
18123TIP3   OH275859   4.531   1.026  11.393 -0.4723 -0.6988  0.0672
18123TIP3    H175860   4.513   0.950  11.447  0.2517 -0.9587 -0.0478
18123TIP3    H275861   4.445   1.052  11.358 -0.7760 -1.2077  0.4278
18124TIP3   OH275862   4.399   3.410  12.462 -0.1496  0.0171 -0.1446
18124TIP3    H175863   4.352   3.493  12.457 -1.7743 -0.9004 -0.9637
18124TIP3    H275864   4.383   3.379  12.551  0.4580  0.5852  0.1605
18125TIP3   OH275865   2.549   2.974   2.107 -0.4504  0.9084 -0.3821
18125TIP3    H175866   2.624   3.022   2.071  0.5961 -0.5880 -0.2761
18125TIP3    H275867   2.584   2.931   2.186 -1.3229 -0.0867 -0.5234
18126TIP3   OH275868   5.663   0.173   5.837  0.0309 -0.2349  0.0888
18126TIP3    H175869   5.683   0.263   5.812 -1.4550  0.0173 -0.3204
18126TIP3    H275870   5.632   0.179   5.928  1.8825 -0.6442  0.7881
18127TIP3   OH275871   3.101   2.513   1.828 -0.3351 -0.1386 -0.4631
18127TIP3    H175872   3.072   2.492   1.739  2.7017  0.4985 -1.7376
18127TIP3    H275873   3.131   2.429   1.863  0.3438 -0.0607 -0.8397
18128TIP3   OH275874   5.141   6.217  16.192 -0.1705 -0.0059  0.5362
18128TIP3    H175875   5.194   6.242  16.267 -1.5985  1.7083  1.0445
18128TIP3    H275876   5.121   6.300  16.148 -0.6748 -0.8195 -0.8313
18129TIP3   OH275877   2.591   0.080  15.693 -0.7337  0.4241 -0.0232
18129TIP3    H175878   2.495   0.075  15.699 -0.6426 -1.2936  0.3942
18129TIP3    H275879   2.618   0.106  15.781 -0.7249 -1.3701  0.5467
18130TIP3   OH275880   5.447   0.665  12.942 -0.1540 -0.1356  0.1921
18130TIP3    H175881   5.401   0.746  12.964  1.2843  1.0558 -0.8767
18130TIP3    H275882   5.405   0.635  12.861  0.2843  0.4312 -0.2619
18131TIP3   OH275883   2.347   6.020   5.623 -0.0275  0.1371 -0.3289
18131TIP3    H175884   2.415   6.051   5.563 -0.9536 -1.9531 -2.6068
18131TIP3    H275885   2.393   5.962   5.684  0.7098  1.3210  0.2938
18132TIP3   OH275886   1.276   0.921  11.847 -0.4134  0.4491 -0.5319
18132TIP3    H175887   1.302   0.829  11.849  0.9488  0.8140 -0.1612
18132TIP3    H275888   1.284   0.950  11.938  0.9444  1.3734 -0.9097
18133TIP3   OH275889   5.464   4.650  13.161 -0.0344 -0.0946 -0.7740
18133TIP3    H175890   5.532   4.634  13.227  1.3935  0.3773 -2.0565
18133TIP3    H275891   5.433   4.562  13.136  0.1383 -0.3199 -0.1996
18134TIP3   OH275892   1.195   4.115  17.208  0.1744 -0.5313  0.1021
18134TIP3    H175893   1.113   4.076  17.177 -0.8735  1.2808  0.4510
18134TIP3    H275894   1.230   4.051  17.269 -1.7500 -0.7504  1.0530
18135TIP3   OH275895   6.036   5.489  15.813  0.0184  0.1149 -0.0108
18135TIP3    H175896   6.106   5.493  15.748  0.0749  0.8179  0.0845
18135TIP3    H275897   5.974   5.426  15.778 -0.9211  1.8791 -1.7316
18136TIP3   OH275898   3.152   2.125   2.569 -0.4757 -0.7619 -0.5363
18136TIP3    H175899   3.087   2.173   2.517 -2.1441 -4.6886 -2.4687
18136TIP3    H275900   3.104   2.092   2.644 -0.5282 -2.6699 -1.3453
18137TIP3   OH275901   5.716   2.391   5.218 -0.4591  0.1222  0.0746
18137TIP3    H175902   5.670   2.431   5.292  0.4360  1.9880 -0.3132
18137TIP3    H275903   5.692   2.299   5.222 -1.9331  0.5156  1.5616
18138TIP3   OH275904   5.665   1.919   5.702 -0.0499  0.2851  0.1928
18138TIP3    H175905   5.608   1.874   5.764 -1.8248  0.9589 -0.8897
18138TIP3    H275906   5.707   1.848   5.653 -2.9080 -0.2996 -1.5961
18139TIP3   OH275907   0.036   1.656   3.322  0.2472  0.1222 -0.6606
18139TIP3    H175908   0.068   1.665   3.232  1.4326 -0.5415 -0.3338
18139TIP3    H275909   0.072   1.572   3.352 -2.1305 -0.8647 -0.3557
18140TIP3   OH275910   0.527   6.388   5.470 -0.2001  0.5526  0.5654
18140TIP3    H175911   0.582   6.438   5.409  0.9323 -1.2221  0.0555
18140TIP3    H275912   0.568   6.403   5.555  1.7814 -1.5047  0.0748
18141TIP3   OH275913   1.435   1.684   5.405  0.8565  0.0529  0.1922
18141TIP3    H175914   1.450   1.612   5.343  1.3081  0.3836 -0.0875
18141TIP3    H275915   1.468   1.762   5.360 -2.1185  0.9343 -0.6620
18142TIP3   OH275916   6.673   0.046   0.620  0.3404  0.3761  0.0607
18142TIP3    H175917   6.737   0.004   0.678  1.5049 -0.5896 -1.8125
18142TIP3    H275918   6.682   0.140   0.639  4.1552  0.5658 -1.7238
18143TIP3   OH275919   3.993   6.834  12.498 -0.0613  0.6409  0.2206
18143TIP3    H175920   3.918   6.784  12.467  0.2160  0.0208  0.5282
18143TIP3    H275921   3.993   6.914  12.444 -1.0735  0.7630  0.3831
18144TIP3   OH275922   1.187   5.686   5.805  0.3347 -0.4749  0.2677
18144TIP3    H175923   1.187   5.752   5.874 -0.4919 -0.8797  0.6846
18144TIP3    H275924   1.102   5.697   5.762  1.7643  1.3890 -2.3352
18145TIP3   OH275925   2.147   5.479  10.733 -0.1468  0.2000  0.1313
18145TIP3    H175926   2.107   5.494  10.818  0.1910  0.5891  0.2258
18145TIP3    H275927   2.157   5.566  10.695  0.3377  0.0867 -0.0118
18146TIP3   OH275928   4.748   4.101  11.541  0.1603 -0.5048 -0.2752
18146TIP3    H175929   4.747   4.057  11.626 -1.5317 -1.5112 -0.7786
18146TIP3    H275930   4.841   4.103  11.517  0.9612  1.6236  2.4492
18147TIP3   OH275931   6.685   6.513  16.715 -0.1854  0.1119 -0.5686
18147TIP3    H175932   6.662   6.436  16.766 -0.1214  1.3359  1.4427
18147TIP3    H275933   6.748   6.481  16.650  1.8813 -1.1803  1.8532
18148TIP3   OH275934   1.727   0.113  11.234 -0.6501  0.3032  0.7927
18148TIP3    H175935   1.792   0.128  11.165 -1.7565  0.1481 -0.3158
18148TIP3    H275936   1.774   0.132  11.315  0.5575  0.9615 -0.0222
18149TIP3   OH275937   3.012   2.719  11.510  0.1749  0.8631 -0.2753
18149TIP3    H175938   3.042   2.804  11.541  2.3289 -0.0575  0.4039
18149TIP3    H275939   2.989   2.733  11.418 -0.9771  2.4591  0.2150
18150TIP3   OH275940   6.759   4.565   4.636  0.2577 -0.5115 -0.0582
18150TIP3    H175941   6.835   4.523   4.676 -1.6517 -3.6704  0.5641
18150TIP3    H275942   6.694   4.496   4.629 -2.8523  2.1538  0.0546
18151TIP3   OH275943   1.257   4.438  11.763 -0.0859  0.3669  0.0993
18151TIP3    H175944   1.162   4.442  11.773 -0.2766  3.4202 -1.6374
18151TIP3    H275945   1.271   4.438  11.669  1.6926 -1.4465  0.2995
18152TIP3   OH275946   5.724   1.361  13.521  0.1057  0.4258 -0.3606
18152TIP3    H175947   5.722   1.276  13.565 -1.0364  0.9316  0.6107
18152TIP3    H275948   5.709   1.341  13.428  0.7423 -0.5008 -0.2691
18153TIP3   OH275949   2.546   1.200  16.320 -0.0069 -0.2109 -0.3276
18153TIP3    H175950   2.642   1.202  16.328 -0.0266  1.7795  0.0276
18153TIP3    H275951   2.527   1.262  16.249 -1.0613 -0.3297 -0.1663
18154TIP3   OH275952   4.902   4.701  15.071  0.1364  0.2915  0.8939
18154TIP3    H175953   4.833   4.638  15.091  0.2039  0.2481  0.9913
18154TIP3    H275954   4.970   4.649  15.029  0.5276  0.1489  1.6780
18155TIP3   OH275955   4.316   4.147   0.256 -0.0100 -0.0114  0.2990
18155TIP3    H175956   4.290   4.105   0.174  2.1686 -0.5162 -0.2001
18155TIP3    H275957   4.397   4.194   0.234 -0.4788  1.5583  1.6947
18156TIP3   OH275958   5.378   3.952  12.294 -0.5398 -0.8743  0.3821
18156TIP3    H175959   5.413   4.041  12.301 -0.3448 -0.9155 -0.0503
18156TIP3    H275960   5.432   3.910  12.227 -1.2882 -0.9992 -0.1538
18157TIP3   OH275961   4.874   6.808  13.466  0.0532 -0.0113 -0.0869
18157TIP3    H175962   4.885   6.713  13.463  2.1304  0.2014 -0.3632
18157TIP3    H275963   4.897   6.831  13.556 -1.4681  0.1566  0.2886
18158TIP3   OH275964   5.765   6.686  14.739  0.0179  0.3205 -0.6105
18158TIP3    H175965   5.821   6.711  14.666 -0.1719  0.3590 -0.7452
18158TIP3    H275966   5.676   6.695  14.704 -0.0836  0.6549 -0.2718
18159TIP3   OH275967   2.183   0.568   0.527  0.3144  0.7122 -0.1160
18159TIP3    H175968   2.134   0.620   0.463  0.3279  1.7295  0.6900
18159TIP3    H275969   2.262   0.540   0.481 -0.0821  0.7079 -0.8056
18160TIP3   OH275970   6.805   2.138   0.666  0.1947  0.1309 -0.2228
18160TIP3    H175971   6.893   2.100   0.665  0.5748  0.9251  1.2204
18160TIP3    H275972   6.787   2.155   0.758 -2.1774 -1.5834 -0.2871
18161TIP3   OH275973   6.123   4.831  13.489 -0.7567 -0.6307  0.1515
18161TIP3    H175974   6.142   4.798  13.401  0.0500 -1.1855  0.5148
18161TIP3    H275975   6.080   4.915  13.475  2.1217  0.8337 -0.8069
18162TIP3   OH275976   6.130   6.719  16.384  0.2513 -0.1418  0.3563
18162TIP3    H175977   6.211   6.686  16.345  0.6277 -0.4197  1.3432
18162TIP3    H275978   6.065   6.652  16.363  0.3682 -0.1259 -0.0693
18163TIP3   OH275979   3.451   2.206   6.795 -0.1831 -0.3514 -0.3167
18163TIP3    H175980   3.473   2.279   6.738  0.6759 -1.1506 -1.0646
18163TIP3    H275981   3.387   2.241   6.856 -0.1845  0.8733 -0.9837
18164TIP3   OH275982   3.869   4.021   2.798  0.2635  0.2384 -0.0042
18164TIP3    H175983   3.911   3.954   2.852  0.6647  0.6473  0.2000
18164TIP3    H275984   3.787   3.981   2.769  1.4800 -1.2049 -1.7081
18165TIP3   OH275985   6.687   5.776  16.707 -0.8963  0.0822  0.4087
18165TIP3    H175986   6.674   5.696  16.655 -0.0707  0.7136 -0.8173
18165TIP3    H275987   6.776   5.768  16.741 -1.2321 -0.0562  1.2948
18166TIP3   OH275988   2.952   4.397   3.899  0.8286 -0.4816  0.0184
18166TIP3    H175989   2.935   4.479   3.852 -1.4334 -0.6661  0.3905
18166TIP3    H275990   2.976   4.334   3.831  2.4146  0.3997 -0.2929
18167TIP3   OH275991   1.975   0.976  13.924  0.0734 -0.0657 -0.0886
18167TIP3    H175992   2.040   0.952  13.858 -1.6788 -2.7567 -0.9664
18167TIP3    H275993   1.892   0.975  13.878 -0.9770  0.0308  1.7104
18168TIP3   OH275994   1.473   2.340   1.834  0.1970  0.0853  0.0111
18168TIP3    H175995   1.420   2.288   1.774  0.3326 -1.7565  1.3697
18168TIP3    H275996   1.519   2.403   1.779  0.4156 -1.5996 -1.8337
18169TIP3   OH275997   0.851   0.699   2.421 -0.3945 -0.0781  0.1837
18169TIP3    H175998   0.821   0.774   2.473  0.2089 -0.9547  1.8793
18169TIP3    H275999   0.930   0.730   2.378 -1.3574  0.9276 -0.9364
18170TIP3   OH276000   0.813   3.599  10.657  0.2640 -0.0778 -0.0425
18170TIP3    H176001   0.849   3.616  10.744  1.5110  1.9314 -0.8733
18170TIP3    H276002   0.760   3.676  10.637  0.1111 -0.4389 -1.1031
18171TIP3   OH276003   3.556   2.400  10.800 -0.0165 -0.0543 -0.4542
18171TIP3    H176004   3.572   2.371  10.710 -0.0727 -0.9644 -0.1778
18171TIP3    H276005   3.511   2.484  10.790 -1.4352 -0.8774 -1.3039
18172TIP3   OH276006   4.813   6.223  10.589 -0.1421 -0.1145 -0.6937
18172TIP3    H176007   4.785   6.311  10.613 -1.7287 -0.4960 -0.9902
18172TIP3    H276008   4.902   6.215  10.623 -1.0679  0.5221  2.1449
18173TIP3   OH276009   3.562   6.308  17.028  0.2925  0.5653  0.6949
18173TIP3    H176010   3.514   6.332  16.949 -0.2795 -1.3669  0.4146
18173TIP3    H276011   3.503   6.249  17.075  1.2547  0.4396  1.7874
18174TIP3   OH276012   1.310   3.833   5.398 -0.2086  0.4795  0.1678
18174TIP3    H176013   1.249   3.856   5.469 -0.4370  2.2751 -0.5506
18174TIP3    H276014   1.275   3.879   5.322  1.2314  0.3312 -0.6046
18175TIP3   OH276015   0.765   1.855   2.056  0.1352  0.2628  0.2870
18175TIP3    H176016   0.804   1.865   1.969  0.4562  0.6277  0.4693
18175TIP3    H276017   0.834   1.883   2.116  0.0975 -0.4971  0.6865
18176TIP3   OH276018   4.596   2.135  16.512 -0.6469  0.2130  0.2051
18176TIP3    H176019   4.568   2.102  16.426  3.2019 -0.4911 -0.9762
18176TIP3    H276020   4.635   2.059  16.555 -1.6205  0.8046  2.2214
18177TIP3   OH276021   0.181   1.183  11.895  0.1272 -0.3449  0.1017
18177TIP3    H176022   0.233   1.263  11.896 -1.3740  0.6637  0.7786
18177TIP3    H276023   0.112   1.199  11.832  0.0083 -1.2559 -0.0163
18178TIP3   OH276024   2.108   5.713   5.064 -0.0443 -0.4725  0.2463
18178TIP3    H176025   2.048   5.743   5.132  1.5782 -0.0393  1.5517
18178TIP3    H276026   2.058   5.648   5.014 -2.4507  1.7411 -0.3935
18179TIP3   OH276027   0.999   1.220   0.500 -0.4776 -0.0308 -0.1291
18179TIP3    H176028   0.982   1.136   0.457  0.9874 -0.2889 -0.2646
18179TIP3    H276029   1.094   1.223   0.509 -0.6014  0.9950  1.1493
18180TIP3   OH276030   4.293   3.118  13.794 -0.2085  0.7418  0.0645
18180TIP3    H176031   4.238   3.160  13.861 -0.3146  0.7934 -0.0540
18180TIP3    H276032   4.339   3.049  13.841 -2.2343 -0.9782 -0.3030
18181TIP3   OH276033   3.587   5.692   4.350 -0.4474 -0.3846  0.2521
18181TIP3    H176034   3.593   5.714   4.443 -1.6644 -1.4374  0.5938
18181TIP3    H276035   3.575   5.777   4.307  1.1520  0.2320  0.9204
18182TIP3   OH276036   5.153   3.887   3.028 -0.2944 -0.0478 -0.6943
18182TIP3    H176037   5.142   3.857   3.118 -0.0337  1.2392 -0.2002
18182TIP3    H276038   5.175   3.809   2.978  3.6630 -0.3277  1.0706
18183TIP3   OH276039   2.550   0.607   2.276  0.2371  0.2023  0.1072
18183TIP3    H176040   2.613   0.668   2.314  0.5435 -0.0571  0.0172
18183TIP3    H276041   2.570   0.523   2.316  0.7730 -0.1447 -0.8417
18184TIP3   OH276042   5.875   1.333  15.001  0.1792 -0.2099 -0.0624
18184TIP3    H176043   5.797   1.316  15.053  0.4669  1.8266  1.1157
18184TIP3    H276044   5.947   1.330  15.064  0.7338  0.6183 -0.6395
18185TIP3   OH276045   1.488   5.309   1.810 -0.3271 -0.3884  0.1084
18185TIP3    H176046   1.504   5.403   1.813 -0.0243 -0.4454  0.2876
18185TIP3    H276047   1.392   5.301   1.809 -0.3537 -0.0809  0.0996
18186TIP3   OH276048   0.192   2.004  16.603  0.1059 -0.0544  0.1852
18186TIP3    H176049   0.110   2.032  16.642  0.3999 -0.1626  0.8912
18186TIP3    H276050   0.257   2.066  16.636 -0.1499  2.0989 -2.8951
18187TIP3   OH276051   4.043   2.898  16.656 -0.5870  0.1439  0.0947
18187TIP3    H176052   4.132   2.924  16.630 -0.5980  0.8110  0.6889
18187TIP3    H276053   4.038   2.921  16.749 -1.7169  1.0648 -0.1671
18188TIP3   OH276054   3.335   5.397   0.189 -0.3278 -0.2524  0.1493
18188TIP3    H176055   3.281   5.405   0.110  0.3679  0.4860 -0.2624
18188TIP3    H276056   3.408   5.458   0.175 -0.2104 -0.0868  1.3759
18189TIP3   OH276057   1.348   2.010   2.916 -0.4414  0.3567  0.1672
18189TIP3    H176058   1.314   1.924   2.941 -0.5144  0.7771  1.5432
18189TIP3    H276059   1.281   2.045   2.856 -0.5815 -0.3824 -0.1226
18190TIP3   OH276060   2.312   4.060  10.614  0.1140  0.3054 -0.0472
18190TIP3    H176061   2.246   4.044  10.547 -1.0638  0.4861  1.0306
18190TIP3    H276062   2.361   3.978  10.621  0.4450  0.3816 -1.3112
18191TIP3   OH276063   6.826   6.222   3.571  0.6350 -0.7814 -0.0693
18191TIP3    H176064   6.781   6.288   3.623  0.8377 -0.5131 -0.2251
18191TIP3    H276065   6.771   6.144   3.577 -0.7186 -0.0112 -1.5544
18192TIP3   OH276066   2.773   1.336   5.422  0.1278  0.1309  0.1847
18192TIP3    H176067   2.856   1.301   5.455 -0.1341  0.7663  1.6075
18192TIP3    H276068   2.796   1.378   5.339  1.6676  2.0877  1.5123
18193TIP3   OH276069   2.988   2.439   2.148 -0.0321  0.6298 -0.0634
18193TIP3    H176070   3.065   2.497   2.151  0.1954  0.4851 -1.8080
18193TIP3    H276071   2.927   2.477   2.211 -0.5708  3.8602 -2.2394
18194TIP3   OH276072   0.004   5.300  14.176 -0.5340  0.0101 -0.2573
18194TIP3    H176073  -0.011   5.207  14.159 -1.7281 -0.1048  1.2548
18194TIP3    H276074  -0.012   5.342  14.091 -0.4616 -1.1000 -0.8456
18195TIP3   OH276075   5.848   2.340  13.393  0.4869 -0.7116  0.0086
18195TIP3    H176076   5.766   2.305  13.429  0.5011  0.7838  1.5944
18195TIP3    H276077   5.835   2.336  13.298 -3.0766  2.9426  0.0529
18196TIP3   OH276078   2.051   0.596  16.514 -0.1044 -0.2634 -0.8193
18196TIP3    H176079   1.988   0.658  16.550  0.6432  0.2503 -0.3656
18196TIP3    H276080   2.003   0.551  16.444 -0.4420  1.3746 -1.6963
18197TIP3   OH276081   0.466   1.565  10.503  0.0109  0.1573 -0.4306
18197TIP3    H176082   0.388   1.509  10.506  2.2978 -3.3740  0.0777
18197TIP3    H276083   0.496   1.559  10.412  0.4235  0.3174 -0.3080
18198TIP3   OH276084   6.298   3.290   1.849 -0.1909 -0.0204  0.5315
18198TIP3    H176085   6.237   3.347   1.896  0.9412  1.2999  0.4861
18198TIP3    H276086   6.246   3.213   1.826 -1.1110 -0.2191  2.9004
18199TIP3   OH276087   3.218   2.012   0.840  0.2692 -0.4599 -0.4214
18199TIP3    H176088   3.265   2.079   0.891 -0.0082 -0.7594  0.2402
18199TIP3    H276089   3.126   2.033   0.852  0.0493 -2.3028  1.7539
18200TIP3   OH276090   5.175   3.868   4.602 -0.1027  0.8061  0.6254
18200TIP3    H176091   5.089   3.903   4.577 -1.2092 -2.6915 -1.0993
18200TIP3    H276092   5.165   3.842   4.693  0.1652  2.9960  1.3524
18201TIP3   OH276093   3.940   4.988   2.535  0.8821  0.4126  0.6983
18201TIP3    H176094   3.944   4.976   2.630 -3.4924 -0.1518  1.0035
18201TIP3    H276095   3.967   4.903   2.500  3.6592  0.9661  1.2469
18202TIP3   OH276096   0.065   6.374  15.561 -0.6331 -0.6509  0.6071
18202TIP3    H176097   0.101   6.463  15.563 -0.5816 -0.6574  0.0911
18202TIP3    H276098   0.050   6.357  15.468 -2.7016 -0.3505  0.8361
18203TIP3   OH276099   5.614   2.433  11.390  0.4012 -0.4145  0.2949
18203TIP3    H176100   5.692   2.400  11.345  0.5162  1.4983 -1.0394
18203TIP3    H276101   5.547   2.439  11.322  0.0272  0.8524  0.7399
18204TIP3   OH276102   4.330   0.091  14.269 -0.4610  0.2420 -0.0898
18204TIP3    H176103   4.363   0.176  14.243 -0.7203  0.6790  0.9486
18204TIP3    H276104   4.384   0.065  14.344  0.7343 -1.3001 -1.4281
18205TIP3   OH276105   2.792   2.120  15.390 -0.1350 -0.4211  0.2810
18205TIP3    H176106   2.833   2.053  15.444  2.0623  0.4862 -0.1586
18205TIP3    H276107   2.805   2.090  15.300  2.1093  1.1617  0.0037
18206TIP3   OH276108   6.301   5.080  15.265  0.0475  0.1437 -0.0921
18206TIP3    H176109   6.323   5.170  15.291  1.5561 -0.2179  0.0095
18206TIP3    H276110   6.337   5.025  15.335 -0.6793 -0.5535 -0.2554
18207TIP3   OH276111   5.915   6.172   4.010 -0.2451 -0.4641  0.3271
18207TIP3    H176112   5.830   6.216   4.014  0.8327  1.9363 -0.8928
18207TIP3    H276113   5.894   6.083   3.982 -2.2883  0.5765 -1.8541
18208TIP3   OH276114   3.173   3.133  15.056  0.0213  0.2024 -0.3959
18208TIP3    H176115   3.263   3.112  15.031  0.0066 -1.7224  0.9772
18208TIP3    H276116   3.119   3.078  14.999 -0.1488 -0.7983  0.6850
18209TIP3   OH276117   5.633   1.059  12.574 -0.3011 -0.3140  0.0702
18209TIP3    H176118   5.601   1.040  12.486 -0.3108 -1.0046  0.2164
18209TIP3    H276119   5.708   1.117  12.561 -0.1672 -0.5968 -0.3978
18210TIP3   OH276120   1.830   1.357   0.227 -0.0102 -0.0999 -0.5356
18210TIP3    H176121   1.896   1.396   0.169  0.1777 -1.0773 -0.9895
18210TIP3    H276122   1.770   1.429   0.246  1.3365  0.9032  0.1227
18211TIP3   OH276123   0.963   6.667   2.480 -0.2308 -0.1940  0.0384
18211TIP3    H176124   1.025   6.635   2.414  0.6739  1.8701 -0.1957
18211TIP3    H276125   0.975   6.608   2.555 -1.0700 -2.4211 -1.4560
18212TIP3   OH276126   2.331   3.875  14.312  0.1355  0.5174  0.5154
18212TIP3    H176127   2.247   3.840  14.341  0.2961 -0.6782 -0.3914
18212TIP3    H276128   2.377   3.799  14.275  2.3278  0.7279  2.5261
18213TIP3   OH276129   1.140   6.560   0.885 -0.4619 -0.2916 -0.4168
18213TIP3    H176130   1.193   6.630   0.923 -0.8255 -0.0484 -0.3486
18213TIP3    H276131   1.056   6.602   0.864 -1.1092 -0.9741  0.7134
18214TIP3   OH276132   1.173   2.201   0.235  0.5295 -0.3335  0.0369
18214TIP3    H176133   1.102   2.176   0.293  0.1834 -0.2446 -0.3485
18214TIP3    H276134   1.151   2.163   0.150  0.0568  1.1355 -0.5268
18215TIP3   OH276135   0.560   3.228  15.107 -0.5742  0.0128 -0.2522
18215TIP3    H176136   0.602   3.142  15.115 -1.6487 -0.4909  0.2445
18215TIP3    H276137   0.466   3.208  15.103 -0.9070  1.2125  0.9443
18216TIP3   OH276138   5.024   2.325  13.772  0.1879  0.0888  0.1035
18216TIP3    H176139   5.015   2.397  13.710  1.7875  2.6157  2.5538
18216TIP3    H276140   5.114   2.293  13.759 -0.1143 -0.7003 -0.1395
18217TIP3   OH276141   0.691   3.065  16.868 -0.5439 -0.0759 -0.4053
18217TIP3    H176142   0.613   3.078  16.921 -0.5154  0.5316 -0.5079
18217TIP3    H276143   0.757   3.034  16.930 -1.3600 -2.5180 -0.6218
18218TIP3   OH276144   6.317   6.426   0.812  0.8874 -0.8053 -0.4374
18218TIP3    H176145   6.256   6.439   0.884  0.6226  0.8850 -0.9240
18218TIP3    H276146   6.401   6.408   0.855  1.0175  1.4404  0.3671
18219TIP3   OH276147   3.335   0.527  14.211 -0.2957  0.8406  0.1874
18219TIP3    H176148   3.390   0.490  14.280 -2.1709 -2.4148  0.1578
18219TIP3    H276149   3.248   0.532  14.250 -1.0086  0.8231 -1.3292
18220TIP3   OH276150   2.257   0.058  12.831  0.2748  0.6638 -0.4270
18220TIP3    H176151   2.200   0.122  12.875 -0.8713 -0.3067 -0.4562
18220TIP3    H276152   2.328   0.042  12.893 -1.5744 -1.0688  1.3882
18221TIP3   OH276153   0.632   0.093  16.983  0.0563  0.5909 -1.1386
18221TIP3    H176154   0.633   0.151  16.907 -2.1297  1.1189 -0.8291
18221TIP3    H276155   0.559   0.033  16.967  0.1032  0.1568  0.1467
18222TIP3   OH276156   2.617   5.828   1.229  0.0795  0.1315  0.5003
18222TIP3    H176157   2.561   5.819   1.306  0.2822 -1.1290  0.5072
18222TIP3    H276158   2.572   5.779   1.160  0.6227  0.0393  0.2051
18223TIP3   OH276159   5.931   3.848   2.528  0.0730  0.4788  0.2408
18223TIP3    H176160   5.906   3.940   2.537 -0.3565  0.3164  0.7534
18223TIP3    H276161   5.875   3.801   2.590  0.4380 -0.1049  0.1423
18224TIP3   OH276162   5.545   2.887   0.957 -0.0035 -0.1326  0.1241
18224TIP3    H176163   5.582   2.804   0.928  0.3852  0.3185 -0.6909
18224TIP3    H276164   5.492   2.917   0.883 -2.4995 -1.0246  1.4243
18225TIP3   OH276165   5.289   3.460   5.692  0.4339 -0.0021 -0.2381
18225TIP3    H176166   5.364   3.406   5.666  1.1304  1.3117 -1.0581
18225TIP3    H276167   5.296   3.465   5.788 -0.6088 -2.6738  0.0571
18226TIP3   OH276168   6.000   4.825   3.988 -0.1819  0.0892  0.2472
18226TIP3    H176169   5.925   4.816   4.047  0.9861 -0.6411  1.6889
18226TIP3    H276170   5.970   4.789   3.905 -1.9692  1.3794  0.2498
18227TIP3   OH276171   2.337   2.260  11.675 -0.3867 -0.3256  0.6448
18227TIP3    H176172   2.313   2.345  11.637  2.0741  0.6086  1.0212
18227TIP3    H276173   2.364   2.280  11.764 -0.3310 -1.5990  0.9315
18228TIP3   OH276174   0.403   1.675   0.314  0.9064  0.0950  0.2789
18228TIP3    H176175   0.498   1.681   0.307  0.7734  1.5217 -0.6677
18228TIP3    H276176   0.370   1.722   0.237 -0.5636 -0.9757  0.2119
18229TIP3   OH276177   2.236   1.164  15.201  0.0068 -0.3206  1.0106
18229TIP3    H176178   2.235   1.071  15.181  0.1339  0.1403 -1.5084
18229TIP3    H276179   2.144   1.191  15.194 -0.0158 -0.2377  1.6254
18230TIP3   OH276180   3.036   0.347   2.726  0.1050 -0.2026 -0.2964
18230TIP3    H176181   3.109   0.342   2.787  0.7887 -1.1469 -1.1663
18230TIP3    H276182   2.962   0.376   2.779  0.8352 -0.3699  0.8322
18231TIP3   OH276183   1.282   3.130   0.937  0.1574 -0.4196  0.7915
18231TIP3    H176184   1.270   3.071   0.862  0.6570  1.4956 -0.8713
18231TIP3    H276185   1.196   3.138   0.976 -0.3042 -0.7594 -0.1272
18232TIP3   OH276186   1.540   5.329  16.078 -0.2663 -0.2697 -0.1597
18232TIP3    H176187   1.588   5.411  16.080 -0.1392 -0.3451  1.6502
18232TIP3    H276188   1.602   5.265  16.042 -0.7533  0.5941 -2.7280
18233TIP3   OH276189   1.802   5.302  16.374  0.5668 -0.0993 -0.0060
18233TIP3    H176190   1.788   5.223  16.426  1.7732  0.0472  0.5689
18233TIP3    H276191   1.718   5.318  16.332 -1.1941  1.0552  3.6473
18234TIP3   OH276192   5.969   5.678  11.786 -0.4932  0.0324 -0.4182
18234TIP3    H176193   6.047   5.711  11.832 -0.7247 -0.4563  0.3374
18234TIP3    H276194   5.945   5.749  11.727 -0.8447  1.1522  1.0091
18235TIP3   OH276195   6.503   4.853   3.130 -0.1993 -0.1815 -0.4475
18235TIP3    H176196   6.434   4.813   3.182  0.9019  1.1990  2.2753
18235TIP3    H276197   6.495   4.947   3.148  0.4285  0.3405 -2.6106
18236TIP3   OH276198   2.011   5.016  11.471  0.2701 -0.3464 -0.7556
18236TIP3    H176199   2.074   4.960  11.517 -0.5676 -0.8871 -0.2303
18236TIP3    H276200   2.060   5.052  11.398  0.3523 -3.4495 -2.4212
18237TIP3   OH276201   2.442   1.845   3.559  0.0424  0.0802  0.1954
18237TIP3    H176202   2.422   1.754   3.536  1.3644 -0.1149 -0.2612
18237TIP3    H276203   2.377   1.896   3.511 -0.0874 -0.5819 -0.3563
18238TIP3   OH276204   4.829   1.322  16.038  0.4165  0.2515 -0.0644
18238TIP3    H176205   4.913   1.327  16.083  0.7351  1.2508 -0.7469
18238TIP3    H276206   4.841   1.256  15.970  0.5516  0.1710  0.0398
18239TIP3   OH276207   6.752   5.645   4.052 -0.2318 -0.6340 -0.6409
18239TIP3    H176208   6.674   5.648   3.996 -1.6635  0.2523  1.2912
18239TIP3    H276209   6.750   5.727   4.100  1.6187 -0.8468 -0.1225
18240TIP3   OH276210   4.895   6.157   3.533 -0.7203 -0.1832  0.7724
18240TIP3    H176211   4.841   6.231   3.561 -1.8142  0.4009 -2.4337
18240TIP3    H276212   4.975   6.198   3.499  0.0269 -0.7469  1.8192
18241TIP3   OH276213   5.354   4.165   2.023  0.1501 -0.1299 -0.4074
18241TIP3    H176214   5.418   4.150   2.092 -1.9205  0.1412  1.6783
18241TIP3    H276215   5.346   4.261   2.018 -1.7250 -0.1527  1.0479
18242TIP3   OH276216   2.052   2.810  13.560  0.0941  0.0334  0.7111
18242TIP3    H176217   1.995   2.758  13.617 -1.8320  0.9595 -0.3093
18242TIP3    H276218   2.044   2.769  13.474 -0.2761  1.1355  0.2187
18243TIP3   OH276219   2.731   6.382   6.159 -0.2259  0.3314 -0.5966
18243TIP3    H176220   2.690   6.468   6.158  0.9776  0.9272 -0.3787
18243TIP3    H276221   2.713   6.346   6.072 -3.3105 -0.5133  0.2520
18244TIP3   OH276222   2.775   3.975  10.944 -0.4964 -0.0760  0.5600
18244TIP3    H176223   2.781   4.064  10.979 -0.8077  0.4619 -0.6812
18244TIP3    H276224   2.866   3.949  10.930 -0.4173  0.2604  0.4335
18245TIP3   OH276225   1.177   3.267  16.578 -0.1178 -0.0726 -0.0042
18245TIP3    H176226   1.141   3.343  16.534 -0.9133  0.5489  1.6465
18245TIP3    H276227   1.101   3.216  16.605  0.4042 -1.6938 -1.3885
18246TIP3   OH276228   0.189   6.563   3.423  0.5752  0.1664  0.1973
18246TIP3    H176229   0.132   6.553   3.347  0.0216  1.4572  0.4202
18246TIP3    H276230   0.254   6.493   3.415 -0.6755 -0.9429 -0.3882
18247TIP3   OH276231   5.146   1.569   4.458  0.1731  0.3604 -0.3019
18247TIP3    H176232   5.168   1.527   4.541  2.6968 -1.4480 -1.7324
18247TIP3    H276233   5.058   1.604   4.471  0.1247 -0.6128  2.8093
18248TIP3   OH276234   1.868   6.793  11.745  0.9180  0.2149 -0.6083
18248TIP3    H176235   1.775   6.789  11.765  1.0312 -0.5061 -0.1698
18248TIP3    H276236   1.899   6.873  11.787  0.6358  0.0781 -0.1372
18249TIP3   OH276237   6.504   2.048   0.214  0.1134 -0.1659 -0.1586
18249TIP3    H176238   6.582   1.996   0.232  0.3116 -0.0992 -0.7997
18249TIP3    H276239   6.470   2.012   0.132  0.8954  1.4360 -1.2409
18250TIP3   OH276240   0.138   2.827   4.892 -0.8028 -0.1234 -0.2770
18250TIP3    H176241   0.211   2.786   4.938 -1.1831  1.0716  1.4831
18250TIP3    H276242   0.163   2.823   4.800  0.6060 -1.4058  0.1073
18251TIP3   OH276243   2.773   4.699  13.825 -0.1983 -0.4087  0.2191
18251TIP3    H176244   2.717   4.768  13.789 -0.8355  0.0213  1.9398
18251TIP3    H276245   2.791   4.641  13.751  0.4835  1.6602 -1.3278
18252TIP3   OH276246   4.874   4.492   6.225 -0.0014 -0.0999 -0.1890
18252TIP3    H176247   4.836   4.405   6.242  1.1231 -0.7184 -0.6972
18252TIP3    H276248   4.951   4.496   6.282 -0.5662  0.9604  0.5180
18253TIP3   OH276249   0.255   4.695  13.784 -0.2516  0.1732  0.2502
18253TIP3    H176250   0.170   4.736  13.795 -1.7744 -2.2119 -1.6990
18253TIP3    H276251   0.286   4.725  13.699 -0.1424 -0.5836  0.0146
18254TIP3   OH276252   5.017   0.685   3.216  0.1633 -0.6852 -0.1384
18254TIP3    H176253   5.040   0.645   3.132 -1.2153 -1.7440 -0.0556
18254TIP3    H276254   4.925   0.660   3.230  1.0092 -2.7040  2.8699
18255TIP3   OH276255   3.292   4.936  16.380 -0.2276 -0.5305 -0.1125
18255TIP3    H176256   3.209   4.962  16.421 -0.5547 -0.6084 -0.7102
18255TIP3    H276257   3.303   4.845  16.406 -0.2694 -0.4851  0.0668
18256TIP3   OH276258   3.076   1.114  14.533  0.2725 -0.1436 -0.4322
18256TIP3    H176259   2.994   1.163  14.530  0.5938  0.5507  1.1711
18256TIP3    H276260   3.138   1.174  14.575  1.0917 -1.3516  0.1399
18257TIP3   OH276261   3.396   2.150  16.301  0.1400  0.0714  0.1645
18257TIP3    H176262   3.480   2.163  16.344 -0.1839 -1.4965  1.3704
18257TIP3    H276263   3.371   2.061  16.324 -0.7009 -0.3927 -2.2180
18258TIP3   OH276264   6.071   2.414  12.677  0.0147  0.3137  0.2408
18258TIP3    H176265   6.155   2.442  12.639 -0.7704  1.4791 -0.7491
18258TIP3    H276266   6.033   2.495  12.711 -1.6492  0.2543 -1.2916
18259TIP3   OH276267   0.332   6.530  14.976  0.2180  0.2149 -0.3158
18259TIP3    H176268   0.382   6.593  15.027  0.1684 -0.3815  0.4894
18259TIP3    H276269   0.396   6.462  14.952 -0.1121 -0.3966  0.4641
18260TIP3   OH276270   0.414   0.246  14.012  0.3502 -0.4977  0.4253
18260TIP3    H176271   0.377   0.274  14.095  0.4460 -1.1770  0.7049
18260TIP3    H276272   0.340   0.248  13.951  0.6855  1.9765  0.0011
18261TIP3   OH276273   1.092   0.968  16.993  0.0018 -0.1720  0.1571
18261TIP3    H176274   1.173   1.018  16.987  0.6756 -1.0010  1.7742
18261TIP3    H276275   1.063   0.959  16.902  3.0542 -1.9964 -0.7781
18262TIP3   OH276276   3.547   3.100  16.520  0.5447  0.0202 -0.4149
18262TIP3    H176277   3.559   3.044  16.597  3.2686  2.2013  0.9277
18262TIP3    H276278   3.610   3.066  16.456  0.2043 -0.1590 -0.6532
18263TIP3   OH276279   2.897   3.909   3.818 -0.8014 -0.2313 -0.3755
18263TIP3    H176280   2.893   3.917   3.722 -0.1205  2.5473 -0.2831
18263TIP3    H276281   2.991   3.911   3.837 -0.8802 -1.9962  0.3384
18264TIP3   OH276282   3.825   4.771   0.246  0.3759 -0.1744 -0.4103
18264TIP3    H176283   3.853   4.849   0.199 -2.1687  0.6408 -0.7326
18264TIP3    H276284   3.789   4.714   0.178 -1.8530  0.3297  0.2542
18265TIP3   OH276285   4.419   0.693   0.741  0.5352  0.7467 -0.1647
18265TIP3    H176286   4.351   0.733   0.687 -0.3116 -0.8814 -0.3680
18265TIP3    H276287   4.374   0.622   0.787  1.8622  0.3396  0.5434
18266TIP3   OH276288   1.627   4.222   5.769  0.3527  0.4420 -0.1776
18266TIP3    H176289   1.705   4.247   5.719 -0.1344  1.1033 -0.6098
18266TIP3    H276290   1.612   4.295   5.828  0.8557 -0.2821  0.8860
18267TIP3   OH276291   2.554   4.542   0.292  0.3711 -0.3471  0.1790
18267TIP3    H176292   2.602   4.607   0.240 -0.0413 -0.9329 -0.9667
18267TIP3    H276293   2.622   4.483   0.325  0.6238 -0.0905  0.1254
18268TIP3   OH276294   6.243   3.094   3.270  0.7281  0.7139 -0.5948
18268TIP3    H176295   6.331   3.128   3.289  0.1441  1.5424  0.7945
18268TIP3    H276296   6.208   3.152   3.203  0.8346  1.0778 -0.3390
18269TIP3   OH276297   5.065   3.135  13.874  0.4669 -0.3100  0.4409
18269TIP3    H176298   5.033   3.111  13.787 -1.5323  2.5114  0.2571
18269TIP3    H276299   4.994   3.110  13.933  1.7038 -1.9683  1.3056
18270TIP3   OH276300   6.142   6.700  12.040  0.3221 -0.2798 -0.3194
18270TIP3    H176301   6.083   6.643  12.089 -0.0339  0.0098 -0.4033
18270TIP3    H276302   6.216   6.714  12.098 -0.4199  0.6323  0.4386
18271TIP3   OH276303   3.599   6.571   0.827 -0.3054  0.5094 -0.2686
18271TIP3    H176304   3.638   6.605   0.747 -0.2610  2.3049  0.4679
18271TIP3    H276305   3.509   6.603   0.826 -0.9088 -1.0964 -0.5112
18272TIP3   OH276306   6.040   1.140  10.480  0.4751  0.0568  0.3990
18272TIP3    H176307   6.074   1.106  10.397 -0.0210  1.6848 -0.5257
18272TIP3    H276308   6.013   1.062  10.529 -0.3526 -0.8964 -1.4684
18273TIP3   OH276309   4.734   4.305  14.366  0.1121  0.2719 -0.0575
18273TIP3    H176310   4.782   4.346  14.438  0.7972 -1.0440  0.2811
18273TIP3    H276311   4.643   4.304  14.394  0.0916  1.4767 -0.0516
18274TIP3   OH276312   2.811   0.343  13.039  0.1902  0.1489  0.1862
18274TIP3    H176313   2.717   0.347  13.023  0.1048  2.8069  0.8253
18274TIP3    H276314   2.819   0.298  13.123 -0.3723 -1.3740 -0.5489
18275TIP3   OH276315   4.747   4.056   0.097  0.5835 -0.1596 -0.0778
18275TIP3    H176316   4.658   4.042   0.129  0.8868 -0.7664  0.5437
18275TIP3    H276317   4.758   4.151   0.095 -0.1209 -0.0778 -0.3011
18276TIP3   OH276318   1.763   3.906  13.144 -0.5947 -0.0453 -0.1338
18276TIP3    H176319   1.750   3.832  13.085 -2.5650 -0.0927  0.3129
18276TIP3    H276320   1.749   3.871  13.231  1.2469  0.2683  0.3288
18277TIP3   OH276321   3.197   1.636  13.118 -0.4974  0.6696 -0.2199
18277TIP3    H176322   3.178   1.728  13.100  2.1405  1.4432  0.4461
18277TIP3    H276323   3.254   1.638  13.195 -1.6429 -1.6615  0.7786
18278TIP3   OH276324   6.215   0.238  15.485  0.2121 -0.0951 -0.1049
18278TIP3    H176325   6.124   0.241  15.457  0.0233 -0.1129  0.4943
18278TIP3    H276326   6.212   0.203  15.574  0.9255 -1.4852 -0.5935
18279TIP3   OH276327   2.954   3.148   4.319  0.4329  0.5148  0.6593
18279TIP3    H176328   2.961   3.192   4.235 -0.5944 -0.0787  0.2517
18279TIP3    H276329   2.953   3.055   4.298 -1.4084  0.3763  1.1645
18280TIP3   OH276330   5.044   1.708  14.559 -0.2016 -0.2266  0.3897
18280TIP3    H176331   5.001   1.744  14.636  1.6823 -1.2153  1.9895
18280TIP3    H276332   4.989   1.634  14.533  0.4654 -1.5306  2.4485
18281TIP3   OH276333   5.715   5.321  12.152 -0.5608 -0.4652 -0.4196
18281TIP3    H176334   5.792   5.329  12.096  1.5705  1.0863  2.4426
18281TIP3    H276335   5.680   5.411  12.156  0.2203 -0.2074  1.7645
18282TIP3   OH276336   2.305   4.645   0.906  0.6228  0.2164 -0.3254
18282TIP3    H176337   2.386   4.603   0.935  0.1710 -1.4175 -1.3186
18282TIP3    H276338   2.268   4.684   0.985  1.5377 -0.4505  0.4525
18283TIP3   OH276339   3.604   0.039  13.322  0.3610 -0.3560 -0.3874
18283TIP3    H176340   3.673  -0.017  13.286 -1.7643 -1.8728 -2.3243
18283TIP3    H276341   3.560  -0.015  13.387 -2.7682 -1.7983 -3.4203
18284TIP3   OH276342   6.118   4.131  16.778  0.2967  0.2930  0.4395
18284TIP3    H176343   6.033   4.102  16.746  1.5573 -2.0863 -1.1069
18284TIP3    H276344   6.104   4.154  16.869 -2.1146  0.6732  0.0278
18285TIP3   OH276345   1.662   3.990   0.687 -0.3406  0.1395 -0.3995
18285TIP3    H176346   1.583   3.947   0.719 -0.3950  0.6411  0.1513
18285TIP3    H276347   1.677   3.951   0.601 -0.8566 -0.3779 -0.2612
18286TIP3   OH276348   0.982   4.146  11.727 -0.5530  0.0369 -0.2234
18286TIP3    H176349   1.033   4.091  11.667 -1.5955 -0.3984 -0.7184
18286TIP3    H276350   0.972   4.229  11.681  0.9830  0.6712  0.5050
18287TIP3   OH276351   1.887   1.079  11.544 -0.3478  0.0950  0.1161
18287TIP3    H176352   1.879   1.158  11.598  0.2806 -0.2236  0.6811
18287TIP3    H276353   1.885   1.111  11.454  1.2074  0.8977  0.3431
18288TIP3   OH276354   4.869   3.396   2.258  0.0884 -0.0221  0.1094
18288TIP3    H176355   4.808   3.419   2.188  1.6863 -0.6585 -1.5691
18288TIP3    H276356   4.882   3.301   2.248  0.5878 -0.0597  1.0560
18289TIP3   OH276357   5.291   6.536  13.873  0.8629  0.0494  0.5881
18289TIP3    H176358   5.322   6.591  13.802  0.8840 -0.8417 -0.1130
18289TIP3    H276359   5.253   6.459  13.829  1.9009 -1.0557  1.5489
18290TIP3   OH276360   0.637   1.809  17.032 -0.0361 -0.4755 -0.2941
18290TIP3    H176361   0.553   1.781  16.995  1.0285 -1.1376 -2.3792
18290TIP3    H276362   0.680   1.855  16.960  1.0760  0.5769  0.9932
18291TIP3   OH276363   0.608   0.239   2.966  0.2283 -0.2104  0.4364
18291TIP3    H176364   0.590   0.230   2.873  1.9500  4.0771 -0.5529
18291TIP3    H276365   0.704   0.242   2.971  0.2007 -1.1166  2.5106
18292TIP3   OH276366   1.144   1.196  12.295  0.2658  0.4357  0.2910
18292TIP3    H176367   1.104   1.121  12.339 -1.0438 -0.2991 -2.0170
18292TIP3    H276368   1.113   1.272  12.344  0.5172 -0.4023  1.8381
18293TIP3   OH276369   1.966   5.573   1.758 -1.0197  0.2741 -0.7929
18293TIP3    H176370   1.960   5.594   1.852 -2.7534  3.0180 -1.3974
18293TIP3    H276371   2.050   5.611   1.731 -0.5370 -0.4822 -0.4229
18294TIP3   OH276372   6.402   0.812   3.571 -0.0363  0.1514  0.1268
18294TIP3    H176373   6.431   0.860   3.649 -1.1077  1.7999 -0.4406
18294TIP3    H276374   6.344   0.744   3.605 -1.4007  1.5491  0.7528
18295TIP3   OH276375   3.134   6.348  16.015 -0.6758 -0.5287  0.3881
18295TIP3    H176376   3.209   6.328  15.959 -0.8156  2.2219 -0.9628
18295TIP3    H276377   3.135   6.280  16.081  2.2051 -1.3885 -0.3772
18296TIP3   OH276378   0.977   4.216  13.504  0.2287 -0.0201  0.0395
18296TIP3    H176379   0.922   4.272  13.560  0.3347 -1.2654  1.4494
18296TIP3    H276380   0.915   4.163  13.454  0.1335  1.0870 -1.0724
18297TIP3   OH276381   4.034   2.792   3.842 -0.0103  0.1763 -0.1311
18297TIP3    H176382   3.940   2.800   3.824  0.0025 -0.4637 -0.5272
18297TIP3    H276383   4.056   2.704   3.813  0.8649  0.5715 -0.6957
18298TIP3   OH276384   5.648   1.714   4.897 -0.1696 -0.0314  0.8123
18298TIP3    H176385   5.716   1.780   4.913  1.1086 -0.8776 -0.7748
18298TIP3    H276386   5.652   1.700   4.802 -0.4341 -2.3488  1.1041
18299TIP3   OH276387   0.149   1.392   6.117  0.5445  0.2735  0.0590
18299TIP3    H176388   0.125   1.300   6.126  1.5019 -0.1553 -1.2714
18299TIP3    H276389   0.067   1.440   6.123 -0.1325 -0.7854 -0.4040
18300TIP3   OH276390   5.684   6.549   3.372 -0.1427  0.4401 -0.5765
18300TIP3    H176391   5.596   6.516   3.351  0.1962 -0.8553 -0.1151
18300TIP3    H276392   5.673   6.596   3.454 -0.0644 -1.7639  0.7918
18301TIP3   OH276393   0.696   2.748  11.869  0.3101 -0.4705  0.1379
18301TIP3    H176394   0.760   2.792  11.924 -0.1279  1.2447 -0.6532
18301TIP3    H276395   0.613   2.790  11.889 -0.9916 -3.6531  2.2511
18302TIP3   OH276396   2.762   5.333   1.139  0.3727 -0.0140  0.0224
18302TIP3    H176397   2.791   5.338   1.048 -1.2361 -0.1723 -0.5281
18302TIP3    H276398   2.842   5.345   1.191  1.5982 -1.5556 -1.3937
18303TIP3   OH276399   4.433   4.725  16.546 -0.2862  0.3894 -0.1035
18303TIP3    H176400   4.490   4.709  16.471 -0.1032 -0.7995  0.2792
18303TIP3    H276401   4.493   4.739  16.620 -0.4501  2.0865 -0.2494
18304TIP3   OH276402   5.542   5.980  15.943 -0.1237  0.1744  0.0048
18304TIP3    H176403   5.584   5.916  15.999 -0.7167  1.1616  1.6393
18304TIP3    H276404   5.610   6.007  15.882  0.3734 -1.3294 -0.1541
18305TIP3   OH276405   1.944   4.985  14.353 -0.0246  0.3209  0.5287
18305TIP3    H176406   1.932   4.948  14.265 -2.9870 -0.2700  1.0766
18305TIP3    H276407   1.928   5.079  14.341 -1.4911  0.0998  0.5527
18306TIP3   OH276408   1.830   0.307  16.379  0.0725  0.7894  0.4916
18306TIP3    H176409   1.743   0.324  16.344 -0.4507 -2.3152 -0.0005
18306TIP3    H276410   1.889   0.360  16.325 -0.9634 -1.8237 -3.5997
18307TIP3   OH276411   3.487   1.155  14.782  0.4572 -0.1138 -0.2879
18307TIP3    H176412   3.451   1.175  14.695 -1.4663 -1.7037  0.0786
18307TIP3    H276413   3.486   1.060  14.788  0.4356 -0.0400  1.5344
18308TIP3   OH276414   3.346   1.014  14.595  0.0268  0.1642 -0.4690
18308TIP3    H176415   3.384   0.927  14.593  0.2572  0.2228  0.8531
18308TIP3    H276416   3.257   1.001  14.628 -1.3586 -0.0185 -3.8265
18309TIP3   OH276417   1.509   3.115  12.905 -0.8186  0.2334 -0.0622
18309TIP3    H176418   1.467   3.193  12.942 -1.9746 -1.6501  2.9498
18309TIP3    H276419   1.588   3.103  12.958  0.2720  0.2132 -1.6046
18310TIP3   OH276420   1.592   6.792  15.521 -0.5543 -0.2820  0.0341
18310TIP3    H176421   1.579   6.857  15.590  0.3486  0.7114 -0.6910
18310TIP3    H276422   1.611   6.711  15.568 -0.8923  0.1574  0.9576
18311TIP3   OH276423   3.910   3.579  16.685  0.5045  0.1649 -0.2354
18311TIP3    H176424   3.823   3.619  16.689  1.2809  2.1511 -1.4270
18311TIP3    H276425   3.894   3.485  16.693 -1.6102  0.5643  0.8525
18312TIP3   OH276426   5.528   5.843  14.403 -0.6812  0.0486 -0.4224
18312TIP3    H176427   5.465   5.829  14.332 -2.7884  0.0229  1.3528
18312TIP3    H276428   5.584   5.765  14.399  0.5436  0.9311 -3.1942
18313TIP3   OH276429   0.899   0.345   4.026  0.8696 -0.1004  0.2859
18313TIP3    H176430   0.808   0.332   4.051  0.8114  2.8938  2.0919
18313TIP3    H276431   0.910   0.293   3.946 -2.1941 -1.0241  0.3441
18314TIP3   OH276432   3.709   6.699   6.696  0.4035 -0.0329 -0.0084
18314TIP3    H176433   3.646   6.660   6.635  0.8775  1.5443 -1.5740
18314TIP3    H276434   3.763   6.625   6.724 -0.4167 -0.9509 -0.7760
18315TIP3   OH276435   2.103   2.737  12.944  0.2322 -0.5178 -0.4859
18315TIP3    H176436   2.017   2.705  12.916 -1.5363  1.3570  2.2720
18315TIP3    H276437   2.105   2.828  12.914  1.6645 -0.7490 -1.1973
18316TIP3   OH276438   6.250   0.861  14.843  0.0859  0.3276 -0.6051
18316TIP3    H176439   6.220   0.923  14.910  0.0881 -0.0201 -0.2807
18316TIP3    H276440   6.232   0.775  14.880  1.1489  0.1134 -0.5521
18317TIP3   OH276441   3.283   6.343  13.471  0.5467  0.3633 -0.0628
18317TIP3    H176442   3.259   6.371  13.559  0.5049  0.1219  0.0024
18317TIP3    H276443   3.325   6.419  13.432  2.6668 -0.2142  0.9438
18318TIP3   OH276444   3.478   0.364  12.443  0.5976 -0.4909  0.7770
18318TIP3    H176445   3.504   0.287  12.393 -1.8764 -1.0423  0.1971
18318TIP3    H276446   3.501   0.342  12.534  1.9385 -0.9392  0.3495
18319TIP3   OH276447   1.740   0.196  14.519  0.8770  0.0290 -0.1851
18319TIP3    H176448   1.783   0.228  14.440  2.3227  0.1405  0.6099
18319TIP3    H276449   1.738   0.101  14.508  0.4335  0.0915 -0.6615
18320TIP3   OH276450   5.515   3.347   4.137 -0.2141 -0.0612  0.3742
18320TIP3    H176451   5.472   3.262   4.132  1.3904 -0.8918  0.0380
18320TIP3    H276452   5.518   3.366   4.231 -0.0891 -0.6381  0.4910
18321TIP3   OH276453   2.624   4.527  14.655 -0.1580 -0.0991 -0.0901
18321TIP3    H176454   2.541   4.495  14.691 -0.9004  0.1207 -1.5151
18321TIP3    H276455   2.657   4.588  14.721 -0.8710 -0.5817  0.7288
18322TIP3   OH276456   5.473   1.406   3.155 -0.0392 -0.5280 -0.0229
18322TIP3    H176457   5.451   1.372   3.068 -2.2221 -0.8165  0.5660
18322TIP3    H276458   5.469   1.501   3.146  2.1655 -0.4565 -0.7555
18323TIP3   OH276459   6.561   5.996   4.227 -0.2532  0.4422 -0.0223
18323TIP3    H176460   6.646   5.969   4.262  0.3882  1.0034 -1.0679
18323TIP3    H276461   6.497   5.941   4.272  0.6428  0.1839  0.9677
18324TIP3   OH276462   2.564   1.331  14.216 -0.2236 -0.4014 -0.5001
18324TIP3    H176463   2.595   1.260  14.160 -0.4860 -0.4666 -0.5637
18324TIP3    H276464   2.598   1.310  14.303  1.4108  0.4293 -0.8764
18325TIP3   OH276465   6.109   4.241   0.310  0.1611  0.0417 -0.2333
18325TIP3    H176466   6.013   4.236   0.314  0.0438  2.0611  0.5151
18325TIP3    H276467   6.133   4.302   0.380  1.9746 -0.1292 -0.6569
18326TIP3   OH276468   1.304   0.464   0.757 -0.6131  0.2737 -0.2270
18326TIP3    H176469   1.385   0.505   0.726  0.4232  0.4245  2.4081
18326TIP3    H276470   1.275   0.519   0.830 -1.2221 -1.6056  1.0195
18327TIP3   OH276471   6.399   6.811  15.367 -0.0742  0.3528 -0.0464
18327TIP3    H176472   6.479   6.780  15.410 -0.3345 -0.8559 -0.3973
18327TIP3    H276473   6.391   6.902  15.395  1.2908  0.4285  0.1893
18328TIP3   OH276474   4.300   2.145   4.084 -0.2397  0.3246  0.6413
18328TIP3    H176475   4.208   2.119   4.089 -0.2429 -0.0614 -1.0050
18328TIP3    H276476   4.308   2.193   4.002  1.1513 -0.1693  0.4455
18329TIP3   OH276477   0.652   4.744  13.770 -0.7956 -0.5216 -0.1006
18329TIP3    H176478   0.636   4.651  13.783 -0.6078 -0.8962 -2.2421
18329TIP3    H276479   0.576   4.775  13.721 -0.8112  0.4450  0.5099
18330TIP3   OH276480   6.831   4.234  13.244  0.3174  0.7481  0.1462
18330TIP3    H176481   6.772   4.165  13.277 -0.0227  1.1482  0.3908
18330TIP3    H276482   6.833   4.221  13.150 -0.6479  1.0885  0.0613
18331TIP3   OH276483   3.203   6.625  11.118  0.0087 -0.2404  0.0289
18331TIP3    H176484   3.161   6.707  11.143 -0.9804 -0.8941  0.5376
18331TIP3    H276485   3.279   6.618  11.176 -0.1588  0.0879  0.2869
18332TIP3   OH276486   1.098   2.436   3.155 -0.3623 -0.5810  0.0297
18332TIP3    H176487   1.067   2.345   3.147 -1.3905 -0.2103 -0.5457
18332TIP3    H276488   1.185   2.429   3.193 -0.5878 -1.7881  0.3695
18333TIP3   OH276489   2.423   6.183  13.384  0.4594 -0.0794 -0.1766
18333TIP3    H176490   2.490   6.146  13.326  0.7016  0.0671  0.0080
18333TIP3    H276491   2.340   6.159  13.343  0.6222 -0.4162 -0.3151
18334TIP3   OH276492   5.829   4.066  11.515 -0.0592 -0.4415  0.2457
18334TIP3    H176493   5.804   4.005  11.584 -0.9446  1.4416  1.6990
18334TIP3    H276494   5.917   4.095  11.540 -0.0053 -0.4551  0.0729
18335TIP3   OH276495   1.819   5.228  14.090  0.0447  0.3532 -0.3472
18335TIP3    H176496   1.757   5.299  14.077  1.5381  1.7503 -0.1035
18335TIP3    H276497   1.791   5.160  14.028 -3.7474 -0.5670  2.0313
18336TIP3   OH276498   1.469   2.394   3.670  0.4225  0.0079 -0.6865
18336TIP3    H176499   1.501   2.462   3.611  0.3897  1.3509  0.7908
18336TIP3    H276500   1.548   2.356   3.709  0.3996 -0.0397 -0.6862
18337TIP3   OH276501   2.003   4.699   2.767  0.3949  0.0652  1.0263
18337TIP3    H176502   2.041   4.620   2.729  1.5240  0.9890  0.1597
18337TIP3    H276503   1.997   4.761   2.693 -2.6651  0.0558  1.1477
18338TIP3   OH276504   2.705   2.260  17.015  0.7238  0.5791  0.1995
18338TIP3    H176505   2.687   2.204  16.940 -2.2466 -0.1690  1.3426
18338TIP3    H276506   2.790   2.229  17.048  1.0330 -0.5348 -1.5212
18339TIP3   OH276507   3.261   5.498  14.735  0.3204 -0.1506 -0.9535
18339TIP3    H176508   3.189   5.440  14.760  1.4546 -1.3331 -0.3063
18339TIP3    H276509   3.257   5.570  14.798 -0.1877 -0.3042 -0.8071
18340TIP3   OH276510   4.023   2.265  14.081  0.4763  0.3623 -0.7682
18340TIP3    H176511   4.113   2.237  14.066  0.1278 -1.3945  0.1765
18340TIP3    H276512   4.008   2.334  14.016  2.1156 -0.1370 -1.7216
18341TIP3   OH276513   2.949   4.879   4.378 -0.4059 -0.5449 -0.2780
18341TIP3    H176514   2.995   4.957   4.408 -0.4073 -0.6016 -0.1282
18341TIP3    H276515   3.000   4.847   4.303 -0.0226 -0.7914  0.0864
18342TIP3   OH276516   2.036   3.394   6.114  0.4087 -0.4792  0.2153
18342TIP3    H176517   2.070   3.381   6.202 -0.1217 -0.1310  0.4825
18342TIP3    H276518   2.024   3.306   6.079 -0.7022 -0.6683  1.0201
18343TIP3   OH276519   5.363   0.412   1.582 -0.2844  0.2020  0.0695
18343TIP3    H176520   5.279   0.374   1.554 -0.3914 -0.0836  0.7522
18343TIP3    H276521   5.359   0.503   1.551 -0.2976 -0.1518 -1.0251
18344TIP3   OH276522   6.812   0.404   2.817  0.2214  0.2202 -0.8294
18344TIP3    H176523   6.723   0.398   2.782 -0.2138  1.4069  0.0183
18344TIP3    H276524   6.852   0.319   2.796 -1.2357 -0.4796 -0.8730
18345TIP3   OH276525   4.696   4.912   4.530 -0.6836 -0.4342 -0.0758
18345TIP3    H176526   4.714   4.861   4.609 -0.2169  0.0671  0.1517
18345TIP3    H276527   4.711   4.852   4.458  3.0610  0.1543  0.0085
18346TIP3   OH276528   1.510   1.411   0.025  0.0947 -0.2887  0.2971
18346TIP3    H176529   1.426   1.414  -0.022 -0.9699  2.3721  2.1463
18346TIP3    H276530   1.572   1.381  -0.041 -1.7521  0.7581 -2.1036
18347TIP3   OH276531   5.945   6.735  14.523 -0.7691  0.2003 -0.4660
18347TIP3    H176532   6.016   6.762  14.581 -0.3701  2.1095 -1.7512
18347TIP3    H276533   5.989   6.697  14.447 -1.2439 -0.8725 -0.2281
18348TIP3   OH276534   0.598   2.699  10.311  0.0213 -0.1248 -0.6346
18348TIP3    H176535   0.606   2.604  10.306 -0.2159 -0.2705  1.1004
18348TIP3    H276536   0.686   2.732  10.292 -0.1145 -0.6070 -2.2405
18349TIP3   OH276537   5.428   2.296  14.608 -0.1418  0.1258  0.3247
18349TIP3    H176538   5.453   2.264  14.695 -0.6130  1.8249  1.1341
18349TIP3    H276539   5.510   2.303  14.560 -0.0149 -2.2681  0.0519
18350TIP3   OH276540   2.953   6.271   3.423 -0.2575 -0.0297  0.2353
18350TIP3    H176541   2.962   6.356   3.381  0.8914  0.7894  2.0110
18350TIP3    H276542   2.862   6.246   3.408 -1.0212  2.1753  0.8424
18351TIP3   OH276543   3.470   2.389  11.960  0.2404  0.0539  0.5500
18351TIP3    H176544   3.477   2.415  12.052 -1.7667 -0.5445  0.9324
18351TIP3    H276545   3.460   2.293  11.964 -0.5606  0.0948 -0.2172
18352TIP3   OH276546   4.777   1.680  12.006 -0.2167 -0.5502 -0.5602
18352TIP3    H176547   4.811   1.605  12.055 -1.7674  0.1170  1.6953
18352TIP3    H276548   4.758   1.746  12.073  0.0778  1.4640 -2.3701
18353TIP3   OH276549   6.544   5.880   5.109 -0.4066  0.0505 -0.1460
18353TIP3    H176550   6.590   5.847   5.032 -1.0554  0.4963 -0.7381
18353TIP3    H276551   6.575   5.825   5.181  1.6459  0.8271 -0.3626
18354TIP3   OH276552   0.230   2.749  11.210  0.1813 -0.1373 -0.8431
18354TIP3    H176553   0.277   2.831  11.223  2.4053 -1.6631  1.6709
18354TIP3    H276554   0.252   2.723  11.120  1.7830  0.6623 -0.7250
18355TIP3   OH276555   0.159   3.858  16.374  0.5419  0.1523  0.6567
18355TIP3    H176556   0.125   3.850  16.464 -1.7599  0.1835 -0.1348
18355TIP3    H276557   0.213   3.936  16.376 -0.6589  1.0142  1.7273
18356TIP3   OH276558   2.983   0.699   5.771 -0.2377  0.3088 -0.7997
18356TIP3    H176559   2.924   0.636   5.813  1.3007 -1.0250 -0.4871
18356TIP3    H276560   3.048   0.719   5.839  0.3410  0.8077 -1.4820
18357TIP3   OH276561   2.056   6.685  14.377  0.6508 -0.0621  0.1688
18357TIP3    H176562   2.141   6.705  14.338 -0.0911 -2.0062 -2.7512
18357TIP3    H276563   1.992   6.726  14.318 -0.5052  0.2781  1.5990
18358TIP3   OH276564   5.131   2.432  16.758  0.3132 -0.1458  0.2572
18358TIP3    H176565   5.063   2.472  16.703  0.5131  1.7762  1.3020
18358TIP3    H276566   5.084   2.399  16.834  0.4367  0.5779  0.6607
18359TIP3   OH276567   3.710   5.362  15.753  0.0035 -0.1249 -0.1540
18359TIP3    H176568   3.791   5.322  15.720 -0.0973 -0.2780 -0.2168
18359TIP3    H276569   3.727   5.456  15.750  0.7293 -0.1759  1.2219
18360TIP3   OH276570   5.490   1.033  14.664  0.1794  0.4098  0.6068
18360TIP3    H176571   5.419   1.097  14.662 -1.2330 -1.0908  0.8044
18360TIP3    H276572   5.534   1.048  14.748  0.1739  1.3837  0.4545
18361TIP3   OH276573   0.549   1.086   1.416  0.6847 -0.0317  0.3400
18361TIP3    H176574   0.639   1.058   1.401  0.9185  0.9806 -0.2699
18361TIP3    H276575   0.497   1.007   1.407  1.4030 -0.4222 -0.4513
18362TIP3   OH276576   6.536   2.598  13.271  0.2473  0.0316 -0.6824
18362TIP3    H176577   6.568   2.517  13.234 -1.3944 -0.8347 -0.2966
18362TIP3    H276578   6.547   2.663  13.202  0.3444 -0.8170 -1.4718
18363TIP3   OH276579   6.033   1.728  16.199  0.2980  0.5111  0.4694
18363TIP3    H176580   6.044   1.634  16.190 -0.6990  0.2771  1.4437
18363TIP3    H276581   6.037   1.761  16.109  3.5500 -0.0565  0.3126
18364TIP3   OH276582   5.642   5.960   5.839  0.4215  0.3790  0.0963
18364TIP3    H176583   5.733   5.938   5.817  0.7684  0.7078  1.1673
18364TIP3    H276584   5.645   5.987   5.930 -0.6421  1.1014 -0.0626
18365TIP3   OH276585   6.030   0.547  12.239  0.4616 -0.6421 -0.9342
18365TIP3    H176586   6.106   0.605  12.243  0.4695 -0.7048  2.5727
18365TIP3    H276587   5.987   0.570  12.156  0.6572  4.1734  0.0069
18366TIP3   OH276588   4.013   2.066   2.715 -0.1357 -0.7162 -0.2776
18366TIP3    H176589   3.985   2.093   2.627 -1.1777 -1.0538 -0.0586
18366TIP3    H276590   3.953   2.111   2.774  0.3454 -0.7625  0.2507
18367TIP3   OH276591   6.713   6.749   2.071  0.2998 -0.1823 -0.2403
18367TIP3    H176592   6.661   6.808   2.018  0.9425  0.2124 -0.4420
18367TIP3    H276593   6.656   6.726   2.145  0.1327  0.8774 -0.0324
18368TIP3   OH276594   2.793   0.596   4.332 -0.5266 -0.5455 -0.7569
18368TIP3    H176595   2.868   0.563   4.383 -0.2566 -1.5558 -1.7754
18368TIP3    H276596   2.761   0.671   4.383 -0.0325 -1.2846  0.6971
18369TIP3   OH276597   6.444   5.350   2.745  0.1974  0.8170 -0.2920
18369TIP3    H176598   6.358   5.354   2.788 -1.2579  0.7940 -2.9858
18369TIP3    H276599   6.440   5.271   2.691  0.7683  2.2777 -2.6116
18370TIP3   OH276600   1.313   0.557   2.037 -0.9571  0.5143 -0.4173
18370TIP3    H176601   1.220   0.574   2.050 -0.9658  0.7407 -0.7519
18370TIP3    H276602   1.348   0.546   2.126 -1.3439  0.1848 -0.3049
18371TIP3   OH276603   6.289   2.605  17.209  0.0142 -0.2620  0.0274
18371TIP3    H176604   6.300   2.589  17.302 -1.5350 -0.5781  0.1919
18371TIP3    H276605   6.221   2.672  17.204  0.5506  0.2422 -0.8665
18372TIP3   OH276606   2.558   2.732  16.065 -0.5752  0.3533  0.3297
18372TIP3    H176607   2.637   2.718  16.012 -0.5022  0.3729  0.4341
18372TIP3    H276608   2.523   2.644  16.080  0.5982  0.1350  2.0944
18373TIP3   OH276609   5.277   2.300   4.008  0.1261 -0.3036 -0.1861
18373TIP3    H176610   5.276   2.381   3.957 -3.0916  0.1619  0.4086
18373TIP3    H276611   5.276   2.231   3.943 -0.0621  0.1997 -0.7299
18374TIP3   OH276612   6.598   5.715  13.577 -0.4452 -0.1537 -0.0538
18374TIP3    H176613   6.667   5.736  13.514  0.6453 -1.0545  0.7821
18374TIP3    H276614   6.519   5.706  13.524  0.3919 -0.6878 -1.2758
18375TIP3   OH276615   0.640   1.116  13.861 -0.1522  0.0706  0.0620
18375TIP3    H176616   0.726   1.087  13.893 -1.0694 -2.6957  0.3190
18375TIP3    H276617   0.623   1.061  13.784 -1.5510  0.8360 -0.2240
18376TIP3   OH276618   0.248   2.873   4.663  0.2056  0.0194  0.4422
18376TIP3    H176619   0.257   2.808   4.593 -1.9640  1.5314 -1.3794
18376TIP3    H276620   0.335   2.910   4.673  0.3987  0.5052 -2.3089
18377TIP3   OH276621   2.791   0.444   2.826 -0.2462  0.7090  0.0986
18377TIP3    H176622   2.781   0.529   2.785  0.6851  0.4706 -0.6781
18377TIP3    H276623   2.728   0.443   2.897 -1.3286  1.4613 -0.8182
18378TIP3   OH276624   0.302   1.709   1.910 -0.2642  0.3937  0.0881
18378TIP3    H176625   0.266   1.797   1.900  1.8582  1.0353 -3.7908
18378TIP3    H276626   0.397   1.722   1.912  0.2086 -1.7877 -2.5758
18379TIP3   OH276627   3.478   4.433   2.862 -0.2825  0.0753  1.0136
18379TIP3    H176628   3.480   4.475   2.948  0.8663  0.3001  0.8922
18379TIP3    H276629   3.561   4.386   2.857 -0.6148 -0.4405  0.2701
18380TIP3   OH276630   2.274   1.593   3.506 -0.3656  0.5933 -0.2994
18380TIP3    H176631   2.299   1.563   3.419 -4.3474 -1.8331 -0.8642
18380TIP3    H276632   2.192   1.641   3.492 -1.3459 -0.2099  2.0796
18381TIP3   OH276633   5.644   5.828  14.073  0.1712 -0.3808  0.1481
18381TIP3    H176634   5.651   5.753  14.014 -1.4584 -2.4244  2.3285
18381TIP3    H276635   5.703   5.808  14.145 -0.6831  0.1545  1.0234
18382TIP3   OH276636   6.781   4.510   5.123 -0.3867 -0.0434 -0.3514
18382TIP3    H176637   6.751   4.436   5.176  0.2986 -0.1953 -0.1583
18382TIP3    H276638   6.876   4.500   5.122 -0.3261  0.5836 -0.7002
18383TIP3   OH276639   0.923   4.130   2.708  0.2619 -0.1863 -0.2470
18383TIP3    H176640   0.959   4.218   2.703  1.9028 -0.8245 -0.0377
18383TIP3    H276641   0.990   4.074   2.670  0.7474 -1.7616  2.7145
18384TIP3   OH276642   3.165   1.995  14.976 -1.0169  0.4074 -0.1034
18384TIP3    H176643   3.191   2.030  15.061 -0.7360 -1.0685  0.4276
18384TIP3    H276644   3.197   2.060  14.913 -0.9695  1.3661  0.8778
18385TIP3   OH276645   6.007   0.258  14.563  0.2433  0.0984  0.2407
18385TIP3    H176646   6.008   0.163  14.574  0.6807 -0.1490 -1.5811
18385TIP3    H276647   6.097   0.286  14.576  1.3247 -0.5181 -4.3456
18386TIP3   OH276648   6.319   3.137  13.110 -0.0479 -0.2501  0.1542
18386TIP3    H176649   6.365   3.112  13.030  0.2843  1.8865 -0.3775
18386TIP3    H276650   6.248   3.074  13.118  1.6609 -2.3511 -0.1643
18387TIP3   OH276651   3.833   5.539   0.736  0.1599 -0.6202  0.4271
18387TIP3    H176652   3.788   5.456   0.751 -0.9446  0.2719  2.4599
18387TIP3    H276653   3.768   5.593   0.691  0.7122 -0.6822 -0.4665
18388TIP3   OH276654   0.199   4.108  12.751 -0.1021 -0.1742 -0.0936
18388TIP3    H176655   0.213   4.066  12.666 -1.0931 -0.1108 -0.3033
18388TIP3    H276656   0.113   4.078  12.778  0.2675 -0.3062  0.9658
18389TIP3   OH276657   3.793   0.072   4.715 -0.7713 -0.0249  0.2185
18389TIP3    H176658   3.826   0.096   4.628 -2.1540  0.6485 -0.1506
18389TIP3    H276659   3.811  -0.022   4.723  1.8775  0.4217  0.3724
18390TIP3   OH276660   3.490   6.167  11.761 -0.9074 -0.4209 -0.3962
18390TIP3    H176661   3.414   6.187  11.816 -1.5550 -2.3635 -0.5100
18390TIP3    H276662   3.485   6.231  11.689  0.3525  2.6253  2.0219
18391TIP3   OH276663   1.280   4.475  12.626  0.1100  0.2451 -0.2812
18391TIP3    H176664   1.296   4.537  12.697 -2.3855  0.5333  0.1176
18391TIP3    H276665   1.331   4.508  12.552  1.8803  0.5580  1.0093
18392TIP3   OH276666   5.840   2.328  16.185 -0.2076 -0.2691 -0.4085
18392TIP3    H176667   5.861   2.247  16.138 -0.3976 -0.8592  0.4896
18392TIP3    H276668   5.780   2.300  16.255  2.5033 -0.0364  2.2363
18393TIP3   OH276669   2.154   2.622  15.424  0.3215 -0.0931 -0.2528
18393TIP3    H176670   2.188   2.624  15.514  0.9219 -2.3813 -0.3459
18393TIP3    H276671   2.202   2.550  15.383 -1.9477 -0.9429 -1.5506
18394TIP3   OH276672   2.631   1.055  14.051 -0.4092 -0.1035 -0.5081
18394TIP3    H176673   2.616   1.012  13.967  0.5576  1.1621 -1.3673
18394TIP3    H276674   2.709   1.109  14.037 -0.4003  0.3603  1.1199
18395TIP3   OH276675   5.435   1.484   1.329  0.4984 -0.2315  0.3490
18395TIP3    H176676   5.420   1.536   1.250  2.1656  1.9108  1.3515
18395TIP3    H276677   5.352   1.438   1.344 -0.8723  1.6903 -0.9294
18396TIP3   OH276678   3.465   3.137  15.796  0.2587 -0.1529 -0.4458
18396TIP3    H176679   3.467   3.116  15.889  0.4525 -0.2167 -0.4642
18396TIP3    H276680   3.491   3.056  15.752 -1.4802 -0.6290 -0.6440
18397TIP3   OH276681   1.623   5.260   0.198  0.4612 -0.0664 -0.2077
18397TIP3    H176682   1.708   5.219   0.213  0.3975 -0.7719 -1.5813
18397TIP3    H276683   1.597   5.229   0.111 -0.6783  1.0409 -0.2896
18398TIP3   OH276684   1.311   6.437   0.711  0.1376 -0.3353  0.6391
18398TIP3    H176685   1.251   6.483   0.771  0.7497  3.3949 -1.2917
18398TIP3    H276686   1.392   6.429   0.761  0.4735  2.2003  0.6183
18399TIP3   OH276687   5.051   1.729  11.302  0.7311  0.1083  0.3614
18399TIP3    H176688   5.013   1.674  11.370 -0.2833 -0.6157 -0.7345
18399TIP3    H276689   5.139   1.694  11.289  0.2493 -1.0227 -0.0167
18400TIP3   OH276690   0.482   4.418   0.103 -0.2959 -0.2767  0.1447
18400TIP3    H176691   0.489   4.513   0.117 -0.5032 -0.0947 -0.9088
18400TIP3    H276692   0.418   4.389   0.168  1.1800 -0.0382  1.8013
18401TIP3   OH276693   4.227   5.607   2.868 -0.3845 -0.2784 -0.1609
18401TIP3    H176694   4.231   5.550   2.792  1.4649  0.2214 -0.4983
18401TIP3    H276695   4.225   5.547   2.943  0.5113 -0.7981 -0.5400
18402TIP3   OH276696   0.572   2.194  16.570 -0.4761  0.4339 -0.0803
18402TIP3    H176697   0.530   2.200  16.484  1.8867 -0.6387 -1.4106
18402TIP3    H276698   0.663   2.218  16.554  0.4268 -1.4321  1.7387
18403TIP3   OH276699   0.008   0.573   2.444  0.5965  0.2921 -0.4815
18403TIP3    H176700  -0.062   0.597   2.505 -0.8681  0.1726 -2.0210
18403TIP3    H276701  -0.012   0.623   2.364  2.2469  0.1933 -0.9896
18404TIP3   OH276702   0.567   5.050   1.898 -0.0679  0.4987  0.1666
18404TIP3    H176703   0.610   5.115   1.844  1.0056 -0.9359 -0.7809
18404TIP3    H276704   0.476   5.049   1.867  0.2262  0.6189 -0.7168
18405TIP3   OH276705   3.721   4.448   5.331 -0.8412 -0.3481 -0.2502
18405TIP3    H176706   3.745   4.394   5.406 -2.8115 -1.7662 -0.5724
18405TIP3    H276707   3.764   4.407   5.257  0.3312  0.4977 -0.0637
18406TIP3   OH276708   1.728   3.811  10.615  0.2541 -0.2042 -0.1041
18406TIP3    H176709   1.819   3.792  10.594  0.8055  2.2312 -0.2264
18406TIP3    H276710   1.727   3.819  10.711  0.4566  0.8944 -0.1777
18407TIP3   OH276711   2.769   1.848  14.239  0.2600  0.2517 -0.3905
18407TIP3    H176712   2.779   1.936  14.277 -0.4699 -0.4580  1.5614
18407TIP3    H276713   2.815   1.791  14.300 -3.9036 -1.4103  1.6043
18408TIP3   OH276714   0.880   1.424   1.393 -0.2331  0.1751 -0.0870
18408TIP3    H176715   0.938   1.478   1.341  0.1524  0.5373  0.6994
18408TIP3    H276716   0.898   1.334   1.365  0.5060  0.3068 -0.0564
18409TIP3   OH276717   3.636   1.225  11.665  0.0627 -0.4135  0.0538
18409TIP3    H176718   3.549   1.207  11.628 -0.0684  0.7905 -0.2720
18409TIP3    H276719   3.671   1.139  11.687 -1.1473 -0.9322  0.0328
18410TIP3   OH276720   1.697   0.290   5.778  0.4447  0.4700 -0.1117
18410TIP3    H176721   1.678   0.324   5.866 -1.4465 -1.0446  0.1487
18410TIP3    H276722   1.752   0.213   5.794  0.0873  0.1853 -0.2268
18411TIP3   OH276723   1.061   2.761   0.548  0.1656  0.0194  0.1862
18411TIP3    H176724   1.047   2.827   0.615  2.5889 -0.6129  1.4155
18411TIP3    H276725   1.037   2.805   0.466 -0.2459  1.6996  1.1603
18412TIP3   OH276726   5.804   6.223  13.617  0.7087 -0.5983  0.4079
18412TIP3    H176727   5.725   6.181  13.652  0.9278 -1.0747  0.3346
18412TIP3    H276728   5.801   6.312  13.652  0.5612 -0.8556  1.0629
18413TIP3   OH276729   5.178   5.799  14.849 -0.1545  0.7221 -0.2319
18413TIP3    H176730   5.139   5.713  14.866 -1.7616  1.4294 -0.1546
18413TIP3    H276731   5.254   5.780  14.794 -0.9426 -0.6895 -0.9032
18414TIP3   OH276732   5.324   6.645  12.996  0.9233 -0.5564 -0.4204
18414TIP3    H176733   5.259   6.610  12.935  1.0633 -0.7047 -0.4872
18414TIP3    H276734   5.401   6.662  12.941  0.9293 -0.3484 -0.3476
18415TIP3   OH276735   6.090   5.187   6.527  0.0841  1.0161  0.5518
18415TIP3    H176736   6.179   5.154   6.541 -0.0992 -0.0291 -0.5354
18415TIP3    H276737   6.094   5.279   6.551  1.1642  0.7137  1.6461
18416TIP3   OH276738   5.295   5.054   5.220 -0.1039  0.0332 -0.4267
18416TIP3    H176739   5.369   5.025   5.273  0.0317  2.0738  0.5629
18416TIP3    H276740   5.227   5.076   5.283 -0.1972  1.8345 -1.0911
18417TIP3   OH276741   6.509   4.803   2.495  0.0858  0.1049 -0.3223
18417TIP3    H176742   6.421   4.835   2.516  0.3161 -0.3873  1.6281
18417TIP3    H276743   6.530   4.844   2.411 -2.3320 -0.4346 -1.2915
18418TIP3   OH276744   0.528   0.934  12.259 -0.1599  0.1902  0.4242
18418TIP3    H176745   0.476   1.007  12.225 -0.7372 -0.8564 -1.0007
18418TIP3    H276746   0.599   0.924  12.196  0.4437  0.0921  1.1079
18419TIP3   OH276747   5.911   4.448  16.683 -0.2680 -0.2147  0.5398
18419TIP3    H176748   5.854   4.417  16.753 -1.2547 -0.9124 -0.5248
18419TIP3    H276749   5.998   4.452  16.722 -0.8565 -0.2444  1.8892
18420TIP3   OH276750   3.221   5.946   0.350  0.1703 -0.1994 -0.3889
18420TIP3    H176751   3.307   5.971   0.383  0.3645 -0.0635 -0.9748
18420TIP3    H276752   3.165   5.942   0.427  1.0170 -1.6649  0.1901
18421TIP3   OH276753   6.229   6.485  15.241 -0.2133 -0.4565  0.3455
18421TIP3    H176754   6.234   6.434  15.322  2.3470 -0.2056  0.3979
18421TIP3    H276755   6.308   6.463  15.193 -0.9851  0.4997 -1.4672
18422TIP3   OH276756   5.312   4.200   0.913 -0.2143  0.2656  0.1697
18422TIP3    H176757   5.292   4.147   0.835 -0.4638 -1.2484  1.2275
18422TIP3    H276758   5.405   4.220   0.904  0.8420 -3.2638  1.3279
18423TIP3   OH276759   1.376   4.225  15.673  0.0662  0.5327 -0.0838
18423TIP3    H176760   1.444   4.284  15.705 -0.3993  1.9578 -1.6285
18423TIP3    H276761   1.308   4.228  15.740  1.1554 -0.3641  1.1372
18424TIP3   OH276762   6.525   0.414   3.046  0.1410 -0.0044 -0.5599
18424TIP3    H176763   6.578   0.428   3.125 -1.1522  1.3435  0.0986
18424TIP3    H276764   6.589   0.415   2.975  1.3394 -1.2309  0.4332
18425TIP3   OH276765   0.117   0.969   3.697  0.6378 -0.2051  0.0610
18425TIP3    H176766   0.144   0.935   3.611 -0.1633  2.9061 -1.5592
18425TIP3    H276767   0.179   0.930   3.758  0.6754 -3.2918 -1.7131
18426TIP3   OH276768   2.682   4.527  16.875  0.3164 -0.0558  0.2432
18426TIP3    H176769   2.731   4.446  16.891  0.8513 -0.0397 -1.1634
18426TIP3    H276770   2.646   4.516  16.787  1.2898  1.6556 -0.4084
18427TIP3   OH276771   4.690   3.033   2.587  0.5988 -0.2990 -0.3520
18427TIP3    H176772   4.617   3.095   2.587 -0.5797 -1.6222 -0.1476
18427TIP3    H276773   4.712   3.023   2.495  1.9639  1.6719 -0.2970
18428TIP3   OH276774   4.824   4.950   5.488  0.3942  0.1252  0.0430
18428TIP3    H176775   4.782   4.926   5.570  1.4027  0.8290  0.7880
18428TIP3    H276776   4.909   4.905   5.490 -0.6495 -2.1487 -1.9159
18429TIP3   OH276777   5.028   1.737  11.792 -0.5872 -0.2480 -0.3171
18429TIP3    H176778   5.045   1.660  11.738  0.9922  0.8058 -1.4045
18429TIP3    H276779   5.018   1.702  11.881  1.7249 -1.6149 -0.5045
18430TIP3   OH276780   1.271   0.030   4.442  0.3384  0.4461 -0.3358
18430TIP3    H176781   1.335  -0.041   4.449 -0.0212  0.2568  1.5868
18430TIP3    H276782   1.187  -0.014   4.431  0.2215  0.6023 -0.0712
18431TIP3   OH276783   3.198   0.907   2.916  0.0665 -0.5310 -0.3233
18431TIP3    H176784   3.264   0.962   2.958 -1.9212  0.6102  1.5157
18431TIP3    H276785   3.232   0.890   2.828  2.5397  0.3855  0.3977
18432TIP3   OH276786   1.040   3.944   3.514 -0.0171 -0.2432 -0.3106
18432TIP3    H176787   1.046   3.850   3.532 -1.5845 -0.4244 -0.5902
18432TIP3    H276788   1.019   3.983   3.599 -2.4202 -0.5259 -0.7234
18433TIP3   OH276789   5.903   2.234   2.678  0.1355 -0.3961 -0.5755
18433TIP3    H176790   5.971   2.233   2.747  0.3698 -0.0599 -0.8006
18433TIP3    H276791   5.947   2.271   2.602 -0.6447  1.0232 -0.3688
18434TIP3   OH276792   1.192   2.533   0.196  0.3709  0.7776  0.1783
18434TIP3    H176793   1.136   2.596   0.241  0.4222  1.4054 -0.6122
18434TIP3    H276794   1.131   2.481   0.143  0.5546  1.8329 -1.1262
18435TIP3   OH276795   5.816   5.152   6.483  0.3906 -0.1641  0.2974
18435TIP3    H176796   5.788   5.241   6.506  0.3849  0.1889 -0.9921
18435TIP3    H276797   5.911   5.154   6.490  0.3012 -1.0185  3.4705
18436TIP3   OH276798   1.473   1.867  10.745  0.3479  0.1991 -0.8224
18436TIP3    H176799   1.431   1.836  10.665  2.5841  0.7928 -2.3308
18436TIP3    H276800   1.505   1.788  10.787  1.2358  0.0159 -1.7961
18437TIP3   OH276801   6.458   0.849   1.131 -0.1945 -0.0034  0.1038
18437TIP3    H176802   6.482   0.786   1.199 -0.0608  0.8315  0.8335
18437TIP3    H276803   6.396   0.908   1.173  1.0884  1.4857 -0.0114
18438TIP3   OH276804   4.732   5.452   1.375 -0.2553  0.1838 -0.0296
18438TIP3    H176805   4.655   5.468   1.321 -0.2919 -0.9690 -0.3515
18438TIP3    H276806   4.782   5.533   1.370 -1.1097  0.7053 -0.3725
18439TIP3   OH276807   3.688   0.187   5.978 -0.7545 -0.4406  0.2689
18439TIP3    H176808   3.623   0.257   5.983  0.1913  0.4229  1.2706
18439TIP3    H276809   3.766   0.230   5.942 -0.0951 -0.9015  1.1119
18440TIP3   OH276810   2.245   0.544  12.200 -0.5513  0.1642 -0.3532
18440TIP3    H176811   2.255   0.481  12.272  1.4174  0.9281  0.1125
18440TIP3    H276812   2.271   0.495  12.122  1.6755  0.4853  0.0980
18441TIP3   OH276813   2.371   4.786  15.468 -0.5563 -0.0358 -0.1885
18441TIP3    H176814   2.369   4.727  15.543  1.3937  0.5563  0.3737
18441TIP3    H276815   2.420   4.862  15.498  1.1345 -0.1966 -2.3316
18442TIP3   OH276816   5.935   1.083  15.223 -0.3936 -0.7035  0.3163
18442TIP3    H176817   5.844   1.113  15.226  0.2387  1.4174  0.2406
18442TIP3    H276818   5.977   1.131  15.295  1.0609 -0.0848 -0.8983
18443TIP3   OH276819   6.437   3.238  16.459 -0.6015 -0.4539 -0.2100
18443TIP3    H176820   6.496   3.313  16.452  0.0265 -0.8399  0.8588
18443TIP3    H276821   6.463   3.180  16.387 -0.2346 -0.2451 -0.2491
18444TIP3   OH276822   5.702   6.422  15.305 -0.6597  0.1860 -0.5792
18444TIP3    H176823   5.675   6.498  15.254 -0.5139  1.2901  0.9259
18444TIP3    H276824   5.797   6.432  15.315 -0.8390  0.6618  0.9036
18445TIP3   OH276825   6.839   6.727  14.039 -0.5721  0.6959  0.2338
18445TIP3    H176826   6.818   6.789  13.969 -3.6097  0.0533  0.4156
18445TIP3    H276827   6.794   6.647  14.014  2.2122 -1.1106  0.6330
18446TIP3   OH276828   6.214   6.254   1.929 -0.4343  0.6386  0.4312
18446TIP3    H176829   6.254   6.311   1.995 -1.3842  2.2284 -0.2907
18446TIP3    H276830   6.246   6.288   1.846 -0.7307 -0.1262 -0.0029
18447TIP3   OH276831   6.472   1.666   4.125 -0.0245 -0.1142 -0.3189
18447TIP3    H176832   6.491   1.760   4.129 -1.1057  0.1359 -0.5752
18447TIP3    H276833   6.525   1.633   4.052  1.4269  0.0034  0.6396
18448TIP3   OH276834   5.434   3.177  11.130 -0.1257 -0.0055 -0.0304
18448TIP3    H176835   5.471   3.207  11.047  1.7476  1.2389  1.1756
18448TIP3    H276836   5.448   3.082  11.129  0.9468  0.1375 -0.6581
18449TIP3   OH276837   3.471   1.127  13.229  0.1749  0.2163 -0.9846
18449TIP3    H176838   3.537   1.107  13.163  0.7326 -1.4930  0.0334
18449TIP3    H276839   3.450   1.042  13.269 -0.3066  1.1637  0.8858
18450TIP3   OH276840   4.106   1.969   4.348  0.2830  0.3382 -0.0352
18450TIP3    H176841   4.117   2.058   4.382  2.9224  0.0930 -0.0568
18450TIP3    H276842   4.143   1.913   4.416 -0.8651 -0.7289 -0.2572
18451TIP3   OH276843   0.257   4.157   4.498  0.2297  0.2445 -0.9211
18451TIP3    H176844   0.271   4.063   4.487 -0.4578  0.3557 -3.2866
18451TIP3    H276845   0.341   4.190   4.531 -0.0582 -1.3647  1.7663
18452TIP3   OH276846   2.494   0.067  15.424 -0.7989  0.4556  0.3868
18452TIP3    H176847   2.559   0.083  15.493 -0.4648  2.1161 -0.2558
18452TIP3    H276848   2.462   0.154  15.401 -1.6953 -0.1583 -0.8026
18453TIP3   OH276849   6.757   5.511  10.980  0.3289 -0.1374  0.2579
18453TIP3    H176850   6.826   5.500  10.915  0.0046  1.9733 -0.5349
18453TIP3    H276851   6.676   5.493  10.932  0.2353 -1.8532  0.9900
18454TIP3   OH276852   3.332   2.438   4.216  0.1496  0.1415 -0.0260
18454TIP3    H176853   3.414   2.400   4.185 -0.1770 -0.3311 -0.3135
18454TIP3    H276854   3.345   2.450   4.310 -0.4875 -2.6893  0.5168
18455TIP3   OH276855   5.357   5.656   0.807  0.5224 -0.3713  0.3499
18455TIP3    H176856   5.352   5.734   0.751 -0.0688  0.4872  1.5546
18455TIP3    H276857   5.277   5.658   0.858  0.6497 -1.6201  0.6310
18456TIP3   OH276858   5.454   2.863  13.083  0.1747 -0.8099  0.5091
18456TIP3    H176859   5.464   2.809  13.162 -1.2109 -2.6503 -0.4951
18456TIP3    H276860   5.532   2.844  13.031 -0.1377 -1.6413  0.3195
18457TIP3   OH276861   0.297   4.214   2.006  0.3775 -0.7891 -0.1926
18457TIP3    H176862   0.240   4.203   1.930 -0.9640 -0.2217  0.6839
18457TIP3    H276863   0.280   4.136   2.059  0.9323 -0.9391 -0.2298
18458TIP3   OH276864   4.726   4.950  13.975  0.2445 -0.1885 -0.0881
18458TIP3    H176865   4.693   5.039  13.963 -1.4683 -1.0290 -2.2431
18458TIP3    H276866   4.659   4.906  14.028  0.5881 -0.4923  0.1045
18459TIP3   OH276867   3.474   0.086   4.007  0.4975 -0.2598  0.0592
18459TIP3    H176868   3.405   0.030   3.973  1.1188 -2.7987  2.5982
18459TIP3    H276869   3.432   0.134   4.079  0.6608  0.5549 -0.3706
18460TIP3   OH276870   2.855   4.190   2.254 -0.4043  0.6615 -0.0985
18460TIP3    H176871   2.823   4.241   2.329  0.1616  0.3113  0.3822
18460TIP3    H276872   2.946   4.169   2.275  0.1839  1.6766 -1.4768
18461TIP3   OH276873   3.907   6.828   5.984 -0.0608 -0.4201  0.1688
18461TIP3    H176874   3.818   6.862   5.981 -0.8537 -2.4123  0.0431
18461TIP3    H276875   3.907   6.763   6.054  0.6785 -2.0194 -1.2386
18462TIP3   OH276876   0.649   3.591  14.883 -0.2198 -0.3308 -0.1282
18462TIP3    H176877   0.718   3.656  14.870 -1.3135  1.6180  2.8737
18462TIP3    H276878   0.694   3.516  14.920  0.7120 -0.4150 -1.3469
18463TIP3   OH276879   2.820   4.366   4.517 -0.0372 -0.2677  0.1273
18463TIP3    H176880   2.777   4.335   4.438  1.8446 -0.8090 -0.7386
18463TIP3    H276881   2.914   4.353   4.501  0.3883 -1.2030  2.7549
18464TIP3   OH276882   3.357   2.346  12.736 -0.0102  0.2694  0.5160
18464TIP3    H176883   3.417   2.299  12.678 -0.4186  1.2592 -0.7559
18464TIP3    H276884   3.273   2.302  12.724 -0.2297  0.8395 -0.1301
18465TIP3   OH276885   4.197   3.802   2.762  0.9174 -0.1708  0.7750
18465TIP3    H176886   4.187   3.855   2.840 -0.9960  0.2740  0.2682
18465TIP3    H276887   4.292   3.793   2.751  1.2505  1.5707  1.9140
18466TIP3   OH276888   0.554   2.234  17.179 -0.4784  0.0976 -0.4184
18466TIP3    H176889   0.647   2.229  17.156 -0.4509 -0.5495 -0.2129
18466TIP3    H276890   0.533   2.327  17.177 -0.0162  0.1933 -1.2151
18467TIP3   OH276891   3.051   4.879  14.179  0.0242  0.2183 -0.3580
18467TIP3    H176892   3.142   4.856  14.156  0.5469 -0.2651  1.9605
18467TIP3    H276893   3.053   4.973  14.195 -0.0623  0.3338 -0.9966
18468TIP3   OH276894   6.242   0.388   3.120 -0.0703 -0.1139  0.0501
18468TIP3    H176895   6.321   0.345   3.088 -1.8823 -3.0573 -0.8731
18468TIP3    H276896   6.250   0.479   3.090  1.7185 -0.9770 -2.3858
18469TIP3   OH276897   1.328   2.623  13.751 -0.5731 -0.3386  0.4160
18469TIP3    H176898   1.240   2.588  13.734 -0.2906  0.1902 -2.6305
18469TIP3    H276899   1.336   2.697  13.691  1.4874  0.4937  1.6304
18470TIP3   OH276900   5.808   5.889  16.614  0.2258 -0.2275  0.2062
18470TIP3    H176901   5.715   5.868  16.624  0.5501 -0.6731  3.7546
18470TIP3    H276902   5.810   5.985  16.608 -0.4631 -0.2396 -0.3120
18471TIP3   OH276903   4.514   1.212  15.447  0.4330 -0.5863 -0.0027
18471TIP3    H176904   4.605   1.212  15.417  0.9386 -1.1200  1.4664
18471TIP3    H276905   4.507   1.136  15.504 -0.6119  0.1104  0.8407
18472TIP3   OH276906   1.366   3.672   4.245 -0.0860  0.1716 -0.7607
18472TIP3    H176907   1.417   3.697   4.168 -0.7889  0.0638 -1.2724
18472TIP3    H276908   1.384   3.578   4.256  1.8026  0.6413  0.5918
18473TIP3   OH276909   5.956   5.371   5.498  0.5957  0.1225 -0.3292
18473TIP3    H176910   5.999   5.391   5.582  2.5254 -1.4670 -0.8801
18473TIP3    H276911   5.902   5.295   5.517  1.0730 -0.2691 -0.5231
18474TIP3   OH276912   5.294   0.472  16.141  0.5059 -0.2429 -0.2917
18474TIP3    H176913   5.312   0.379  16.127  0.6348 -0.0768 -1.3443
18474TIP3    H276914   5.205   0.474  16.176 -0.5761 -0.6704 -2.7651
18475TIP3   OH276915   4.529   2.499  15.268  0.1612  0.2689 -0.8236
18475TIP3    H176916   4.562   2.435  15.330 -0.1211  0.3090 -0.6298
18475TIP3    H276917   4.603   2.557  15.251  0.7361 -0.7004 -1.7893
18476TIP3   OH276918   3.925   4.468  13.001 -0.3056 -0.6203 -0.0937
18476TIP3    H176919   3.877   4.500  13.077 -0.4437  2.7391 -1.3957
18476TIP3    H276920   3.858   4.444  12.937 -0.2577 -0.1035 -0.3498
18477TIP3   OH276921   3.940   3.121  15.215  0.0053 -0.2053 -0.4329
18477TIP3    H176922   4.028   3.122  15.253  0.0960 -1.0404 -0.6002
18477TIP3    H276923   3.881   3.119  15.290  0.1971 -3.3400 -0.2285
18478TIP3   OH276924   0.369   1.420   0.411  0.9708 -0.7479  0.1153
18478TIP3    H176925   0.275   1.410   0.399  0.6346  0.0900  1.7721
18478TIP3    H276926   0.387   1.511   0.384  1.2223 -0.7559  0.2526
18479TIP3   OH276927   0.853   4.381  13.188  0.4576 -0.2555 -0.0614
18479TIP3    H176928   0.870   4.344  13.101  0.0128  2.4107 -1.3822
18479TIP3    H276929   0.931   4.359  13.239  0.9406 -1.4823 -1.2519
18480TIP3   OH276930   5.064   2.814   5.492  0.2991  0.0725  0.6394
18480TIP3    H176931   5.125   2.863   5.548  0.7938 -0.1092  0.2674
18480TIP3    H276932   5.121   2.756   5.441 -0.1056  0.5881 -0.4086
18481TIP3   OH276933   4.133   5.694  13.297  0.4796  0.3062  0.0390
18481TIP3    H176934   4.125   5.645  13.379 -1.3424 -0.9583 -0.8168
18481TIP3    H276935   4.157   5.628  13.231 -0.7791  0.7394 -0.9096
18482TIP3   OH276936   2.976   4.833  13.237  0.3324 -0.0188  1.3003
18482TIP3    H176937   2.971   4.815  13.331 -1.3850  2.0991  1.6814
18482TIP3    H276938   2.887   4.817  13.205  0.4934  0.8988  0.3572
18483TIP3   OH276939   3.646   2.498   1.319  0.2946 -0.2569  0.0646
18483TIP3    H176940   3.718   2.457   1.270  1.0106  0.9689  0.0578
18483TIP3    H276941   3.687   2.530   1.399  0.3522  2.6724 -1.0237
18484TIP3   OH276942   0.587   0.633   2.466  0.2694 -0.3938 -0.1406
18484TIP3    H176943   0.562   0.542   2.453  1.7791 -0.8467 -0.0754
18484TIP3    H276944   0.682   0.631   2.479  0.3447  1.1863 -0.1434
18485TIP3   OH276945   3.252   6.482  15.334  0.1007  0.0916 -0.8039
18485TIP3    H176946   3.186   6.550  15.346  0.8028  0.4362  1.9807
18485TIP3    H276947   3.214   6.404  15.375  0.5769 -0.2990 -1.0905
18486TIP3   OH276948   1.263   1.893   1.341 -0.3603  0.7844 -0.1063
18486TIP3    H176949   1.176   1.883   1.302 -0.3920 -0.3276  0.2212
18486TIP3    H276950   1.317   1.930   1.271 -0.9142  0.7913 -0.5377
18487TIP3   OH276951   0.936   3.633   0.854  0.3098 -0.2912 -0.3247
18487TIP3    H176952   0.870   3.651   0.921  0.9542 -0.4480  0.3703
18487TIP3    H276953   0.921   3.698   0.786 -1.5510 -1.2758 -0.9267
18488TIP3   OH276954   1.203   6.450  12.542 -0.4140 -0.4100  0.6467
18488TIP3    H176955   1.111   6.446  12.569 -0.6410 -1.0735 -0.1789
18488TIP3    H276956   1.206   6.522  12.479 -0.6393 -1.1839 -0.2707
18489TIP3   OH276957   5.119   4.199   5.721  0.1720  0.1890  0.1857
18489TIP3    H176958   5.030   4.203   5.756 -0.8963 -1.3191 -2.0503
18489TIP3    H276959   5.127   4.278   5.668  0.7227  1.0184  1.4605
18490TIP3   OH276960   3.636   1.198   3.004 -0.5643 -0.4243 -0.5086
18490TIP3    H176961   3.719   1.209   2.957 -0.3701 -2.0246 -0.6163
18490TIP3    H276962   3.604   1.287   3.018  1.5264  0.2787  0.1948
18491TIP3   OH276963   3.732   6.840   3.414  0.1556  0.8345 -0.2393
18491TIP3    H176964   3.662   6.780   3.388 -1.5814  1.8815  1.7380
18491TIP3    H276965   3.799   6.829   3.346 -1.7831 -0.4215 -2.0868
18492TIP3   OH276966   1.403   3.240   5.472  0.1959  0.6700 -0.7815
18492TIP3    H176967   1.416   3.291   5.392 -1.1898 -1.2422 -2.3201
18492TIP3    H276968   1.404   3.149   5.444  2.1656 -0.2406  1.7971
18493TIP3   OH276969   0.256   5.364   4.759 -0.2084 -0.0349 -0.3409
18493TIP3    H176970   0.197   5.313   4.816  1.8407 -0.4871  1.5291
18493TIP3    H276971   0.234   5.334   4.671 -1.9324 -1.0598  0.3590
18494TIP3   OH276972   5.556   1.996   0.778  0.7304 -0.1758 -0.3190
18494TIP3    H176973   5.491   1.940   0.820  1.3103 -1.2205 -0.7665
18494TIP3    H276974   5.640   1.959   0.805  1.1134 -0.6844 -2.1036
18495TIP3   OH276975   1.074   4.829   4.939 -0.3905 -0.1512 -0.0511
18495TIP3    H176976   1.033   4.915   4.953 -1.0552 -0.9225  4.1345
18495TIP3    H276977   1.038   4.799   4.856 -1.9637  2.6177 -0.5167
18496TIP3   OH276978   1.816   3.561  15.471  0.2171 -0.3557  0.8041
18496TIP3    H176979   1.827   3.487  15.411 -1.4499  0.1734 -0.2184
18496TIP3    H276980   1.752   3.531  15.535 -1.8694  0.7125 -0.6561
18497TIP3   OH276981   0.058   6.680   3.636  0.0410 -0.1825 -0.6244
18497TIP3    H176982   0.092   6.643   3.554 -0.7087  0.8924 -1.4450
18497TIP3    H276983   0.006   6.608   3.674  1.9552 -1.3499 -0.0658
18498TIP3   OH276984   3.191   5.264   3.873 -0.3574 -0.2850 -0.5692
18498TIP3    H176985   3.187   5.300   3.785  0.8120  0.1661 -0.4539
18498TIP3    H276986   3.101   5.271   3.906 -0.5396  0.7637 -1.2428
18499TIP3   OH276987   5.957   6.142  16.269  0.2400 -0.1910  0.0392
18499TIP3    H176988   6.043   6.111  16.239  0.0699  0.8823 -1.6856
18499TIP3    H276989   5.934   6.082  16.339  1.8104 -1.3192 -0.3407
18500TIP3   OH276990   4.972   5.263  17.194 -0.4154  0.2104 -0.2568
18500TIP3    H176991   5.053   5.314  17.185 -0.3234  0.4787  1.6313
18500TIP3    H276992   4.905   5.316  17.151 -0.2581  1.8605  1.4017
18501TIP3   OH276993   6.686   0.634  15.741  0.2921 -0.2321  0.4501
18501TIP3    H176994   6.636   0.661  15.818  0.9249 -0.0880  0.8151
18501TIP3    H276995   6.658   0.695  15.672 -0.0694 -0.1856  0.6317
18502TIP3   OH276996   4.462   3.763  13.694  0.2783 -0.1988 -0.0588
18502TIP3    H176997   4.468   3.845  13.645 -2.1628 -1.1347 -2.1409
18502TIP3    H276998   4.547   3.753  13.735  1.3762  2.2862 -1.5357
18503TIP3   OH276999   5.407   1.705   5.408  0.3797 -0.0641  0.5199
18503TIP3    H177000   5.316   1.718   5.435  0.1127  2.4521 -1.2463
18503TIP3    H277001   5.402   1.692   5.313  1.9641  2.3289  0.0436
18504TIP3   OH277002   4.656   0.034   1.451 -0.1489 -0.1150 -0.3306
18504TIP3    H177003   4.603   0.079   1.517 -0.9366 -1.7548  0.2322
18504TIP3    H277004   4.599   0.027   1.375  0.2461  0.5005 -0.6887
18505TIP3   OH277005   0.541   6.012  11.260 -0.2551 -0.2609 -0.2776
18505TIP3    H177006   0.550   5.939  11.321  0.0070  1.3943  1.7627
18505TIP3    H277007   0.620   6.008  11.206 -1.6944 -3.3245 -2.4692
18506TIP3   OH277008   4.359   1.863  12.375 -0.1768 -0.4520 -0.1143
18506TIP3    H177009   4.266   1.861  12.399 -0.4651  0.4315 -1.0971
18506TIP3    H277010   4.366   1.804  12.301 -0.3779  1.0093 -1.3483
18507TIP3   OH277011   4.582   0.037   2.130 -0.0924 -0.5373 -0.2857
18507TIP3    H177012   4.634   0.105   2.087 -2.4727  0.7924 -1.2569
18507TIP3    H277013   4.496   0.043   2.088 -1.8293 -0.8696  2.9469
18508TIP3   OH277014   5.148   2.229   1.859 -0.6275 -0.0610 -0.9020
18508TIP3    H177015   5.214   2.290   1.828 -1.4208  1.8275  0.8702
18508TIP3    H277016   5.069   2.282   1.870 -1.0820 -1.1156  1.6588
18509TIP3   OH277017   0.288   2.130   1.643  0.6973 -0.4812 -0.0711
18509TIP3    H177018   0.375   2.168   1.632 -0.5911  2.2266 -2.2064
18509TIP3    H277019   0.264   2.150   1.733  1.7056  0.0798  0.0856
18510TIP3   OH277020   6.580   4.258  13.111  0.2805  0.0822  0.2921
18510TIP3    H177021   6.602   4.305  13.192  1.8133 -0.0957 -0.0021
18510TIP3    H277022   6.655   4.272  13.054 -0.0523 -1.2014 -0.4844
18511TIP3   OH277023   6.507   3.863  11.483  0.2388  0.3727 -0.6371
18511TIP3    H177024   6.526   3.774  11.512  0.0880  0.5844  0.1347
18511TIP3    H277025   6.455   3.901  11.554 -3.6885 -0.3387 -2.8610
18512TIP3   OH277026   1.505   0.748  15.037 -0.5382 -0.2480  0.6146
18512TIP3    H177027   1.412   0.768  15.043 -0.2593  2.0844 -1.2445
18512TIP3    H277028   1.525   0.753  14.944  1.0810 -2.8486  0.7350
18513TIP3   OH277029   2.933   2.104  13.917  0.3509  0.0940 -0.1255
18513TIP3    H177030   2.965   2.020  13.949  0.0829  0.1390  0.2648
18513TIP3    H277031   3.011   2.159  13.911  0.6797 -0.4649 -1.2915
18514TIP3   OH277032   4.630   1.421   1.821 -0.0298  0.0042 -0.2737
18514TIP3    H177033   4.669   1.419   1.908 -0.7747  2.6513  0.2270
18514TIP3    H277034   4.699   1.454   1.764  0.2613 -1.0994 -0.5631
18515TIP3   OH277035   6.484   5.521  16.369  0.2141 -1.4937 -0.7391
18515TIP3    H177036   6.547   5.584  16.404  0.1409 -1.5989 -0.4153
18515TIP3    H277037   6.411   5.574  16.337  0.4701 -1.3713 -1.1197
18516TIP3   OH277038   2.566   0.231   2.062  0.4068  0.2319 -0.0496
18516TIP3    H177039   2.579   0.197   2.151 -1.4375  0.2689  0.2823
18516TIP3    H277040   2.632   0.187   2.009  0.1085 -1.4861  0.9383
18517TIP3   OH277041   1.094   6.310  14.925 -0.0905  0.5244  0.0616
18517TIP3    H177042   1.015   6.269  14.960 -0.1502  0.3678 -0.2585
18517TIP3    H277043   1.069   6.343  14.839  0.9029 -1.9798 -1.2919
18518TIP3   OH277044   2.565   5.483   0.584  0.1555 -0.4687 -0.2045
18518TIP3    H177045   2.500   5.437   0.638 -0.1614 -1.0598 -1.0672
18518TIP3    H277046   2.646   5.478   0.635 -0.4168  0.1242  0.8090
18519TIP3   OH277047   0.569   0.317  16.536  0.0457 -0.4556 -0.3296
18519TIP3    H177048   0.626   0.395  16.533 -0.7546  0.1448 -0.2742
18519TIP3    H277049   0.587   0.271  16.455 -0.3525  0.4395 -0.9412
18520TIP3   OH277050   0.966   0.606   4.126 -0.6018  0.2725 -0.1811
18520TIP3    H177051   0.976   0.663   4.050 -1.2039  0.4417 -0.1378
18520TIP3    H277052   0.929   0.525   4.090 -0.0713  0.0352 -0.1934
18521TIP3   OH277053   6.585   6.183  13.916 -0.6796  0.0256 -0.0505
18521TIP3    H177054   6.591   6.140  13.830 -1.2175  0.8261 -0.4909
18521TIP3    H277055   6.661   6.241  13.919 -0.0937 -0.7343  0.4435
18522TIP3   OH277056   0.981   2.613  13.030  0.3242  0.2486 -0.8163
18522TIP3    H177057   1.072   2.611  13.058  0.2186 -2.0496 -0.4126
18522TIP3    H277058   0.956   2.705  13.033  1.2631  0.5555  3.5757
18523TIP3   OH277059   0.142   2.966  13.652  0.5706 -0.2744  0.5385
18523TIP3    H177060   0.075   2.912  13.694  0.6388 -0.1917  0.7592
18523TIP3    H277061   0.225   2.924  13.676  0.7675  0.9956  2.3690
18524TIP3   OH277062   1.057   1.163   4.644 -0.1769  0.2325  0.0435
18524TIP3    H177063   0.992   1.215   4.691 -0.3881  0.4036 -0.4362
18524TIP3    H277064   1.014   1.078   4.631 -0.6149  0.5832 -0.9437
18525TIP3   OH277065   1.328   1.910  13.215  0.4560 -0.0096  0.2722
18525TIP3    H177066   1.264   1.940  13.280 -0.9773 -1.3357 -0.4757
18525TIP3    H277067   1.278   1.901  13.134  2.1426  1.3437 -1.0066
18526TIP3   OH277068   4.415   4.821   4.773  0.1408 -0.5853 -0.0330
18526TIP3    H177069   4.449   4.862   4.852  0.2867 -0.2693 -0.2590
18526TIP3    H277070   4.492   4.799   4.722  0.0216 -0.0521 -0.4530
18527TIP3   OH277071   5.136   0.943   1.385  0.3041  0.0553  0.1680
18527TIP3    H177072   5.226   0.922   1.362  2.2877  2.4978  4.4322
18527TIP3    H277073   5.110   0.875   1.447 -1.0668 -0.8493 -1.3107
18528TIP3   OH277074   5.662   4.828  12.621 -0.4900 -0.5318 -0.4590
18528TIP3    H177075   5.620   4.811  12.537 -0.1385 -0.0447 -0.7368
18528TIP3    H277076   5.590   4.851  12.680 -0.5038  2.2084 -1.3989
18529TIP3   OH277077   4.298   0.290   1.799  0.3228 -0.2827 -0.1633
18529TIP3    H177078   4.242   0.279   1.722 -0.9229  0.8139  0.5636
18529TIP3    H277079   4.238   0.297   1.872  1.5041 -1.9149  1.0473
18530TIP3   OH277080   4.288   2.500  15.137 -0.0009 -0.1133  0.2396
18530TIP3    H177081   4.313   2.489  15.046  0.5885 -1.7594  0.5684
18530TIP3    H277082   4.368   2.482  15.187 -1.1759 -3.2904  1.2170
18531TIP3   OH277083   1.905   4.689   4.315 -0.6191  0.3338 -0.2081
18531TIP3    H177084   1.934   4.677   4.406 -0.0604  0.4371 -0.3716
18531TIP3    H277085   1.969   4.749   4.277 -0.1167 -0.7034 -1.0361
18532TIP3   OH277086   2.642   0.396   4.940  0.2002 -0.4203 -0.2134
18532TIP3    H177087   2.643   0.488   4.964 -1.3564 -0.5631  0.4935
18532TIP3    H277088   2.670   0.350   5.019  2.0377 -0.5463 -0.8734
18533TIP3   OH277089   0.504   2.085  14.136 -0.2481  0.1340  0.1930
18533TIP3    H177090   0.573   2.128  14.187  0.7956  1.8597 -2.4472
18533TIP3    H277091   0.482   2.006  14.186  2.9603  0.0313  1.6614
18534TIP3   OH277092   5.622   4.718   2.290  0.0872  0.5404 -0.3052
18534TIP3    H177093   5.691   4.752   2.233  0.5220 -0.7931 -0.6137
18534TIP3    H277094   5.655   4.734   2.378  0.4645  0.5706 -0.4469
18535TIP3   OH277095   2.621   1.702  12.771 -0.1751  0.4122 -0.0088
18535TIP3    H177096   2.611   1.632  12.836 -0.7984  1.6873  1.3132
18535TIP3    H277097   2.694   1.672  12.715 -0.2243 -1.1308  0.7027
18536TIP3   OH277098   4.692   3.349   5.070  0.4995 -0.5675  0.2501
18536TIP3    H177099   4.754   3.391   5.011 -1.8834  1.8411 -0.7243
18536TIP3    H277100   4.704   3.395   5.153 -0.8647  0.9151 -0.3272
18537TIP3   OH277101   0.948   4.571  12.955 -0.7559 -0.2099 -0.1007
18537TIP3    H177102   1.028   4.581  13.007 -1.4098 -2.8648  1.5716
18537TIP3    H277103   0.880   4.613  13.006 -1.0016 -0.8488  0.1045
18538TIP3   OH277104   2.193   5.401  11.423 -0.2764  0.0574  0.3300
18538TIP3    H177105   2.162   5.339  11.489  1.1196 -0.3213  0.6513
18538TIP3    H277106   2.249   5.462  11.471  1.0133 -0.4019 -0.5271
18539TIP3   OH277107   3.392   3.579  16.057  0.6995 -0.5745 -0.0565
18539TIP3    H177108   3.411   3.525  16.134 -0.8624  0.9615  1.4773
18539TIP3    H277109   3.371   3.665  16.093 -0.2136  0.1508 -2.2132
18540TIP3   OH277110   5.200   4.417   2.584 -0.3093  0.1428  0.1646
18540TIP3    H177111   5.198   4.373   2.499 -0.3952  1.4016 -0.5009
18540TIP3    H277112   5.244   4.500   2.567  0.4218  0.0594  1.5270
18541TIP3   OH277113   5.102   5.513   2.752  0.2947 -0.0481  0.1270
18541TIP3    H177114   5.115   5.582   2.816 -0.5920  1.3928 -1.1577
18541TIP3    H277115   5.185   5.465   2.751  0.6493  0.4740  1.6355
18542TIP3   OH277116   6.152   2.397  11.933  1.0975 -0.4650  0.4878
18542TIP3    H177117   6.062   2.369  11.915  0.8399  0.3100  0.5257
18542TIP3    H277118   6.206   2.343  11.876  0.6578 -1.3303  0.8634
18543TIP3   OH277119   6.644   2.474   3.637 -0.0370  0.5697 -0.4967
18543TIP3    H177120   6.604   2.426   3.709 -1.1775 -1.5795 -2.4172
18543TIP3    H277121   6.737   2.478   3.660 -0.4340  0.4002  1.2826
18544TIP3   OH277122   4.767   3.038  14.429  0.0713 -0.5509 -1.1078
18544TIP3    H177123   4.841   3.097  14.446 -1.7333  1.2882  0.9947
18544TIP3    H277124   4.740   3.059  14.340  1.4186 -0.5368 -1.5394
18545TIP3   OH277125   3.856   5.172  12.843 -0.7142  0.2717  0.3065
18545TIP3    H177126   3.906   5.141  12.767 -0.8989  1.5696 -0.3582
18545TIP3    H277127   3.778   5.213  12.806 -2.0007 -1.1615  1.3105
18546TIP3   OH277128   2.653   2.229  15.141  0.2058 -0.2145 -0.2585
18546TIP3    H177129   2.558   2.218  15.135 -0.0352  2.1943 -2.7688
18546TIP3    H277130   2.688   2.152  15.096 -0.4400 -1.7102  1.6726
18547TIP3   OH277131   4.155   2.643   2.917  0.1929 -0.7381  0.1866
18547TIP3    H177132   4.100   2.693   2.978  0.9160  2.2640 -1.4615
18547TIP3    H277133   4.242   2.681   2.926  0.0551  0.9531 -3.6470
18548TIP3   OH277134   2.407   6.630  12.001  0.0656 -0.3728 -0.1725
18548TIP3    H177135   2.313   6.643  12.012  0.0154  1.1016 -1.8531
18548TIP3    H277136   2.446   6.672  12.078 -0.6291 -1.1982  0.6592
18549TIP3   OH277137   0.120   1.666   5.265 -0.1273  0.4779 -0.4090
18549TIP3    H177138   0.063   1.590   5.250 -0.1662  0.5132 -0.4421
18549TIP3    H277139   0.175   1.641   5.339  1.2198 -0.3615 -1.6367
18550TIP3   OH277140   1.714   4.136  11.983 -0.3257 -0.2777  0.1383
18550TIP3    H177141   1.643   4.081  12.015 -1.3585  0.3840 -0.9426
18550TIP3    H277142   1.732   4.197  12.054 -1.1430 -0.1686  0.2591
18551TIP3   OH277143   1.691   2.924  13.682 -0.4812 -0.2549 -0.2629
18551TIP3    H177144   1.631   2.921  13.756 -1.1111  3.3249 -0.4610
18551TIP3    H277145   1.768   2.970  13.716  0.8910 -1.9618 -0.8936
18552TIP3   OH277146   2.313   3.652  11.103 -0.6720  0.3521 -0.3036
18552TIP3    H177147   2.353   3.639  11.017 -0.9643 -1.2188 -0.2190
18552TIP3    H277148   2.355   3.588  11.160 -1.2391  0.6570  0.4787
18553TIP3   OH277149   1.488   1.846   6.174 -0.3656 -0.1244  0.0316
18553TIP3    H177150   1.569   1.855   6.125 -0.7896 -1.1650 -0.9088
18553TIP3    H277151   1.512   1.791   6.249 -0.1336 -0.1829 -0.0834
18554TIP3   OH277152   5.965   6.059  14.231  0.3185  0.3793 -0.3499
18554TIP3    H177153   5.988   6.065  14.324 -0.7750  0.8129 -0.0893
18554TIP3    H277154   5.871   6.040  14.231  0.2306  0.7422 -1.3740
18555TIP3   OH277155   0.623   3.122  13.568 -0.7570  0.2680  0.2405
18555TIP3    H177156   0.536   3.087  13.552 -0.1574 -0.3286 -2.1578
18555TIP3    H277157   0.628   3.200  13.512 -0.2722  1.1987  1.5456
18556TIP3   OH277158   5.810   0.143  12.089 -0.4722 -0.3852 -0.2515
18556TIP3    H177159   5.900   0.173  12.077 -0.8278  0.2205 -1.5410
18556TIP3    H277160   5.818   0.067  12.147  0.7948  0.0465  0.1736
18557TIP3   OH277161   4.181   0.604  14.477  0.3163 -0.3940  0.6638
18557TIP3    H177162   4.112   0.598  14.544  0.5443  1.1209  1.0906
18557TIP3    H277163   4.253   0.647  14.522  0.7094  0.0801 -0.3938
18558TIP3   OH277164   2.550   2.483  12.949 -0.1682  0.5914 -0.4046
18558TIP3    H177165   2.463   2.481  12.989 -0.1588  0.6593 -0.3804
18558TIP3    H277166   2.573   2.576  12.945  0.7725  0.4900  1.4962
18559TIP3   OH277167   3.711   1.919  13.966 -0.5494  0.0610  0.3413
18559TIP3    H177168   3.671   1.881  14.044 -2.8672  0.9596 -0.3421
18559TIP3    H277169   3.739   2.006  13.994 -0.0339 -0.1601  0.5301
18560TIP3   OH277170   5.411   6.555   0.559 -0.1293  0.1593  0.1621
18560TIP3    H177171   5.406   6.620   0.489 -1.6670  1.1278  1.1132
18560TIP3    H277172   5.330   6.504   0.551  0.5348 -0.9092  0.1243
18561TIP3   OH277173   5.847   3.962  16.785 -0.4941 -0.4328  0.3854
18561TIP3    H177174   5.834   3.952  16.879  0.0194 -0.7206  0.4260
18561TIP3    H277175   5.846   3.872  16.751 -0.5004 -0.3398  0.1368
18562TIP3   OH277176   1.453   2.060   4.280 -0.0412  0.0111  0.7180
18562TIP3    H177177   1.420   2.070   4.190 -1.1863 -0.8451  1.0230
18562TIP3    H277178   1.420   1.975   4.309  1.7974 -0.5328  1.3603
18563TIP3   OH277179   0.206   0.232  15.225 -0.2195  0.0848  0.2315
18563TIP3    H177180   0.193   0.327  15.226 -0.3590  0.0761 -0.3325
18563TIP3    H277181   0.293   0.219  15.263  0.5526  0.5760 -1.2660
18564TIP3   OH277182   6.302   0.406  13.301  0.1908 -0.1594  0.2993
18564TIP3    H177183   6.317   0.381  13.210 -0.6688 -2.3287  0.6868
18564TIP3    H277184   6.325   0.499  13.305  1.6852 -0.3844 -1.7670
18565TIP3   OH277185   6.139   4.069   0.050 -0.1973  0.6100 -0.5538
18565TIP3    H177186   6.233   4.061   0.033 -0.2650  1.2229 -1.2723
18565TIP3    H277187   6.127   4.028   0.135  0.7647  0.7423 -0.3353
18566TIP3   OH277188   2.802   6.264  12.706  0.0417 -0.4319 -0.0107
18566TIP3    H177189   2.707   6.276  12.713  0.0042 -0.6704 -0.1008
18566TIP3    H277190   2.816   6.234  12.616  0.0967 -1.3180  0.2778
18567TIP3   OH277191   0.265   4.656   2.166  0.6966 -0.1432  0.4238
18567TIP3    H177192   0.340   4.693   2.212  0.2988 -0.1147  1.0588
18567TIP3    H277193   0.189   4.702   2.202  0.4190  0.3090 -0.6824
18568TIP3   OH277194   6.678   3.708   4.307 -0.2023 -0.1485  0.1176
18568TIP3    H177195   6.728   3.629   4.326  1.8467  0.9069 -0.5240
18568TIP3    H277196   6.666   3.707   4.212  1.9744  1.3913 -0.2644
18569TIP3   OH277197   2.626   0.426   1.185 -0.4202 -0.0567  0.4795
18569TIP3    H177198   2.545   0.422   1.236 -1.2579 -3.8630 -0.8294
18569TIP3    H277199   2.597   0.446   1.096  0.1733 -0.4770  0.1862
18570TIP3   OH277200   0.198   3.606   3.913 -0.2701  0.0534  0.3078
18570TIP3    H177201   0.248   3.597   3.832 -0.6638  0.9337 -0.0513
18570TIP3    H277202   0.246   3.672   3.963 -0.7158  0.4419  0.2306
18571TIP3   OH277203   5.866   3.682   1.140  0.4163 -0.4996 -0.4728
18571TIP3    H177204   5.953   3.646   1.125  0.2337 -1.0492 -0.2490
18571TIP3    H277205   5.834   3.705   1.053  0.1961 -1.7093 -0.7343
18572TIP3   OH277206   1.966   0.861  10.541  0.0980  0.0048  0.5826
18572TIP3    H177207   1.874   0.878  10.521 -0.0979 -1.8071 -0.2806
18572TIP3    H277208   2.012   0.938  10.508 -1.1050  1.0270  1.1937
18573TIP3   OH277209   6.142   6.481  14.961  0.2575 -0.3409 -0.3266
18573TIP3    H177210   6.067   6.538  14.944  0.4285  0.0384  0.1455
18573TIP3    H277211   6.153   6.483  15.056  2.3629  1.6014 -0.5114
18574TIP3   OH277212   4.279   1.453  14.029  0.2142 -0.3760 -0.1334
18574TIP3    H177213   4.223   1.503  13.970  1.3326  0.8861 -0.1781
18574TIP3    H277214   4.310   1.518  14.092 -1.0664 -1.6943  1.9859
18575TIP3   OH277215   2.594   4.781   3.939  0.4012 -0.0898 -0.3239
18575TIP3    H177216   2.561   4.791   3.850  1.2700  0.7495 -0.5701
18575TIP3    H277217   2.579   4.866   3.980 -0.6927 -0.6890  0.6010
18576TIP3   OH277218   5.458   6.298   2.968 -0.4007 -1.0073  0.0169
18576TIP3    H177219   5.406   6.366   3.009  1.6988 -0.1200  1.3901
18576TIP3    H277220   5.402   6.220   2.969 -1.5934 -0.1786  1.6452
18577TIP3   OH277221   6.172   2.863   3.097 -0.4379  0.2986 -0.0529
18577TIP3    H177222   6.215   2.943   3.127 -0.0434 -0.1201  0.5233
18577TIP3    H277223   6.100   2.850   3.158 -0.4702  0.1856 -0.1151
18578TIP3   OH277224   2.940   0.688   2.634  0.3997 -0.0555  0.3224
18578TIP3    H177225   3.033   0.707   2.619 -0.1295  1.1427 -1.9656
18578TIP3    H277226   2.925   0.711   2.726  1.9389  1.7122  0.1816
18579TIP3   OH277227   6.049   1.649   5.934  0.0070 -0.6177  0.0375
18579TIP3    H177228   6.095   1.609   5.860  1.8187 -0.4638  1.0176
18579TIP3    H277229   6.002   1.723   5.896 -1.9198 -2.5124 -1.5008
18580TIP3   OH277230   2.000   5.356  15.103  0.8670  0.1986  0.4474
18580TIP3    H177231   2.081   5.351  15.051  1.1163  0.8557  0.7645
18580TIP3    H277232   2.021   5.310  15.184  0.7272 -0.1482  0.2906
18581TIP3   OH277233   0.745   5.833   5.256 -0.3358 -0.0714  0.0409
18581TIP3    H177234   0.826   5.884   5.254  0.5001 -1.3231 -2.6592
18581TIP3    H277235   0.764   5.758   5.312 -0.2067  0.4940  0.7607
18582TIP3   OH277236   4.826   0.485   3.672 -0.3952 -0.3527 -0.3716
18582TIP3    H177237   4.844   0.427   3.746  0.8333 -0.1292 -0.4629
18582TIP3    H277238   4.853   0.434   3.595  0.5485  0.2531 -0.4643
18583TIP3   OH277239   4.395   0.725  13.980 -0.2677  0.1618  0.0738
18583TIP3    H177240   4.357   0.807  13.949 -0.5858  0.4085  1.0922
18583TIP3    H277241   4.365   0.716  14.070 -1.2948 -1.7051 -0.3902
18584TIP3   OH277242   4.473   4.782  10.360  0.0182 -0.6504  0.2753
18584TIP3    H177243   4.518   4.867  10.367  0.3368 -0.6333 -1.5011
18584TIP3    H277244   4.542   4.717  10.376 -0.0804 -0.5867  0.9718
18585TIP3   OH277245   3.945   3.441  13.818 -0.7949  0.4717  0.7361
18585TIP3    H177246   3.926   3.382  13.891 -2.3997  1.1805  0.9277
18585TIP3    H277247   4.017   3.398  13.771 -0.7115 -0.7189  1.8958
18586TIP3   OH277248   6.009   5.983  14.882  0.4061  0.3166  0.2784
18586TIP3    H177249   5.984   5.904  14.833 -0.8692  0.0246  1.3469
18586TIP3    H277250   6.091   5.959  14.924  1.5272  0.5654 -1.6336
18587TIP3   OH277251   5.285   0.411  12.174  0.0899 -0.1443 -0.4238
18587TIP3    H177252   5.298   0.469  12.099  1.4581 -0.4063 -0.4093
18587TIP3    H277253   5.194   0.382  12.167 -0.3378  1.2586 -0.9535
18588TIP3   OH277254   0.694   1.449   6.121 -0.0319 -0.0469  0.1185
18588TIP3    H177255   0.697   1.490   6.208 -0.8252  0.7880 -0.2378
18588TIP3    H277256   0.631   1.378   6.131  1.6275 -1.4872  0.8408
18589TIP3   OH277257   3.586   6.476  14.855 -0.3596 -0.1183 -0.2570
18589TIP3    H177258   3.606   6.482  14.761  1.5082  0.5774  0.1456
18589TIP3    H277259   3.665   6.437  14.894 -1.0447 -0.2495  1.0585
18590TIP3   OH277260   3.196   6.234  13.893  0.2546 -0.2317  0.0269
18590TIP3    H177261   3.128   6.174  13.862  0.5617 -0.1421 -0.8376
18590TIP3    H277262   3.277   6.184  13.885  0.1236 -1.2698  3.3685
18591TIP3   OH277263   1.417   0.693  16.879  0.7268 -0.5940  0.0533
18591TIP3    H177264   1.389   0.642  16.803  0.9559 -0.0687 -0.3945
18591TIP3    H277265   1.368   0.775  16.873  2.0360  0.1902 -0.5432
18592TIP3   OH277266   0.471   4.194   2.974 -0.7609  0.0031 -0.5066
18592TIP3    H177267   0.521   4.257   3.026 -0.9635 -1.6118  1.8000
18592TIP3    H277268   0.533   4.163   2.908  0.3711  0.1626  0.4519
18593TIP3   OH277269   5.840   3.338   4.870  0.5209 -0.1254  0.1645
18593TIP3    H177270   5.757   3.364   4.830  1.2168 -0.0541 -1.2977
18593TIP3    H277271   5.829   3.245   4.889 -0.5171  0.2691  1.6528
18594TIP3   OH277272   2.648   4.199  14.284  0.8428  0.6576 -0.0024
18594TIP3    H177273   2.702   4.256  14.339  1.5029  0.2985 -0.2560
18594TIP3    H277274   2.707   4.127  14.260  0.0761 -0.0321  0.1679
18595TIP3   OH277275   3.899   0.609   4.095  0.2986 -0.0955  0.0929
18595TIP3    H177276   3.904   0.668   4.020  1.8159 -0.0528  0.2051
18595TIP3    H277277   3.846   0.656   4.159 -0.5815  0.0821 -0.7490
18596TIP3   OH277278   2.444   6.459  12.291 -0.6792  0.2888 -0.2030
18596TIP3    H177279   2.424   6.547  12.259  0.2913 -0.0436 -1.8458
18596TIP3    H277280   2.537   6.462  12.314 -0.6210 -0.3159 -0.3380
18597TIP3   OH277281   2.839   3.243   5.341  0.1979 -0.0726 -0.3817
18597TIP3    H177282   2.820   3.335   5.355  0.4014  0.0567 -0.8950
18597TIP3    H277283   2.754   3.199   5.342 -0.3202  0.5882 -3.3771
18598TIP3   OH277284   6.795   5.291  11.450  0.1517 -0.3029  0.5643
18598TIP3    H177285   6.708   5.253  11.439  0.2773 -0.2508 -0.8292
18598TIP3    H277286   6.800   5.359  11.382  1.4067 -0.5523  0.3839
18599TIP3   OH277287   5.769   1.102  14.556 -0.3319 -0.2051 -0.3072
18599TIP3    H177288   5.674   1.103  14.568 -0.5103  0.2401 -1.6317
18599TIP3    H277289   5.804   1.123  14.642 -1.4728  1.1309 -0.1290
18600TIP3   OH277290   4.144   5.398   5.849 -0.0547 -0.1607 -0.1545
18600TIP3    H177291   4.058   5.419   5.885  0.4831 -0.3344  1.2651
18600TIP3    H277292   4.169   5.476   5.799 -0.6493  0.2382  0.1678
18601TIP3   OH277293   4.576   3.343  11.460 -0.2300 -0.4603  0.2497
18601TIP3    H177294   4.486   3.370  11.439 -1.0766 -2.0940  1.5148
18601TIP3    H277295   4.617   3.423  11.492 -1.8366 -0.0396  1.4126
18602TIP3   OH277296   2.196   2.192   2.403  0.2963  0.0360 -0.2991
18602TIP3    H177297   2.229   2.102   2.393  0.5197  0.1050 -0.1791
18602TIP3    H277298   2.252   2.244   2.345  0.4591  0.1683 -0.0236
18603TIP3   OH277299   0.902   5.176   4.765  0.2528 -0.6004 -0.3453
18603TIP3    H177300   0.818   5.198   4.726 -0.6683 -2.6725  0.3340
18603TIP3    H277301   0.947   5.125   4.698  0.2573 -0.9221 -0.1003
18604TIP3   OH277302   3.617   6.604   4.257 -0.7452 -0.2993  0.8430
18604TIP3    H177303   3.695   6.613   4.311 -0.6039 -0.2070  0.6246
18604TIP3    H277304   3.554   6.558   4.313  0.0965 -2.1179  0.3955
18605TIP3   OH277305   4.466   1.323   1.428 -0.2022 -0.1601 -0.1658
18605TIP3    H177306   4.428   1.239   1.406 -1.0443 -0.0948  0.9615
18605TIP3    H277307   4.560   1.307   1.430 -0.3223 -0.9431 -0.4640
18606TIP3   OH277308   3.211   5.946  12.698  0.0519 -0.4426 -0.0262
18606TIP3    H177309   3.277   5.894  12.745  0.8760 -0.1601 -0.8323
18606TIP3    H277310   3.238   5.940  12.606 -0.9346 -0.1342 -0.3397
18607TIP3   OH277311   4.639   2.262   4.936  0.0153  0.2057  0.2265
18607TIP3    H177312   4.657   2.185   4.883 -0.3317  0.6203 -0.5115
18607TIP3    H277313   4.673   2.240   5.023 -1.2056 -1.2583  0.3635
18608TIP3   OH277314   4.878   4.839  16.909  0.2263 -0.0010  0.4964
18608TIP3    H177315   4.943   4.885  16.963  1.7843 -0.3927 -0.9547
18608TIP3    H277316   4.928   4.769  16.868 -1.1655 -0.3642 -0.6153
18609TIP3   OH277317   2.720   2.125  16.371  0.4976 -0.6286  0.0226
18609TIP3    H177318   2.771   2.199  16.405  1.2136 -0.2862 -1.6960
18609TIP3    H277319   2.700   2.149  16.280 -3.1133 -0.5785  0.6703
18610TIP3   OH277320   1.284   6.504  13.915 -0.0958 -0.3571  0.1925
18610TIP3    H177321   1.287   6.520  14.010 -0.0701 -1.3653  0.3744
18610TIP3    H277322   1.236   6.422  13.906 -0.7427  0.1149 -0.7273
18611TIP3   OH277323   0.742   6.759  16.610  0.6484 -0.0955  0.0384
18611TIP3    H177324   0.724   6.667  16.592 -2.2095 -0.0544  1.9762
18611TIP3    H277325   0.814   6.757  16.674  1.3102 -0.8834 -0.6970
18612TIP3   OH277326   6.724   5.493   5.554 -0.6280 -0.1973  0.0489
18612TIP3    H177327   6.781   5.570   5.557  0.1116 -0.6890 -0.6973
18612TIP3    H277328   6.780   5.422   5.586 -0.6356 -0.7828 -1.1939
18613TIP3   OH277329   4.387   6.179   3.685 -0.5049 -0.1010 -0.3207
18613TIP3    H177330   4.452   6.147   3.748 -1.4258  0.8589  1.1703
18613TIP3    H277331   4.435   6.188   3.603  0.9849 -0.4031  0.4907
18614TIP3   OH277332   0.670   1.251  14.224  0.6012  0.2535 -0.4455
18614TIP3    H177333   0.681   1.345  14.238  2.2107 -0.1587  1.5800
18614TIP3    H277334   0.601   1.225  14.285  1.3596 -0.1139  0.2871
18615TIP3   OH277335   5.993   5.439  14.725 -0.7053 -0.1736 -0.2849
18615TIP3    H177336   5.931   5.379  14.765 -1.5121  0.6030 -0.3304
18615TIP3    H277337   6.049   5.467  14.797  0.1965 -1.5623 -0.4086
18616TIP3   OH277338   5.055   5.530  16.414  0.6063  0.6687  0.0409
18616TIP3    H177339   4.991   5.557  16.480 -0.1910 -0.1604 -0.3701
18616TIP3    H277340   5.052   5.598  16.348  2.4862  2.2940  1.5177
18617TIP3   OH277341   3.629   6.543  17.177 -0.1747  0.4398 -0.3826
18617TIP3    H177342   3.595   6.477  17.117  0.6117  1.0193 -1.4798
18617TIP3    H277343   3.712   6.506  17.209 -0.8023 -0.0698  0.7346
18618TIP3   OH277344   5.252   1.517   0.212  0.0503  0.2318 -0.7934
18618TIP3    H177345   5.175   1.513   0.156 -2.1931  0.8883  2.0150
18618TIP3    H277346   5.284   1.427   0.215 -0.4589 -0.0243 -2.1387
18619TIP3   OH277347   1.240   6.771  11.605  0.1959 -0.1042 -0.1084
18619TIP3    H177348   1.236   6.857  11.647 -0.9836 -0.0019 -0.3981
18619TIP3    H277349   1.179   6.777  11.532  0.3005 -1.1089 -0.2951
18620TIP3   OH277350   5.606   5.545  14.732  0.1171 -0.0023 -0.0369
18620TIP3    H177351   5.525   5.576  14.691  0.1629  0.8822  0.5080
18620TIP3    H277352   5.594   5.561  14.825  0.8173 -0.1023  0.0792
18621TIP3   OH277353   4.831   6.811   3.897 -0.0725  0.4588  0.2897
18621TIP3    H177354   4.829   6.818   3.802  0.0721 -0.7856  0.1885
18621TIP3    H277355   4.762   6.748   3.919 -0.8700  1.5506  1.1146
18622TIP3   OH277356   2.104   0.296  15.295  0.0369 -0.4691  0.2539
18622TIP3    H177357   2.111   0.209  15.335  0.4796 -0.4636  0.1978
18622TIP3    H277358   2.030   0.289  15.235 -0.2536 -0.6546  0.6247
18623TIP3   OH277359   1.842   6.088  13.246 -0.5770 -0.0880 -0.3350
18623TIP3    H177360   1.870   6.001  13.273 -0.0586 -0.2986 -1.5315
18623TIP3    H277361   1.792   6.073  13.166  0.9858  0.8574 -1.5365
18624TIP3   OH277362   6.488   0.962  17.066  0.2488  0.1829 -0.0270
18624TIP3    H177363   6.512   1.050  17.040  0.3813  0.5223  1.1621
18624TIP3    H277364   6.488   0.911  16.985  0.0707  1.2904 -0.7344
18625TIP3   OH277365   0.917   0.025  12.378  0.4864 -0.0792  0.0727
18625TIP3    H177366   0.908   0.117  12.400 -0.0082 -0.0983 -0.0397
18625TIP3    H277367   0.859   0.012  12.303 -2.5388 -1.3315  2.4039
18626TIP3   OH277368   0.113   0.087   4.077  0.2975 -0.0625  0.0635
18626TIP3    H177369   0.191   0.044   4.112 -0.3453 -0.5611  0.9295
18626TIP3    H277370   0.050   0.016   4.064  0.4795  0.1048 -2.1103
18627TIP3   OH277371   5.804   6.810  10.703  0.0740 -0.0418  0.3259
18627TIP3    H177372   5.731   6.857  10.662 -0.5926  0.1862  1.7099
18627TIP3    H277373   5.768   6.723  10.722  0.8481 -0.6504 -0.9028
18628TIP3   OH277374   0.551   3.604  14.340  0.7588 -0.3773 -0.1699
18628TIP3    H177375   0.518   3.552  14.414  0.5820 -0.2634 -0.1668
18628TIP3    H277376   0.594   3.540  14.284 -0.6754 -0.7884 -0.8678
18629TIP3   OH277377   4.242   1.375   5.292 -0.2001 -0.3796  0.0331
18629TIP3    H177378   4.323   1.389   5.341  0.2695  0.6632 -0.9657
18629TIP3    H277379   4.260   1.298   5.238 -0.0007 -0.3723  0.0880
18630TIP3   OH277380   2.862   4.807   1.959 -0.1689 -0.6321 -0.0842
18630TIP3    H177381   2.798   4.769   1.898 -0.0423 -2.2176  0.7115
18630TIP3    H277382   2.919   4.734   1.982  1.4449  0.5664 -0.1235
18631TIP3   OH277383   3.755   1.951   0.441  0.1896 -0.1128 -0.0444
18631TIP3    H177384   3.719   1.901   0.514  0.5433 -0.8963 -0.3957
18631TIP3    H277385   3.831   1.900   0.413  0.6358  0.6982 -0.3244
18632TIP3   OH277386   3.825   2.267   5.389  0.0204 -0.0851  0.3350
18632TIP3    H177387   3.791   2.343   5.341 -1.0531 -1.1227 -0.5936
18632TIP3    H277388   3.919   2.269   5.373 -0.4951 -2.1927 -4.7503
18633TIP3   OH277389   4.626   4.955  12.770  0.0781  0.1025  0.1745
18633TIP3    H177390   4.688   5.027  12.756  1.4953 -0.7063  1.9028
18633TIP3    H277391   4.621   4.946  12.865 -2.4118 -0.1598  0.0745
18634TIP3   OH277392   5.896   1.947  11.964  0.1701  0.3844 -0.3628
18634TIP3    H177393   5.902   1.896  11.883 -2.4302  0.4571 -0.6797
18634TIP3    H277394   5.819   1.914  12.008  0.4769  1.6278  1.1937
18635TIP3   OH277395   2.794   1.727  11.227  0.1578  0.1863 -0.1893
18635TIP3    H177396   2.807   1.698  11.137 -4.5395 -0.3294 -0.9424
18635TIP3    H277397   2.796   1.823  11.221  2.2167  0.1909 -0.2664
18636TIP3   OH277398   1.966   3.330  12.670 -0.0109 -0.2426 -0.0484
18636TIP3    H177399   1.949   3.300  12.759 -2.5452  0.8717 -0.0762
18636TIP3    H277400   1.988   3.422  12.679 -0.3381 -0.1057 -0.5731
18637TIP3   OH277401   6.104   5.589  17.151  0.4236  0.2677 -0.2189
18637TIP3    H177402   6.104   5.597  17.247 -0.5225 -1.4298 -0.0296
18637TIP3    H277403   6.196   5.577  17.128  0.7939  1.8618  0.3307
18638TIP3   OH277404   0.705   6.656   5.127 -0.2604  0.0575  0.1586
18638TIP3    H177405   0.783   6.642   5.074 -0.9925  0.2611 -1.0181
18638TIP3    H277406   0.637   6.606   5.083 -0.5991 -0.9242  1.7221
18639TIP3   OH277407   0.090   6.633  13.565  0.1925  0.4347  0.2827
18639TIP3    H177408   0.146   6.586  13.503  1.4080  1.3924  0.6203
18639TIP3    H277409   0.144   6.641  13.644 -0.9193  0.2246  1.0823
18640TIP3   OH277410   1.311   0.387  14.662  0.2990  0.1108  0.3112
18640TIP3    H177411   1.312   0.335  14.582  1.5944  1.2878 -0.4961
18640TIP3    H277412   1.277   0.327  14.729 -1.2882 -0.7588 -1.1738
18641TIP3   OH277413   4.329   2.146   4.987  0.1988  0.4807  0.3563
18641TIP3    H177414   4.319   2.052   5.004  0.3940  0.5002  0.5850
18641TIP3    H277415   4.407   2.152   4.932 -2.6222  0.0012 -4.3387
18642TIP3   OH277416   5.216   3.354  15.660  0.4968 -0.2139 -0.1231
18642TIP3    H177417   5.182   3.430  15.611  3.6595  0.1255 -2.1517
18642TIP3    H277418   5.257   3.300  15.592  2.4030 -1.3378  1.8310
18643TIP3   OH277419   1.246   4.330  12.223 -0.5328  0.3125 -0.8367
18643TIP3    H177420   1.301   4.362  12.294 -0.0712 -0.6287 -0.7527
18643TIP3    H277421   1.258   4.393  12.152  0.9040 -0.0366 -0.9294
18644TIP3   OH277422   5.284   5.568  13.621  0.4137  0.2013  0.2242
18644TIP3    H177423   5.205   5.528  13.586 -0.8969  0.8290  2.2973
18644TIP3    H277424   5.261   5.660  13.632  1.1195  0.2458  1.5841
18645TIP3   OH277425   5.186   5.486  11.775  0.0120  0.2519  0.6813
18645TIP3    H177426   5.201   5.475  11.869 -0.2975 -0.4853  0.6553
18645TIP3    H277427   5.091   5.489  11.766  0.0138 -0.3910  0.3335
18646TIP3   OH277428   0.369   1.178  13.946 -0.6967 -0.1778 -0.0520
18646TIP3    H177429   0.463   1.176  13.925 -0.8062  0.1125 -0.5861
18646TIP3    H277430   0.326   1.181  13.860 -1.1370  2.5082  0.1774
18647TIP3   OH277431   4.204   3.196  16.246  0.4809  0.3359 -0.2385
18647TIP3    H177432   4.228   3.240  16.327  2.0374  0.4470 -0.7407
18647TIP3    H277433   4.121   3.237  16.220  0.2637  0.7010  0.9701
18648TIP3   OH277434   2.310   5.188  15.702  0.3435  0.3056 -0.0200
18648TIP3    H177435   2.268   5.223  15.780 -1.8277 -1.4641 -0.2918
18648TIP3    H277436   2.241   5.137  15.658  2.3545 -1.4605 -1.3632
18649TIP3   OH277437   2.449   6.731   4.286  0.5472  0.2639 -0.8814
18649TIP3    H177438   2.435   6.793   4.358  3.0088 -1.4969  1.3517
18649TIP3    H277439   2.498   6.780   4.220  0.5709  1.2666 -0.1336
18650TIP3   OH277440   1.945   1.536   1.035 -0.8183 -0.1894 -0.6290
18650TIP3    H177441   1.862   1.493   1.055 -1.3585  0.9274 -0.4372
18650TIP3    H277442   1.988   1.477   0.972 -0.1938 -2.5243  1.8033
18651TIP3   OH277443   3.983   3.348  12.070 -0.0354  0.0263 -0.3302
18651TIP3    H177444   3.939   3.427  12.104  0.0945 -0.0976  0.1341
18651TIP3    H277445   3.968   3.352  11.975 -1.4355 -0.2436 -0.1475
18652TIP3   OH277446   1.375   1.553   5.163 -0.3426 -0.2591 -0.0991
18652TIP3    H177447   1.379   1.479   5.102 -1.2532 -0.9306  0.6225
18652TIP3    H277448   1.303   1.607   5.130 -0.6559 -0.4824  0.1981
18653TIP3   OH277449   2.294   5.063  13.348  0.1956  0.0325 -0.0810
18653TIP3    H177450   2.289   4.968  13.337 -0.9994  0.1426 -0.7367
18653TIP3    H277451   2.326   5.076  13.437  0.0099 -0.9820  0.1433
18654TIP3   OH277452   0.377   6.350   3.411 -0.8877 -0.2841  0.3128
18654TIP3    H177453   0.445   6.286   3.391  0.2887  1.0874 -0.2267
18654TIP3    H277454   0.295   6.302   3.397 -0.1517 -0.6820 -3.9323
18655TIP3   OH277455   3.572   5.242  14.374  0.0808  0.0011 -0.1221
18655TIP3    H177456   3.514   5.318  14.366 -0.4576 -0.1627  1.7990
18655TIP3    H277457   3.545   5.184  14.303 -2.8451 -0.4948  1.2469
18656TIP3   OH277458   1.279   0.061   3.104 -0.3022 -0.0156 -0.7363
18656TIP3    H177459   1.235   0.038   3.185  0.5631 -1.4792 -0.6288
18656TIP3    H277460   1.353   0.001   3.100  2.7747  3.3873 -0.0505
18657TIP3   OH277461   1.498   4.788  14.032  0.2207 -0.2757 -0.7606
18657TIP3    H177462   1.488   4.813  14.124 -0.2195  2.3516 -1.4373
18657TIP3    H277463   1.424   4.730  14.015 -1.2315  1.2691 -0.0609
18658TIP3   OH277464   5.202   6.493   1.138  0.0362 -0.4663 -0.6461
18658TIP3    H177465   5.257   6.418   1.159  0.6759 -0.6531 -2.7588
18658TIP3    H277466   5.203   6.497   1.042 -0.2274  2.0629 -0.5972
18659TIP3   OH277467   5.586   4.178  16.365 -0.1153 -0.2406 -0.5553
18659TIP3    H177468   5.680   4.172  16.384 -0.2300  0.5741  0.3358
18659TIP3    H277469   5.582   4.222  16.280  0.3291 -1.3643 -1.1801
18660TIP3   OH277470   2.571   6.430  10.828 -0.1900  0.0619  0.2207
18660TIP3    H177471   2.512   6.360  10.801 -0.0586  0.0899 -0.1392
18660TIP3    H277472   2.521   6.481  10.892 -0.5845  0.1381 -0.1510
18661TIP3   OH277473   5.136   1.657   5.440  0.1486  0.2995 -0.9633
18661TIP3    H177474   5.060   1.703   5.476  0.6026  0.2108  0.1676
18661TIP3    H277475   5.112   1.564   5.444 -0.8488  0.3758 -3.4353
18662TIP3   OH277476   2.860   3.275  13.390 -0.1998 -0.0710 -0.0845
18662TIP3    H177477   2.939   3.314  13.429  0.2152 -1.8548  0.9649
18662TIP3    H277478   2.792   3.288  13.456 -0.5193  0.4346 -0.5015
18663TIP3   OH277479   0.847   4.351  15.784 -0.0418 -0.9063 -0.2736
18663TIP3    H177480   0.934   4.349  15.746  0.0012 -0.3405 -0.2101
18663TIP3    H277481   0.846   4.429  15.839 -0.9578 -0.2367 -1.1928
18664TIP3   OH277482   5.669   0.438  16.169 -0.5156 -0.3619  0.3997
18664TIP3    H177483   5.763   0.450  16.179  0.1048 -2.2292 -2.2324
18664TIP3    H277484   5.650   0.354  16.210 -0.2398 -1.8697 -2.3667
18665TIP3   OH277485   2.780   6.022   3.754  0.5441 -0.0975  0.0607
18665TIP3    H177486   2.855   6.037   3.695  0.2443 -1.7211 -0.7832
18665TIP3    H277487   2.705   6.014   3.695  0.0668 -0.6947  0.7417
18666TIP3   OH277488   4.256   3.216   4.414  0.1083  0.4171 -0.0666
18666TIP3    H177489   4.182   3.191   4.470  0.5677 -0.7258  0.0543
18666TIP3    H277490   4.322   3.149   4.430  0.9028  1.0267 -0.7148
18667TIP3   OH277491   4.561   5.808   1.849  0.4059  0.2954  0.4223
18667TIP3    H177492   4.468   5.830   1.847  0.2212 -0.4599  0.0735
18667TIP3    H277493   4.598   5.849   1.771 -0.2513 -1.8449 -1.1253
18668TIP3   OH277494   0.850   6.678   1.858 -0.1483 -0.2174 -0.3036
18668TIP3    H177495   0.788   6.732   1.810  1.2900  0.2004 -1.7959
18668TIP3    H277496   0.867   6.727   1.938 -2.7134 -1.0069  0.8228
18669TIP3   OH277497   3.816   0.260   0.955  0.1098  0.2233 -0.0374
18669TIP3    H177498   3.727   0.291   0.939  0.3010  0.1026 -1.3975
18669TIP3    H277499   3.804   0.177   1.002 -0.4706  0.4951  0.3093
18670TIP3   OH277500   5.186   0.410  12.483 -0.0107  0.1318 -0.2576
18670TIP3    H177501   5.256   0.445  12.428  1.5800  1.5962  2.4630
18670TIP3    H277502   5.112   0.399  12.423  2.7401 -2.5993 -3.5312
18671TIP3   OH277503   1.968   3.157  17.087  0.5008 -0.1413 -0.4844
18671TIP3    H177504   1.886   3.128  17.047  0.5081  1.5855 -1.8639
18671TIP3    H277505   1.990   3.088  17.150 -1.4346 -1.1593 -0.8581
18672TIP3   OH277506   1.517   0.875   3.853 -0.0317 -0.0375 -0.3282
18672TIP3    H177507   1.560   0.798   3.891  0.3725  0.2842 -0.1221
18672TIP3    H277508   1.470   0.914   3.926  2.5182  1.8387  0.4815
18673TIP3   OH277509   5.645   0.844  11.407  0.2417  0.0188 -0.2586
18673TIP3    H177510   5.595   0.922  11.382 -1.1277 -1.1485 -1.3742
18673TIP3    H277511   5.658   0.797  11.324 -2.6264 -2.9630  0.7875
18674TIP3   OH277512   5.928   1.389  14.232  0.3076  0.4531 -0.5035
18674TIP3    H177513   5.942   1.302  14.267 -3.7308 -0.6789 -1.2008
18674TIP3    H277514   5.930   1.378  14.137 -2.1222  0.6159 -0.6305
18675TIP3   OH277515   0.944   4.676   4.435  0.0658  0.1558 -0.7908
18675TIP3    H177516   0.915   4.586   4.423 -0.8387  0.2289  0.5935
18675TIP3    H277517   1.007   4.691   4.365 -1.6086 -0.7510 -2.5905
18676TIP3   OH277518   3.389   4.330  16.147  0.2963 -0.4680 -0.4113
18676TIP3    H177519   3.426   4.245  16.170 -2.9409 -1.5680  1.3284
18676TIP3    H277520   3.320   4.310  16.083 -3.0243  0.1356  2.6503
18677TIP3   OH277521   4.693   1.721   1.948 -0.3006 -0.6042 -0.3350
18677TIP3    H177522   4.599   1.733   1.961 -0.1110  0.0342  0.5104
18677TIP3    H277523   4.714   1.639   1.993 -0.5042 -0.9337 -0.8269
18678TIP3   OH277524   5.504   1.594  17.023  0.2282  0.3150  0.2276
18678TIP3    H177525   5.540   1.639  17.100  0.9612  0.1123  0.0076
18678TIP3    H277526   5.445   1.659  16.985 -1.1931 -0.0466  1.6958
18679TIP3   OH277527   1.764   0.531  11.078  0.2587 -0.0266  0.3217
18679TIP3    H177528   1.717   0.522  11.161  1.4462  0.6784  1.0954
18679TIP3    H277529   1.756   0.623  11.056  0.3709 -0.1179 -0.1007
18680TIP3   OH277530   3.875   1.470   5.044 -0.4288 -0.4969 -0.4408
18680TIP3    H177531   3.933   1.515   5.105 -1.6028  0.7910 -0.2265
18680TIP3    H277532   3.924   1.392   5.017  1.3724  0.5230 -0.2566
18681TIP3   OH277533   0.820   5.871  12.139 -0.0724 -0.3607 -0.1864
18681TIP3    H177534   0.832   5.907  12.050 -0.2992 -0.7408 -0.3740
18681TIP3    H277535   0.897   5.900  12.187 -0.0692  0.0656 -0.4380
18682TIP3   OH277536   2.107   0.972   1.405 -0.5723 -0.2437  0.2663
18682TIP3    H177537   2.191   1.017   1.401 -0.0997 -1.1158 -3.0276
18682TIP3    H277538   2.130   0.879   1.406 -1.4396 -0.4941 -0.7115
18683TIP3   OH277539   4.365   2.757  16.523  0.1645 -0.2877 -0.0197
18683TIP3    H177540   4.342   2.835  16.474  1.3634 -0.0064 -0.1782
18683TIP3    H277541   4.329   2.684  16.472 -1.2889  0.1650  0.3331
18684TIP3   OH277542   6.541   1.363   1.970 -0.6192 -0.2763  0.3613
18684TIP3    H177543   6.490   1.317   1.903 -0.2929 -0.7607  0.4406
18684TIP3    H277544   6.560   1.296   2.036 -0.8882  0.1859  0.9098
18685TIP3   OH277545   0.811   4.142  15.522 -0.5408  0.1746  0.3670
18685TIP3    H177546   0.860   4.218  15.491  2.1659 -0.3983  2.7412
18685TIP3    H277547   0.763   4.173  15.598 -0.9049 -0.0903  0.2485
18686TIP3   OH277548   1.567   1.556  13.307  0.5029 -0.0636  0.0319
18686TIP3    H177549   1.517   1.608  13.243 -1.0078 -0.0628  1.1706
18686TIP3    H277550   1.548   1.465  13.284  1.0441 -0.0940 -0.3280
18687TIP3   OH277551   2.897   0.061  12.316  0.2976 -0.2912  0.0493
18687TIP3    H177552   2.822   0.117  12.298 -0.7117 -1.0637  1.6458
18687TIP3    H277553   2.890   0.040  12.409  2.4339 -0.4900  0.2211
18688TIP3   OH277554   3.917   2.147   1.073  0.9396 -0.2189  0.3532
18688TIP3    H177555   3.894   2.163   0.982 -0.5539  1.7990  1.0019
18688TIP3    H277556   3.867   2.069   1.097  1.4661 -0.8584 -0.5532
18689TIP3   OH277557   5.069   4.373  14.181  0.6471  0.3526 -0.1714
18689TIP3    H177558   5.007   4.376  14.109  1.0008 -0.0503 -0.4955
18689TIP3    H277559   5.033   4.306  14.240  0.1385  0.9726  0.2386
18690TIP3   OH277560   2.851   5.991  16.953 -0.5649 -0.3270 -0.4654
18690TIP3    H177561   2.928   5.938  16.932  0.3330  1.7515 -2.8386
18690TIP3    H277562   2.787   5.968  16.886 -2.9696 -3.4426  2.5206
18691TIP3   OH277563   5.429   6.595   4.498 -0.5044  0.5621 -0.0525
18691TIP3    H177564   5.459   6.611   4.408 -0.8588  0.8863 -0.1165
18691TIP3    H277565   5.476   6.660   4.551 -0.9933  0.9966 -0.1376
18692TIP3   OH277566   0.047   5.576   4.292 -0.2459  0.4194  0.3949
18692TIP3    H177567   0.033   5.629   4.214  0.4576  0.0489  0.0129
18692TIP3    H277568   0.101   5.632   4.349  0.8489 -0.0216 -0.1799
18693TIP3   OH277569   0.586   5.564   4.586 -0.4993 -0.4315 -0.1390
18693TIP3    H177570   0.631   5.485   4.558 -0.9025 -1.3057  1.5617
18693TIP3    H277571   0.542   5.540   4.667 -1.0697  1.3955  0.1529
18694TIP3   OH277572   1.264   3.521  11.786  0.2519 -0.2192  0.4106
18694TIP3    H177573   1.326   3.584  11.824  0.9617  0.3847 -1.6028
18694TIP3    H277574   1.249   3.553  11.697  0.5334 -2.8102 -0.6549
18695TIP3   OH277575   4.538   6.417   3.296  0.1877 -0.5785 -0.6273
18695TIP3    H177576   4.502   6.387   3.212  1.6209 -0.3776 -1.3330
18695TIP3    H277577   4.588   6.495   3.274  2.6858 -1.9072 -0.0254
18696TIP3   OH277578   5.452   3.694  14.069 -0.4862  0.4507 -0.3839
18696TIP3    H177579   5.399   3.619  14.096 -1.2151  1.1152  0.0786
18696TIP3    H277580   5.418   3.767  14.121  1.5210  0.7233  0.6252
18697TIP3   OH277581   0.753   6.238  13.739 -0.3562 -0.6444 -0.4349
18697TIP3    H177582   0.757   6.166  13.802 -1.1627 -0.1624  0.1787
18697TIP3    H277583   0.674   6.221  13.688 -1.7114  0.8775  1.0672
18698TIP3   OH277584   1.367   0.567   3.709 -0.6838 -0.0189  0.4128
18698TIP3    H177585   1.393   0.549   3.799  0.1977  1.2400  0.4408
18698TIP3    H277586   1.397   0.491   3.660 -1.7552 -1.0268  1.2482
18699TIP3   OH277587   4.959   6.630   3.105  0.3431  0.0020 -0.3868
18699TIP3    H177588   4.968   6.721   3.076 -1.0450  0.9417  1.8582
18699TIP3    H277589   5.043   6.609   3.145  0.7471  0.2041 -1.1094
18700TIP3   OH277590   6.464   0.899  11.138 -0.4268 -0.4829  0.1461
18700TIP3    H177591   6.394   0.850  11.096 -1.9739  1.7889 -0.1046
18700TIP3    H277592   6.428   0.923  11.224 -0.0837  0.8460 -0.0503
18701TIP3   OH277593   1.946   5.611   3.908 -0.3502 -0.3883 -0.2804
18701TIP3    H177594   1.975   5.607   3.817 -0.5118  1.3062 -0.4314
18701TIP3    H277595   1.859   5.652   3.904 -0.5557 -0.7136  0.6037
18702TIP3   OH277596   4.914   1.009  13.363  0.4433 -0.1397 -0.2276
18702TIP3    H177597   4.957   1.060  13.295 -0.4203  0.5703 -0.2604
18702TIP3    H277598   4.859   0.947  13.315  0.5554 -0.2812 -0.1760
18703TIP3   OH277599   2.263   6.500  13.027  0.1095  0.2115 -0.4479
18703TIP3    H177600   2.342   6.553  13.011  0.8898 -0.3431  1.2771
18703TIP3    H277601   2.238   6.523  13.117 -1.1409 -0.3536 -0.6376
18704TIP3   OH277602   0.555   4.615  11.020 -0.2501 -0.2215 -0.3974
18704TIP3    H177603   0.542   4.549  11.087 -0.6117 -0.5446 -0.7744
18704TIP3    H277604   0.633   4.588  10.972  2.0513  1.7821  1.9380
18705TIP3   OH277605   5.639   4.668  14.263  0.1297 -0.7812 -0.1121
18705TIP3    H177606   5.580   4.741  14.244  1.1686  0.5814  1.6362
18705TIP3    H277607   5.595   4.592  14.224 -1.7251  0.4960 -0.6894
18706TIP3   OH277608   2.701   2.869  11.699 -0.0828  0.4639  0.3706
18706TIP3    H177609   2.689   2.964  11.692 -3.0154  0.1544 -0.0157
18706TIP3    H277610   2.652   2.834  11.625  2.5476 -1.3665 -0.6712
18707TIP3   OH277611   5.367   1.614  15.096 -0.3320 -0.3558 -0.4345
18707TIP3    H177612   5.459   1.619  15.125 -0.0744 -0.7255 -1.1743
18707TIP3    H277613   5.320   1.582  15.173 -0.4210  3.0542  1.1188
18708TIP3   OH277614   4.349   0.895  14.395  0.4996 -0.4155  0.1113
18708TIP3    H177615   4.392   0.966  14.348 -1.1279  0.0031 -0.8302
18708TIP3    H277616   4.336   0.928  14.483 -0.0982  0.4340 -0.2769
18709TIP3   OH277617   5.188   3.566  16.085  0.6897  0.4739 -0.1600
18709TIP3    H177618   5.279   3.553  16.058  0.8816  2.2468 -0.5147
18709TIP3    H277619   5.142   3.487  16.055  2.3590 -1.2107  1.4485
18710TIP3   OH277620   0.348   2.979  13.857 -0.7948  0.6168 -0.4957
18710TIP3    H177621   0.375   2.940  13.940 -2.6234 -1.6830 -0.8899
18710TIP3    H277622   0.271   3.031  13.879 -1.3117 -0.0379 -0.7595
18711TIP3   OH277623   6.472   1.740   1.433 -0.1515  0.0314 -0.4927
18711TIP3    H177624   6.383   1.770   1.452 -0.1453  1.5045 -2.4767
18711TIP3    H277625   6.528   1.804   1.475 -0.0276 -0.2956 -0.1511
18712TIP3   OH277626   5.054   3.244  14.200  0.3907  0.2106  0.4395
18712TIP3    H177627   5.008   3.176  14.150 -0.4569  0.9125  0.2442
18712TIP3    H277628   5.116   3.280  14.137  0.6289 -0.1676  0.4522
18713TIP3   OH277629   0.517   4.884   1.637 -0.5243 -0.8245 -0.7106
18713TIP3    H177630   0.605   4.919   1.627 -0.9004  0.5690  0.4317
18713TIP3    H277631   0.495   4.900   1.729 -2.6699  0.6517 -1.3819
18714TIP3   OH277632   4.508   4.102   3.889  0.1945 -0.0012  0.6331
18714TIP3    H177633   4.588   4.144   3.855 -1.2490  1.8508 -0.6712
18714TIP3    H277634   4.466   4.065   3.811 -0.4488 -0.5360  1.2315
18715TIP3   OH277635   4.935   5.124   0.672  0.7213 -0.2562 -0.1920
18715TIP3    H177636   4.970   5.080   0.749 -0.0041 -1.1602 -0.3621
18715TIP3    H277637   5.011   5.164   0.630  0.9287  1.8037  1.9344
18716TIP3   OH277638   5.706   4.032  15.401 -0.5331 -0.0179 -0.3644
18716TIP3    H177639   5.645   4.082  15.346 -1.8463 -1.0690  0.0894
18716TIP3    H277640   5.654   3.958  15.433  0.9778 -0.9182  0.0878
18717TIP3   OH277641   6.315   0.055   3.082 -0.3585  0.0659 -0.2927
18717TIP3    H177642   6.228   0.092   3.066 -0.5276 -0.9279 -1.9063
18717TIP3    H277643   6.300  -0.040   3.088  0.4447 -0.0093  0.7375
18718TIP3   OH277644   3.215   5.407  13.344 -0.3459  0.3324 -0.1731
18718TIP3    H177645   3.121   5.396  13.356 -0.0010 -2.9082  0.3978
18718TIP3    H277646   3.251   5.318  13.350  2.7755  1.4605 -0.2707
18719TIP3   OH277647   0.626   1.119  14.943 -0.0005  0.1542 -0.1422
18719TIP3    H177648   0.531   1.130  14.954  0.2697  1.4693  1.2773
18719TIP3    H277649   0.636   1.077  14.858 -1.8430  0.3186 -0.4776
18720TIP3   OH277650   6.754   2.129  16.665 -0.0894  0.3288  0.1192
18720TIP3    H177651   6.701   2.171  16.598 -1.3440  0.3986  1.1123
18720TIP3    H277652   6.795   2.202  16.712  0.1119  0.3124 -0.0294
18721TIP3   OH277653   0.539   2.731  15.920 -0.0339  0.9029 -0.2582
18721TIP3    H177654   0.469   2.740  15.985  0.6610 -0.3023  0.6915
18721TIP3    H277655   0.613   2.696  15.969  1.0179  1.4709 -1.3928
18722TIP3   OH277656   4.310   6.344  12.252  0.4982 -0.3177  0.0222
18722TIP3    H177657   4.310   6.440  12.246 -0.5143 -0.3686 -1.1105
18722TIP3    H277658   4.289   6.326  12.344  0.0733  0.5393  0.1036
18723TIP3   OH277659   2.881   6.624   1.761  0.8468 -0.0504  0.3477
18723TIP3    H177660   2.913   6.555   1.819  2.6393  0.3245 -0.1459
18723TIP3    H277661   2.899   6.706   1.809 -1.4094  0.1422  1.0054
18724TIP3   OH277662   5.229   0.709  14.132 -0.1122  0.6721 -0.8807
18724TIP3    H177663   5.191   0.681  14.048 -0.8170 -0.7646 -0.1199
18724TIP3    H277664   5.323   0.716  14.113 -0.3959  1.5452 -2.0837
18725TIP3   OH277665   5.261   1.074   1.182  0.1795 -0.5340 -0.6800
18725TIP3    H177666   5.184   1.055   1.236 -0.0713  0.5064 -0.6466
18725TIP3    H277667   5.233   1.050   1.093 -0.0013 -0.6581 -0.5916
18726TIP3   OH277668   5.323   0.815  11.446 -0.6094 -0.4777 -0.6622
18726TIP3    H177669   5.240   0.851  11.413 -0.2019  1.2765  0.0795
18726TIP3    H277670   5.359   0.885  11.501  0.4666 -1.9194  0.5583
18727TIP3   OH277671   0.542   2.084  12.961  0.1186 -0.1119 -0.4216
18727TIP3    H177672   0.606   2.127  13.018 -0.9110  1.6885 -0.5396
18727TIP3    H277673   0.459   2.094  13.006  0.1320 -5.6984  1.6188
18728TIP3   OH277674   3.741   2.988   2.508 -0.5567  0.4366 -0.9705
18728TIP3    H177675   3.694   2.918   2.462 -1.6871  1.1475 -0.9532
18728TIP3    H277676   3.671   3.047   2.537  0.3801  1.5859 -1.0236
18729TIP3   OH277677   6.151   1.785  16.848  0.3678  0.1713  0.2526
18729TIP3    H177678   6.106   1.754  16.927 -1.6747 -1.6035 -1.4566
18729TIP3    H277679   6.215   1.848  16.879  0.0212 -0.8723  3.3549
18730TIP3   OH277680   0.526   5.450   4.167  0.1623 -0.7685 -0.5712
18730TIP3    H177681   0.606   5.424   4.120  0.4750 -0.6269 -0.1164
18730TIP3    H277682   0.502   5.535   4.129  0.4185 -0.6510 -0.4683
18731TIP3   OH277683   6.172   3.236   5.890 -0.4486  0.5224  0.1327
18731TIP3    H177684   6.089   3.226   5.845  0.3129  0.2268 -1.2633
18731TIP3    H277685   6.236   3.192   5.834  0.9207  2.1193  0.3319
18732TIP3   OH277686   0.604   1.873   2.748 -0.0865  0.5894  0.2889
18732TIP3    H177687   0.663   1.850   2.676  1.1147 -1.9884  1.9801
18732TIP3    H277688   0.656   1.931   2.803 -0.3399  1.0226  0.0779
18733TIP3   OH277689   5.183   1.041  16.904 -0.0193 -0.0900 -0.6177
18733TIP3    H177690   5.156   1.115  16.851 -0.2538 -0.3789 -0.9054
18733TIP3    H277691   5.101   1.000  16.932  0.1105 -0.3279 -0.5844
18734TIP3   OH277692   3.086   5.561  13.941  0.0089 -0.1691 -0.2105
18734TIP3    H177693   2.997   5.533  13.918 -0.8806  1.5075  0.9261
18734TIP3    H277694   3.138   5.544  13.863 -1.2914 -1.2470 -0.8848
18735TIP3   OH277695   5.609   6.572   1.085  0.0333  0.5314  0.6466
18735TIP3    H177696   5.690   6.533   1.118  1.4322  2.0776 -0.7394
18735TIP3    H277697   5.581   6.515   1.014  1.1947  1.1549 -0.3465
18736TIP3   OH277698   0.380   1.743  16.971 -0.1548  0.2880  0.0296
18736TIP3    H177699   0.295   1.711  17.001 -0.8131  1.0572 -0.9323
18736TIP3    H277700   0.363   1.777  16.883  1.3508 -0.3794 -0.5563
18737TIP3   OH277701   4.586   3.683  11.077 -0.0925  0.5244 -0.3310
18737TIP3    H177702   4.614   3.672  10.986  0.5136  0.8418 -0.1882
18737TIP3    H277703   4.648   3.630  11.127 -1.7154 -1.4306 -0.2531
18738TIP3   OH277704   4.691   4.648  15.928  0.0623  0.1789  0.1282
18738TIP3    H177705   4.785   4.650  15.948  0.5311 -1.0327 -1.7177
18738TIP3    H277706   4.668   4.556  15.933 -0.7846  0.3547 -0.4944
18739TIP3   OH277707   4.904   3.876  15.762 -0.0477  0.3266 -0.0535
18739TIP3    H177708   4.842   3.805  15.743  0.2131  0.0373  0.1792
18739TIP3    H277709   4.967   3.838  15.823  0.6548  0.4776 -0.6763
18740TIP3   OH277710   1.510   1.309   0.281  0.1587 -0.5502 -0.1321
18740TIP3    H177711   1.481   1.319   0.191  0.8496 -1.2072 -0.4432
18740TIP3    H277712   1.572   1.381   0.295  1.0501 -1.1947 -0.6258
18741TIP3   OH277713   1.264   4.908   4.558 -0.0098  0.1526 -0.5099
18741TIP3    H177714   1.324   4.932   4.487  1.0522 -2.0372 -0.4312
18741TIP3    H277715   1.262   4.986   4.614  1.2053  0.9944 -1.5786
18742TIP3   OH277716   4.888   3.192  16.213 -0.6297  0.0520  0.0958
18742TIP3    H177717   4.909   3.231  16.298 -0.4870 -3.0299  1.5899
18742TIP3    H277718   4.807   3.143  16.227 -0.3996 -0.8560 -1.4369
18743TIP3   OH277719   5.942   2.580   0.026 -0.3116  0.0757  0.2022
18743TIP3    H177720   5.974   2.651   0.082  0.5768 -0.6123  0.5857
18743TIP3    H277721   5.848   2.574   0.047 -0.5143  1.4383 -0.1904
18744TIP3   OH277722   0.301   3.038   2.535 -0.2046 -0.1919  0.1112
18744TIP3    H177723   0.365   3.106   2.555 -0.7292  0.3562 -0.0317
18744TIP3    H277724   0.332   2.961   2.582 -1.5975  1.1085  3.4410
18745TIP3   OH277725   6.203   5.064   3.901 -0.5262 -0.3958 -0.4417
18745TIP3    H177726   6.138   5.002   3.934 -1.6507  0.5863 -0.7553
18745TIP3    H277727   6.220   5.035   3.812 -2.8780  1.0920 -1.4608
18746TIP3   OH277728   4.950   1.439  14.184  0.2036 -0.4144  0.1886
18746TIP3    H177729   5.031   1.394  14.160  0.1388 -0.2947 -0.2765
18746TIP3    H277730   4.882   1.393  14.134  0.0409 -0.2631  0.2717
18747TIP3   OH277731   2.708   2.431   2.966 -0.1659 -0.3012  0.1548
18747TIP3    H177732   2.775   2.498   2.971 -1.5632  1.0516  1.9849
18747TIP3    H277733   2.753   2.350   2.988  0.6813  0.7691  2.7297
18748TIP3   OH277734   4.548   1.506   1.017  0.5383 -0.5742  0.4865
18748TIP3    H177735   4.511   1.518   1.104 -1.9789  0.4790 -0.6104
18748TIP3    H277736   4.475   1.473   0.964  1.6869 -0.1970 -1.4612
18749TIP3   OH277737   6.828   0.109  10.966  0.0151 -0.3136 -0.1220
18749TIP3    H177738   6.913   0.070  10.985  0.5736  0.8978 -0.0208
18749TIP3    H277739   6.809   0.083  10.876 -0.2392 -1.8517  0.3525
18750TIP3   OH277740   4.848   2.723   1.935  0.2429  0.0506  0.2004
18750TIP3    H177741   4.769   2.772   1.911  0.8079  0.0010 -1.9866
18750TIP3    H277742   4.906   2.789   1.974  0.0630  0.6308 -0.4867
18751TIP3   OH277743   4.867   6.163   1.975  0.9788 -0.0294  0.6207
18751TIP3    H177744   4.909   6.248   1.987  0.0280  0.7837 -1.3682
18751TIP3    H277745   4.774   6.183   1.962  0.4415 -1.5329  1.7689
18752TIP3   OH277746   0.475   4.966   5.960 -0.3200  0.1335  0.9331
18752TIP3    H177747   0.485   4.935   6.050 -1.5758  0.9403  1.3756
18752TIP3    H277748   0.468   5.061   5.968 -2.3894  0.0833  0.2051
18753TIP3   OH277749   6.055   5.826  13.937  0.4786  0.4510  0.4680
18753TIP3    H177750   6.148   5.849  13.936  0.5881  0.0497 -0.7449
18753TIP3    H277751   6.014   5.891  13.879  0.3962 -0.7671 -0.9081
18754TIP3   OH277752   0.851   1.562  16.616  0.3437 -0.5520 -0.5609
18754TIP3    H177753   0.797   1.578  16.538  1.5665  1.2926 -1.0686
18754TIP3    H277754   0.930   1.614  16.603  1.2434 -1.3573  1.2555
18755TIP3   OH277755   0.533   1.402  13.381 -0.2492  0.7121 -0.0682
18755TIP3    H177756   0.527   1.483  13.432  1.2035 -0.3092  1.8517
18755TIP3    H277757   0.532   1.332  13.446 -2.0957 -0.9244 -1.6989
18756TIP3   OH277758   4.036   2.012  11.740 -0.1234  0.4807  0.0510
18756TIP3    H177759   3.968   2.075  11.763 -1.5585 -1.3832  1.2845
18756TIP3    H277760   4.043   1.956  11.817  1.4896 -0.5420 -0.7807
18757TIP3   OH277761   3.717   1.056  15.135 -0.8748  0.2304 -0.7518
18757TIP3    H177762   3.746   1.144  15.158  1.0652 -0.7050  0.6545
18757TIP3    H277763   3.646   1.037  15.196  0.6566 -0.2029  0.9936
18758TIP3   OH277764   1.644   5.630   6.667  0.2306  0.0898  0.0200
18758TIP3    H177765   1.691   5.674   6.596  0.1259  2.2882  1.2289
18758TIP3    H277766   1.713   5.590   6.720  0.2655 -2.4831 -1.7600
18759TIP3   OH277767   3.452   1.237   5.595 -0.3300  0.1228 -0.2915
18759TIP3    H177768   3.480   1.244   5.686 -1.4819  1.6221 -0.0104
18759TIP3    H277769   3.533   1.241   5.544  0.2981 -0.4620  0.6389
18760TIP3   OH277770   0.984   5.628  13.895  0.3405  0.3277  0.2355
18760TIP3    H177771   1.066   5.578  13.906 -0.3608 -1.0376 -0.4002
18760TIP3    H277772   1.007   5.718  13.917  2.4490  0.3050 -1.5455
18761TIP3   OH277773   2.895   1.291   5.882 -0.5315 -0.8629  0.0063
18761TIP3    H177774   2.860   1.240   5.809  0.0676  0.6129 -1.3802
18761TIP3    H277775   2.832   1.278   5.953 -2.2873 -0.7051 -1.4468
18762TIP3   OH277776   0.868   2.072   0.857  0.3156  0.6447  0.0489
18762TIP3    H177777   0.935   2.140   0.868  1.3898 -0.1475 -1.1751
18762TIP3    H277778   0.795   2.118   0.816  0.7188  1.2345 -0.0322
18763TIP3   OH277779   6.452   3.029   1.233  0.3729 -0.3276 -0.5004
18763TIP3    H177780   6.463   3.107   1.287 -0.5661 -1.3118  1.1990
18763TIP3    H277781   6.521   2.970   1.261 -1.1432 -1.5037  0.9120
18764TIP3   OH277782   0.364   6.789   0.381  0.2902 -0.1192  0.0202
18764TIP3    H177783   0.335   6.770   0.470 -0.8519  0.0223 -0.3070
18764TIP3    H277784   0.356   6.706   0.335  0.0648  0.0054 -0.1653
18765TIP3   OH277785   3.656   5.893  11.181 -0.2556 -0.4494 -0.0751
18765TIP3    H177786   3.663   5.988  11.182 -1.5008 -0.3281  1.5780
18765TIP3    H277787   3.622   5.870  11.268 -0.1534 -2.3842 -0.4939
18766TIP3   OH277788   0.117   2.563  13.741 -0.0533  0.0461 -0.0304
18766TIP3    H177789   0.050   2.592  13.803 -0.3732 -1.0471  0.1612
18766TIP3    H277790   0.073   2.567  13.656  0.4041  1.6016 -0.2151
18767TIP3   OH277791   1.328   1.372   0.898 -0.4652 -0.1184  0.1830
18767TIP3    H177792   1.283   1.423   0.831  0.9053  0.7979 -0.0968
18767TIP3    H277793   1.414   1.354   0.860 -0.4537 -1.5240  0.8187
18768TIP3   OH277794   0.366   5.926   3.397  0.2981 -0.4068  0.0855
18768TIP3    H177795   0.439   5.925   3.458 -0.3844 -1.4298  0.9413
18768TIP3    H277796   0.308   5.995   3.430  0.5106 -0.1359 -0.1158
18769TIP3   OH277797   0.430   2.830  11.938 -0.2746  0.3950 -0.3411
18769TIP3    H177798   0.432   2.911  11.989  1.2856  0.0009  0.3031
18769TIP3    H277799   0.342   2.825  11.902  0.2248  3.5606 -2.3299
18770TIP3   OH277800   0.802   2.070  14.934  0.7737  0.4536 -0.0385
18770TIP3    H177801   0.714   2.069  14.974  0.7465  0.5500 -0.0972
18770TIP3    H277802   0.855   2.122  14.995  1.1731 -0.9106  0.8200
18771TIP3   OH277803   0.746   2.927   0.312 -0.1184  0.4891 -0.5076
18771TIP3    H177804   0.743   3.014   0.274  0.1283 -0.0903 -1.8908
18771TIP3    H277805   0.836   2.897   0.300 -0.2821 -0.0947 -0.3547
18772TIP3   OH277806   4.025   2.774  12.698  0.0700 -0.5395 -0.1206
18772TIP3    H177807   4.009   2.780  12.604  0.6806  0.5823 -0.1715
18772TIP3    H277808   3.945   2.736  12.735  0.2209 -1.9872 -1.1994
18773TIP3   OH277809   1.520   1.682   6.382 -0.1454  0.1762 -0.0838
18773TIP3    H177810   1.444   1.721   6.424 -1.4929 -0.4371 -1.8553
18773TIP3    H277811   1.594   1.712   6.435 -1.4508  2.0344  0.8019
18774TIP3   OH277812   0.527   5.755   3.263 -0.7623  0.1599  0.0686
18774TIP3    H177813   0.454   5.772   3.321 -0.0171 -0.9815  1.4004
18774TIP3    H277814   0.594   5.819   3.288 -1.3879  1.4951 -1.4382
18775TIP3   OH277815   0.909   0.896  14.920  0.1841  0.0586  0.2713
18775TIP3    H177816   0.944   0.825  14.866 -0.1103 -0.9964  1.4285
18775TIP3    H277817   0.984   0.953  14.934  0.1536  0.6669 -1.6658
18776TIP3   OH277818   2.506   1.115  12.033 -0.2845  0.0145 -0.3892
18776TIP3    H177819   2.554   1.061  11.971  0.2712 -1.8985  1.5722
18776TIP3    H277820   2.414   1.104  12.009 -0.2168 -2.1156  0.0934
18777TIP3   OH277821   1.962   1.229   2.996  0.0205  0.0785  0.3503
18777TIP3    H177822   2.047   1.209   2.955  0.2528  1.2335  0.2376
18777TIP3    H277823   1.981   1.227   3.090  0.4291  1.3376  0.3099
18778TIP3   OH277824   5.806   3.324   4.499 -0.0466 -0.1779  0.0832
18778TIP3    H177825   5.803   3.229   4.487  1.5899 -0.2887  0.3464
18778TIP3    H277826   5.823   3.336   4.593 -0.9868  0.4006  0.1893
18779TIP3   OH277827   2.013   0.499   0.724  0.6178  0.3947  0.1549
18779TIP3    H177828   2.044   0.420   0.769 -0.6690 -0.9861 -1.2224
18779TIP3    H277829   2.062   0.500   0.642 -0.9719 -0.3237 -0.8529
18780TIP3   OH277830   2.064   6.095  10.888 -0.1058  0.0566  0.1317
18780TIP3    H177831   1.995   6.029  10.901 -0.0789 -0.0972 -0.4590
18780TIP3    H277832   2.137   6.045  10.850 -0.2904  0.5197 -0.8695
18781TIP3   OH277833   4.576   5.964  16.077 -0.0650 -0.0571  0.6285
18781TIP3    H177834   4.631   6.036  16.108 -1.1691  0.8809  0.5001
18781TIP3    H277835   4.558   5.985  15.985 -0.9417 -0.1371  0.7709
18782TIP3   OH277836   2.036   1.785   3.048  0.1355  0.0845 -0.2292
18782TIP3    H177837   2.116   1.741   3.078  1.1063  1.3740 -0.7950
18782TIP3    H277838   2.046   1.790   2.953 -0.9558 -0.3410 -0.3758
18783TIP3   OH277839   2.105   4.755   3.064  0.1731 -0.4761  0.3264
18783TIP3    H177840   2.100   4.788   3.154 -1.0272  0.9677 -0.2179
18783TIP3    H277841   2.029   4.698   3.056 -1.4774  1.6898 -0.5627
18784TIP3   OH277842   3.396   4.132   2.161 -0.2035  0.2309  0.3102
18784TIP3    H177843   3.482   4.100   2.188 -0.4448  0.3529  1.2752
18784TIP3    H277844   3.397   4.224   2.184 -0.6518  0.1954  0.4732
18785TIP3   OH277845   1.152   3.355  12.661  0.2164 -0.2316  0.2138
18785TIP3    H177846   1.219   3.421  12.678 -0.5174  0.8354 -0.8680
18785TIP3    H277847   1.194   3.271  12.683  1.4432  0.5144  0.8016
18786TIP3   OH277848   5.670   2.482   0.028  0.7316  0.0241  0.2104
18786TIP3    H177849   5.731   2.408   0.022  1.2678  0.5669 -1.9998
18786TIP3    H277850   5.615   2.474  -0.050 -2.0043 -0.3445  2.0453
18787TIP3   OH277851   5.595   6.525   0.182 -0.1469 -0.3913  0.4309
18787TIP3    H177852   5.608   6.457   0.248 -1.8289  0.6153  1.9292
18787TIP3    H277853   5.683   6.554   0.159  0.5763 -2.6040  0.2082
18788TIP3   OH277854   5.175   5.751   2.895  0.4267 -0.0872  0.3356
18788TIP3    H177855   5.171   5.816   2.825  1.3950 -0.5834 -0.1906
18788TIP3    H277856   5.260   5.765   2.936  0.5890 -0.9359  0.3052
18789TIP3   OH277857   4.350   1.826   5.376  0.0285  0.5524 -0.2487
18789TIP3    H177858   4.261   1.860   5.375 -0.5796 -0.9146  0.6280
18789TIP3    H277859   4.344   1.746   5.427  1.5908 -0.2982 -1.3211
18790TIP3   OH277860   1.872   1.918   4.520  0.0918  0.1217 -0.1479
18790TIP3    H177861   1.936   1.904   4.590  1.3739  2.9197 -0.6258
18790TIP3    H277862   1.809   1.981   4.557 -0.2356  0.2631 -0.9129
18791TIP3   OH277863   0.908   3.647  14.219 -0.0627 -0.0828  0.2076
18791TIP3    H177864   0.956   3.644  14.302 -1.7860  1.2687  1.3279
18791TIP3    H277865   0.846   3.575  14.224  0.0861 -0.2276 -0.0616
18792TIP3   OH277866   1.168   5.490  13.635  0.0674 -0.3707  0.5291
18792TIP3    H177867   1.083   5.487  13.679 -0.7394 -2.0429 -1.0427
18792TIP3    H277868   1.222   5.427  13.682 -0.3269 -1.0540  0.0835
18793TIP3   OH277869   4.118   5.049   1.515  0.0174  0.0714  0.3965
18793TIP3    H177870   4.211   5.045   1.540  0.8184 -0.4754 -2.3028
18793TIP3    H277871   4.113   5.124   1.456 -1.3576  0.2654  0.7228
18794TIP3   OH277872   2.297   5.547   6.615 -0.0210  0.1440 -0.2456
18794TIP3    H177873   2.210   5.554   6.577 -0.8860  0.8831  1.7098
18794TIP3    H277874   2.298   5.461   6.657 -0.8893  1.1645  2.0403
18795TIP3   OH277875   2.977   2.195   4.946  0.3882  0.6116 -0.3734
18795TIP3    H177876   2.968   2.113   4.898 -1.6532 -0.4208  1.5501
18795TIP3    H277877   2.919   2.256   4.900 -1.4067 -0.3152  0.5296
18796TIP3   OH277878   5.919   3.736  13.792  0.0358  0.2965  0.3157
18796TIP3    H177879   5.939   3.829  13.787  0.0727  0.2468 -0.7024
18796TIP3    H277880   5.835   3.732  13.839 -0.2330  0.8872 -0.1001
18797TIP3   OH277881   3.996   6.201   3.873  0.2044  0.2063 -0.6024
18797TIP3    H177882   3.962   6.239   3.954  0.5251  1.6554 -1.1146
18797TIP3    H277883   3.929   6.138   3.845  0.0309 -0.2195  0.6939
18798TIP3   OH277884   2.629   0.675  13.409  0.1450 -0.0109 -0.1448
18798TIP3    H177885   2.548   0.648  13.453  0.1424 -1.0504 -0.7708
18798TIP3    H277886   2.635   0.769  13.427 -0.9256 -0.0197  0.3461
18799TIP3   OH277887   4.233   5.267  12.580  0.1620 -0.3516  0.2379
18799TIP3    H177888   4.213   5.245  12.489  1.0464 -2.8893  0.5840
18799TIP3    H277889   4.293   5.199  12.608  0.6547  0.9238  2.4654
18800TIP3   OH277890   4.710   2.514  12.678 -0.0994 -0.5074 -0.8236
18800TIP3    H177891   4.787   2.524  12.733 -0.2767 -0.4660 -0.5807
18800TIP3    H277892   4.692   2.602  12.645 -0.8601 -0.2371  0.2348
18801TIP3   OH277893   5.673   1.900   2.264 -0.1731  0.6419 -0.4681
18801TIP3    H177894   5.580   1.903   2.242 -0.8806  0.4171  2.1625
18801TIP3    H277895   5.708   1.831   2.208 -2.0275 -0.6205 -0.1953
18802TIP3   OH277896   6.835   1.561  15.999 -0.0875  0.4576  1.2291
18802TIP3    H177897   6.903   1.625  15.980 -1.0640  1.0732 -0.4606
18802TIP3    H277898   6.819   1.517  15.915 -1.1839 -0.2327  1.7726
18803TIP3   OH277899   6.820   6.546   4.365 -0.0473 -0.4735 -0.1320
18803TIP3    H177900   6.847   6.578   4.280  0.2834 -0.0509  0.1306
18803TIP3    H277901   6.886   6.480   4.388 -1.4497 -2.3965 -1.2736
18804TIP3   OH277902   6.644   6.163  16.508 -0.0300  0.3100 -0.0504
18804TIP3    H177903   6.635   6.205  16.594  1.1842  1.7209 -0.5600
18804TIP3    H277904   6.708   6.093  16.521  0.0195  0.4080  0.2267
18805TIP3   OH277905   0.823   4.086   3.371 -0.3979 -0.3078 -0.1431
18805TIP3    H177906   0.859   4.070   3.458 -3.3123  0.5941  1.3514
18805TIP3    H277907   0.899   4.078   3.312  1.4985 -1.9676  2.2933
18806TIP3   OH277908   0.248   3.847   3.719 -0.6993  0.2469  0.4918
18806TIP3    H177909   0.305   3.923   3.729 -1.1295  0.3153  3.1067
18806TIP3    H277910   0.180   3.875   3.658  0.2423  1.2365 -0.1422
18807TIP3   OH277911   1.997   3.221   3.049  0.3796  0.5574 -0.1439
18807TIP3    H177912   1.989   3.130   3.078 -0.9531  1.0145  1.0218
18807TIP3    H277913   2.036   3.267   3.124  0.5704  1.0395 -0.5303
18808TIP3   OH277914   1.931   5.305   0.491 -0.0867  0.2328  0.2048
18808TIP3    H177915   1.982   5.385   0.477 -0.1908  0.1711 -0.5673
18808TIP3    H277916   1.846   5.336   0.523  0.1528  0.3761  0.7281
18809TIP3   OH277917   4.221   1.839   5.695 -0.2370  0.1866 -0.0314
18809TIP3    H177918   4.270   1.781   5.636 -0.3701 -0.6787  0.6858
18809TIP3    H277919   4.222   1.793   5.779  0.7382  1.8250  0.8928
18810TIP3   OH277920   6.361   4.744  12.941 -0.1059 -0.4426 -0.0878
18810TIP3    H177921   6.380   4.795  12.862  0.7610 -0.1603  0.2861
18810TIP3    H277922   6.380   4.804  13.013 -1.0896 -0.6310  0.3450
18811TIP3   OH277923   6.234   2.411   2.489 -0.0906 -0.1662 -0.0875
18811TIP3    H177924   6.188   2.332   2.459 -1.4969  0.2664  0.8383
18811TIP3    H277925   6.190   2.483   2.445  1.6876  0.1078 -1.5268
18812TIP3   OH277926   6.015   5.691  12.331 -0.5020 -0.1224 -0.2580
18812TIP3    H177927   5.920   5.688  12.319 -0.6292  0.1027  0.5845
18812TIP3    H277928   6.036   5.612  12.381 -0.2936 -0.0036 -0.1550
18813TIP3   OH277929   3.907   3.237  16.288  0.0316 -0.0232  0.4471
18813TIP3    H177930   3.882   3.176  16.357  0.0937 -1.2401 -0.5844
18813TIP3    H277931   3.919   3.183  16.211 -1.7811  1.4853 -1.0016
18814TIP3   OH277932   6.601   2.860   5.880 -0.6895 -0.2427  0.3505
18814TIP3    H177933   6.696   2.857   5.893 -0.6698  0.3095  0.3271
18814TIP3    H277934   6.565   2.884   5.966 -0.7748  0.0572  0.2316
18815TIP3   OH277935   0.146   1.272   4.169  0.1012  0.4353 -0.1606
18815TIP3    H177936   0.157   1.318   4.252 -1.6372  0.1025  0.3007
18815TIP3    H277937   0.099   1.334   4.113 -1.4870 -0.4083  0.1778
18816TIP3   OH277938   2.963   4.185   6.096  0.4165 -0.3791  0.3068
18816TIP3    H177939   2.928   4.109   6.143  0.4958 -0.7983 -0.2908
18816TIP3    H277940   3.055   4.188   6.120  0.0599  0.5412  1.6410
18817TIP3   OH277941   4.857   5.993  12.507  0.2788  0.3892 -0.3128
18817TIP3    H177942   4.899   5.935  12.443  2.4132  1.7301 -0.2264
18817TIP3    H277943   4.827   5.934  12.576  0.7497 -0.7903 -1.0811
18818TIP3   OH277944   3.879   5.269   4.575  0.2091 -0.1081 -0.2161
18818TIP3    H177945   3.943   5.204   4.545  0.8924 -0.0689  1.0953
18818TIP3    H277946   3.869   5.328   4.501  0.1807 -1.2445 -1.1551
18819TIP3   OH277947   0.636   5.088   0.101  0.0142  0.3039 -0.0586
18819TIP3    H177948   0.573   5.048   0.161 -0.7214  0.9216 -0.4009
18819TIP3    H277949   0.721   5.056   0.132 -0.4928 -1.0973 -0.0061
18820TIP3   OH277950   4.344   4.427  11.791 -0.0657  0.0795  0.0660
18820TIP3    H177951   4.426   4.454  11.830  0.6598 -1.6160 -0.1728
18820TIP3    H277952   4.351   4.453  11.699 -0.0083  0.3868  0.1597
18821TIP3   OH277953   3.892   3.137   6.042  0.1996 -0.2919 -0.0400
18821TIP3    H177954   3.861   3.049   6.023  1.1560 -0.6330 -0.0727
18821TIP3    H277955   3.855   3.158   6.128 -1.5400  0.0133 -0.8352
18822TIP3   OH277956   5.144   3.932  13.797 -0.8762 -0.0900 -0.7178
18822TIP3    H177957   5.170   3.976  13.878 -1.9420 -0.8882  0.0952
18822TIP3    H277958   5.220   3.938  13.740 -0.3388  1.0740  0.0996
18823TIP3   OH277959   6.314   3.105   2.160 -0.1119 -0.1933 -0.1055
18823TIP3    H177960   6.386   3.087   2.100 -1.6665 -2.8175 -1.3804
18823TIP3    H277961   6.343   3.070   2.244  0.1084 -1.3334 -0.6337
18824TIP3   OH277962   4.164   3.454   4.661  0.1055  0.0637  0.2164
18824TIP3    H177963   4.252   3.491   4.661 -0.0126  0.3613 -0.1074
18824TIP3    H277964   4.109   3.522   4.701  0.2075 -0.6108  1.5278
18825TIP3   OH277965   0.014   3.950   4.627 -0.1339  0.3862  0.3467
18825TIP3    H177966   0.008   3.927   4.534  0.5731  0.9185  0.1650
18825TIP3    H277967  -0.074   3.980   4.649 -0.2077  0.6320 -0.2512
18826TIP3   OH277968   5.842   3.579  15.918 -0.1228  0.1137 -0.1715
18826TIP3    H177969   5.750   3.570  15.891  0.2635  0.4525 -1.6972
18826TIP3    H277970   5.885   3.502  15.881  0.2166 -0.0842  0.6045
18827TIP3   OH277971   5.992   3.401  12.127 -0.3069  0.0437  0.6934
18827TIP3    H177972   6.085   3.427  12.126 -0.1399 -0.5002  1.2237
18827TIP3    H277973   5.953   3.456  12.195 -1.4632  3.7095 -2.5705
18828TIP3   OH277974   1.195   2.477   3.583 -0.1835 -0.3034 -0.1452
18828TIP3    H177975   1.243   2.560   3.587 -0.0123 -0.4314  0.8181
18828TIP3    H277976   1.253   2.415   3.627 -0.4001 -0.8865 -0.6822
18829TIP3   OH277977   0.414   4.150  12.367 -0.0108 -0.4082 -0.0407
18829TIP3    H177978   0.444   4.212  12.433  0.4585 -0.0695 -0.5639
18829TIP3    H277979   0.338   4.107  12.407  0.4789 -0.4639  0.8515
18830TIP3   OH277980   0.936   6.465  16.132  0.0888 -0.1766  0.1964
18830TIP3    H177981   0.860   6.515  16.101 -0.9406 -1.2934  0.8158
18830TIP3    H277982   0.996   6.531  16.167 -0.7325  0.7168 -0.0434
18831TIP3   OH277983   1.523   1.154   2.746 -0.0141  0.1692 -0.4474
18831TIP3    H177984   1.488   1.230   2.700  0.5301  0.5472 -0.2457
18831TIP3    H277985   1.614   1.148   2.718 -0.0842 -0.4782 -0.5461
18832TIP3   OH277986   4.663   0.057  10.475 -0.3534  0.3319  0.0618
18832TIP3    H177987   4.718  -0.017  10.502  3.1592  2.2382 -1.1757
18832TIP3    H277988   4.631   0.032  10.388  2.4192  0.8740 -1.2235
18833TIP3   OH277989   2.760   2.599   4.407 -0.1697 -0.5154  0.2084
18833TIP3    H177990   2.844   2.552   4.405  1.1391  1.7002 -0.8748
18833TIP3    H277991   2.710   2.562   4.335  1.0488  0.0146 -0.9695
18834TIP3   OH277992   4.837   1.956   3.695  0.3968 -0.0918 -0.0552
18834TIP3    H177993   4.804   1.965   3.606  0.3969  0.9239  0.0370
18834TIP3    H277994   4.763   1.982   3.751  0.6298 -0.0162  0.2199
18835TIP3   OH277995   3.179   2.723  12.834  0.5213 -0.0616 -0.4272
18835TIP3    H177996   3.089   2.756  12.835  0.7259  0.6525 -1.9476
18835TIP3    H277997   3.173   2.632  12.862 -0.5072  0.3275  0.6553
18836TIP3   OH277998   3.656   0.436  17.121  0.3902 -0.1573  0.7673
18836TIP3    H177999   3.615   0.384  17.052 -0.6593  1.5062  0.0612
18836TIP3    H278000   3.600   0.514  17.128  0.7737 -0.0301  3.1377
18837TIP3   OH278001   0.505   5.086  11.255  0.1209 -0.1683 -0.1136
18837TIP3    H178002   0.467   5.012  11.207  0.7174 -1.6108  1.5456
18837TIP3    H278003   0.450   5.160  11.230 -1.4122 -1.4355 -0.7207
18838TIP3   OH278004   0.613   4.188   4.251 -0.4299 -0.3280  0.6328
18838TIP3    H178005   0.593   4.110   4.304 -0.2659 -0.1141  1.0078
18838TIP3    H278006   0.549   4.253   4.280 -2.1526 -1.0167 -1.3168
18839TIP3   OH278007   1.476   3.913   1.738  0.9140  0.0119 -0.2156
18839TIP3    H178008   1.565   3.921   1.703  1.7297 -0.9013  1.4984
18839TIP3    H278009   1.489   3.878   1.827 -1.1501  0.1193  0.1658
18840TIP3   OH278010   0.756   4.129  14.233 -0.2119 -0.1383  0.2253
18840TIP3    H178011   0.769   4.037  14.210 -0.4566  0.1895 -1.3218
18840TIP3    H278012   0.689   4.160  14.171 -1.0158  0.7768  1.5018
18841TIP3   OH278013   1.895   6.821   3.725  0.0076 -0.3514 -0.2950
18841TIP3    H178014   1.968   6.768   3.758 -0.4747 -0.2607  0.9701
18841TIP3    H278015   1.819   6.793   3.777 -0.4861  0.8040 -0.3511
18842TIP3   OH278016   4.992   4.568   2.667 -0.9717 -0.4475 -0.6208
18842TIP3    H178017   4.960   4.599   2.583 -1.9781 -1.7839 -0.7742
18842TIP3    H278018   5.050   4.495   2.645  1.7368  1.4481 -0.3021
18843TIP3   OH278019   2.668   5.607  13.524 -0.4002  0.0595 -0.0084
18843TIP3    H178020   2.594   5.640  13.473 -0.1305  0.6288 -0.0370
18843TIP3    H278021   2.653   5.512  13.529 -0.4473 -0.0102 -1.1243
18844TIP3   OH278022   4.909   4.473   4.098 -0.2883 -0.4636  0.2612
18844TIP3    H178023   4.898   4.525   4.018  0.1412  1.6795  1.5235
18844TIP3    H278024   4.996   4.434   4.090 -0.8719 -1.5729 -0.9940
18845TIP3   OH278025   4.978   0.140  14.314  0.0236  0.1434 -0.2943
18845TIP3    H178026   4.926   0.195  14.255 -2.4465 -1.0865  0.6084
18845TIP3    H278027   5.034   0.201  14.360 -0.5361  1.5497 -1.4049
18846TIP3   OH278028   4.091   1.940   5.358  0.5186 -0.2528  0.5358
18846TIP3    H178029   4.009   1.916   5.400  0.3185  0.1394  0.3773
18846TIP3    H278030   4.102   2.033   5.377  0.0308  0.1344 -0.9106
18847TIP3   OH278031   1.612   0.888   4.189  0.5909 -0.4377 -0.2539
18847TIP3    H178032   1.598   0.917   4.279  0.6038 -1.6401  0.1668
18847TIP3    H278033   1.548   0.818   4.176 -0.7252  0.9757 -1.8529
18848TIP3   OH278034   2.074   1.240   2.304  0.1277  0.4051  0.1827
18848TIP3    H178035   2.102   1.160   2.260 -1.2334  0.6584 -1.2140
18848TIP3    H278036   2.005   1.211   2.363  0.3403  0.4121  0.4374
18849TIP3   OH278037   3.757   5.200   5.607  0.2505  0.5973 -0.4116
18849TIP3    H178038   3.778   5.195   5.514  0.4478 -0.4514 -0.3238
18849TIP3    H278039   3.788   5.117   5.643 -0.4032  0.7206  0.4703
18850TIP3   OH278040   2.826   6.387  12.988  0.6895 -0.3636  0.0885
18850TIP3    H178041   2.816   6.482  12.986 -0.1122 -0.4390 -1.4789
18850TIP3    H278042   2.827   6.361  12.896 -0.7212 -2.0250  0.4784
18851TIP3   OH278043   1.877   5.894  15.844  0.3436 -0.3497 -0.3982
18851TIP3    H178044   1.907   5.810  15.808 -0.5193 -0.6690 -0.4016
18851TIP3    H278045   1.783   5.882  15.856  0.2382  0.5713 -0.2537
18852TIP3   OH278046   0.210   0.898  10.575  0.7213  0.3545  0.2440
18852TIP3    H178047   0.173   0.942  10.499  0.1222 -1.4501 -0.5637
18852TIP3    H278048   0.303   0.889  10.554  0.4540 -0.6962 -0.6105
18853TIP3   OH278049   0.973   2.949   4.238 -0.0353 -0.2131 -0.1115
18853TIP3    H178050   1.025   2.890   4.183 -3.6519 -1.3664 -2.5991
18853TIP3    H278051   0.989   2.919   4.327  4.2862  0.2699 -0.5009
18854TIP3   OH278052   3.937   0.130  15.916  0.2484  0.3359 -0.1066
18854TIP3    H178053   3.945   0.060  15.852 -0.0835  1.2657 -1.1984
18854TIP3    H278054   3.996   0.198  15.885 -1.8176  1.8676 -0.9157
18855TIP3   OH278055   2.846   0.507  10.865  0.0966  0.1735  0.4634
18855TIP3    H178056   2.765   0.457  10.869  0.1790 -0.0547 -0.6365
18855TIP3    H278057   2.847   0.547  10.778  0.3498  1.5712  1.0717
18856TIP3   OH278058   3.132   2.954   3.716 -0.5328  0.2370 -0.2444
18856TIP3    H178059   3.194   3.003   3.770 -0.2431  2.0142 -2.0682
18856TIP3    H278060   3.178   2.873   3.694 -0.2888 -0.0831  1.3352
18857TIP3   OH278061   4.988   6.435   4.811 -0.2714 -0.6124 -0.5234
18857TIP3    H178062   4.990   6.520   4.767 -1.4254  0.3115  1.0844
18857TIP3    H278063   5.033   6.376   4.751 -0.8028  0.7889 -2.3994
18858TIP3   OH278064   0.571   3.760   0.670 -0.0198  0.4728  0.2642
18858TIP3    H178065   0.614   3.683   0.708 -2.7738 -1.1232  0.4166
18858TIP3    H278066   0.545   3.812   0.746 -1.1784 -0.2331  0.3770
18859TIP3   OH278067   3.361   1.814   4.018  0.0817  0.6039  0.2704
18859TIP3    H178068   3.400   1.870   3.951 -0.7597  1.7921  0.7532
18859TIP3    H278069   3.284   1.862   4.049  0.2120 -0.1024  1.7991
18860TIP3   OH278070   4.728   0.763  10.828  0.2420 -0.3804 -0.6439
18860TIP3    H178071   4.651   0.707  10.841  0.7099 -0.6414  1.5265
18860TIP3    H278072   4.790   0.709  10.779 -0.7766 -0.3067 -2.0629
18861TIP3   OH278073   5.872   2.947   5.245  0.0904 -0.5305  0.1278
18861TIP3    H178074   5.916   2.883   5.300  0.7917 -1.4892 -1.4661
18861TIP3    H278075   5.940   2.977   5.184 -0.6370  0.5121 -0.2113
18862TIP3   OH278076   0.772   6.766  14.186  0.2214 -0.0260 -0.0938
18862TIP3    H178077   0.701   6.813  14.230 -0.4302  0.1859 -1.3155
18862TIP3    H278078   0.764   6.792  14.094  1.1375 -0.9389 -0.4472
18863TIP3   OH278079   0.460   4.593   3.646  0.0093 -0.2856 -0.2949
18863TIP3    H178080   0.415   4.580   3.730 -1.0675 -1.0188 -0.9503
18863TIP3    H278081   0.528   4.657   3.665 -0.6868  0.1269  0.9718
18864TIP3   OH278082   6.839   1.619   6.416 -0.1079  0.7130 -0.3366
18864TIP3    H178083   6.748   1.600   6.393 -0.3213  1.8044 -0.4290
18864TIP3    H278084   6.870   1.538   6.457 -1.9055  1.1555  2.0890
18865TIP3   OH278085   6.663   3.808  13.594 -0.9192  0.9105  0.0084
18865TIP3    H178086   6.732   3.865  13.628 -0.8115  0.8085 -0.0394
18865TIP3    H278087   6.670   3.728  13.646 -0.7194  0.7341 -0.2870
18866TIP3   OH278088   5.237   2.057  10.589 -0.1271 -0.4146 -0.2616
18866TIP3    H178089   5.296   2.132  10.580 -0.2916 -0.1749  0.5605
18866TIP3    H278090   5.150   2.094  10.581 -0.2037 -0.5404 -0.0282
18867TIP3   OH278091   4.564   4.919  14.619 -0.0823  0.1799  0.2685
18867TIP3    H178092   4.618   4.964  14.685 -0.4612  0.4225  0.4169
18867TIP3    H278093   4.480   4.905  14.663 -0.2397  0.0823 -0.0657
18868TIP3   OH278094   0.016   1.182   2.241 -0.7169 -0.4364 -0.7698
18868TIP3    H178095   0.042   1.217   2.156 -1.3425 -1.3131 -1.3357
18868TIP3    H278096   0.035   1.089   2.236  0.0013 -0.3664  0.3610
18869TIP3   OH278097   1.772   4.718  10.927  0.2469 -0.4253 -0.2380
18869TIP3    H178098   1.744   4.808  10.908  0.3539 -0.8906 -3.1418
18869TIP3    H278099   1.866   4.726  10.946 -0.3279  0.3573  2.7850
18870TIP3   OH278100   6.652   6.744  15.896 -0.1442  0.6290  0.0811
18870TIP3    H178101   6.683   6.809  15.834  0.7281 -0.0857 -0.2591
18870TIP3    H278102   6.665   6.660  15.851  1.3069  0.0295  1.5105
18871TIP3   OH278103   2.611   1.958  16.846  0.4429  0.2662 -0.1076
18871TIP3    H178104   2.582   1.897  16.779 -1.1945  0.2335  0.5801
18871TIP3    H278105   2.646   2.033  16.798  2.1889 -1.0355 -0.9588
18872TIP3   OH278106   0.115   0.127   2.882 -0.3367 -0.1343  0.5335
18872TIP3    H178107   0.181   0.179   2.927 -0.7538 -0.0541  1.0611
18872TIP3    H278108   0.146   0.037   2.889  0.1275 -0.0177  0.0634
18873TIP3   OH278109   3.820   1.025   4.179  0.0594  0.1856  0.0406
18873TIP3    H178110   3.911   1.008   4.155  0.1477  0.5247  0.1388
18873TIP3    H278111   3.823   1.045   4.273  0.2384  2.8131 -0.4499
18874TIP3   OH278112   5.215   5.488  12.044 -0.0790 -0.0736 -0.0465
18874TIP3    H178113   5.216   5.408  12.096 -1.0498 -0.2924 -0.3524
18874TIP3    H278114   5.306   5.517  12.043 -0.0683  0.1712  2.1253
18875TIP3   OH278115   6.414   3.888  10.968  0.3620 -0.0710  0.1708
18875TIP3    H178116   6.377   3.805  10.999  1.0523 -0.3462  0.2753
18875TIP3    H278117   6.372   3.955  11.023 -0.4717 -0.3162 -0.1642
18876TIP3   OH278118   3.652   2.501  14.951 -0.7938 -0.4895  0.4152
18876TIP3    H178119   3.674   2.590  14.925 -0.5535 -0.5931  0.2620
18876TIP3    H278120   3.657   2.450  14.870 -0.4559 -0.7339  0.5889
18877TIP3   OH278121   4.894   2.614   0.071 -0.0049  0.0612  0.4716
18877TIP3    H178122   4.970   2.587   0.020 -0.3746 -2.6685  1.2376
18877TIP3    H278123   4.907   2.575   0.158 -1.2719  1.3282  1.2956
18878TIP3   OH278124   0.583   3.661   2.549 -0.2189 -0.4120  0.4036
18878TIP3    H178125   0.514   3.605   2.514  1.6265 -1.5019 -1.7052
18878TIP3    H278126   0.589   3.733   2.487  2.2855 -1.7457 -1.0694
18879TIP3   OH278127   4.629   5.952  10.904  0.2137  0.4367  0.1497
18879TIP3    H178128   4.717   5.930  10.876  0.2756 -2.4504  2.1599
18879TIP3    H278129   4.636   5.968  10.998 -1.0681  2.6773 -0.0569
18880TIP3   OH278130   5.863   2.093  15.235  0.4105 -0.2424  0.5823
18880TIP3    H178131   5.838   2.079  15.143  0.4606 -0.7920  0.6496
18880TIP3    H278132   5.850   2.187  15.249 -0.1310 -0.2469  0.1706
18881TIP3   OH278133   6.595   3.962  16.547  0.3806  0.4755 -0.6784
18881TIP3    H178134   6.615   3.915  16.466 -0.4310 -0.4147 -0.3862
18881TIP3    H278135   6.499   3.959  16.553  0.4558  0.0621  0.5786
18882TIP3   OH278136   6.512   0.430   5.180  0.0220 -0.6603 -0.0636
18882TIP3    H178137   6.436   0.424   5.237  0.2884  0.8744  0.5130
18882TIP3    H278138   6.533   0.524   5.178  1.5023 -0.9717 -0.7203
18883TIP3   OH278139   5.256   4.377   1.240 -0.4937  0.4682  0.0333
18883TIP3    H178140   5.303   4.434   1.301  0.9714 -0.5615 -0.0723
18883TIP3    H278141   5.304   4.294   1.244 -0.5817  0.2555 -2.2211
18884TIP3   OH278142   4.878   0.721  14.529  0.3250  0.2152  0.3963
18884TIP3    H178143   4.921   0.718  14.443 -0.5370 -3.4768 -0.0587
18884TIP3    H278144   4.796   0.768  14.513  0.4821  0.1639 -0.6657
18885TIP3   OH278145   2.891   4.231   3.634 -0.1146  0.1334 -0.2826
18885TIP3    H178146   2.833   4.155   3.642 -0.0821  0.3024  2.3185
18885TIP3    H278147   2.833   4.307   3.643  0.1649  0.3646 -0.4239
18886TIP3   OH278148   4.395   1.852  11.048  0.0761  0.4546  0.1098
18886TIP3    H178149   4.410   1.892  11.134  0.3599 -1.6439  1.1053
18886TIP3    H278150   4.305   1.820  11.052 -0.2396  1.1874 -0.7760
18887TIP3   OH278151   4.159   0.449   2.876 -0.0826  0.5019  0.3521
18887TIP3    H178152   4.105   0.371   2.892 -0.8749  0.8163 -0.6695
18887TIP3    H278153   4.107   0.521   2.911  0.3245  0.6540  0.6454
18888TIP3   OH278154   1.063   5.698   4.303 -0.0402 -0.2767 -0.2228
18888TIP3    H178155   1.099   5.619   4.262  0.3790  0.5223 -1.4509
18888TIP3    H278156   0.971   5.678   4.318 -0.0083 -0.8886 -0.8054
18889TIP3   OH278157   4.337   5.073  10.497 -0.1940  0.2398  0.4070
18889TIP3    H178158   4.432   5.082  10.500 -0.0632 -1.1364  1.3021
18889TIP3    H278159   4.319   5.024  10.417  0.1913 -2.4970  1.8822
18890TIP3   OH278160   5.274   4.261   2.336 -0.3068  0.1516  0.0344
18890TIP3    H178161   5.238   4.174   2.321 -0.6333  0.1135  0.9528
18890TIP3    H278162   5.361   4.244   2.373 -0.4743  0.2037  0.4606
18891TIP3   OH278163   0.410   2.576  12.047  0.3457 -0.2258 -0.8135
18891TIP3    H178164   0.495   2.619  12.037 -0.1352  0.8211 -0.5852
18891TIP3    H278165   0.349   2.633  12.000 -0.2560 -0.8697 -0.8214
18892TIP3   OH278166   5.031   1.613   4.160  0.0722  0.0300  0.3175
18892TIP3    H178167   5.090   1.615   4.236 -1.4364 -0.1991  1.5543
18892TIP3    H278168   4.984   1.530   4.168 -1.8679  1.0910  0.5709
18893TIP3   OH278169   3.583   2.384   4.684 -0.1753 -0.4046 -0.1512
18893TIP3    H178170   3.502   2.343   4.714 -0.3953  1.0057  1.3698
18893TIP3    H278171   3.639   2.383   4.761  0.2629  0.9698 -0.4341
18894TIP3   OH278172   0.874   6.002  14.439 -0.0540  0.0712  0.2107
18894TIP3    H178173   0.876   5.917  14.484 -2.6272  0.5230  1.3642
18894TIP3    H278174   0.965   6.034  14.445  1.3316 -3.1256 -1.5078
18895TIP3   OH278175   0.436   4.138   0.056 -0.0469  0.1897  0.2051
18895TIP3    H178176   0.454   4.118   0.147 -1.1982 -0.3494  0.3328
18895TIP3    H278177   0.486   4.217   0.038 -0.1579  0.5482  1.4290
18896TIP3   OH278178   3.815   3.642   2.034 -0.7914  0.0897  0.3793
18896TIP3    H178179   3.841   3.553   2.012 -1.0923 -0.1320  0.9055
18896TIP3    H278180   3.802   3.685   1.949 -1.0232 -0.4739  0.1251
18897TIP3   OH278181   2.939   1.350   2.323  0.0485 -0.2654 -0.0383
18897TIP3    H178182   2.900   1.267   2.295 -1.4141  0.0504  0.9381
18897TIP3    H278183   2.915   1.358   2.415 -0.1679  1.4123 -0.2071
18898TIP3   OH278184   4.042   5.853  13.651  0.0110 -0.6164  0.4608
18898TIP3    H178185   4.062   5.913  13.579 -0.9146  1.8242  2.1098
18898TIP3    H278186   4.125   5.843  13.697 -0.0639  0.3728  0.8328
18899TIP3   OH278187   0.216   1.960  15.578 -0.0565 -0.0618 -0.3213
18899TIP3    H178188   0.298   1.912  15.588 -0.8823 -1.4537  0.0439
18899TIP3    H278189   0.242   2.044  15.539  1.6664  0.0376  0.9101
18900TIP3   OH278190   1.589   3.920  12.665 -0.0406  0.4943  0.7091
18900TIP3    H178191   1.620   3.850  12.721 -0.1213  1.2061  1.6641
18900TIP3    H278192   1.511   3.954  12.709 -1.2176 -0.1571 -0.7876
18901TIP3   OH278193   5.558   5.578   0.467  0.0453  0.5975 -0.3716
18901TIP3    H178194   5.649   5.551   0.456  0.3329  1.0330  0.7363
18901TIP3    H278195   5.563   5.661   0.515 -0.9528 -1.1460  3.1447
18902TIP3   OH278196   5.250   4.385   6.396  0.1312 -0.1013 -0.0415
18902TIP3    H178197   5.338   4.400   6.430  0.3965  0.0681 -0.7772
18902TIP3    H278198   5.203   4.466   6.413  0.4721  0.2437 -0.6959
18903TIP3   OH278199   5.285   1.280   3.538 -0.0152 -0.7952  0.0330
18903TIP3    H178200   5.239   1.359   3.507  1.8359  0.7190  0.9296
18903TIP3    H278201   5.329   1.246   3.460  0.6168  0.1190 -0.0245
18904TIP3   OH278202   3.884   1.699   5.371 -0.3661  0.0574 -0.8163
18904TIP3    H178203   3.904   1.703   5.465 -2.1374  0.9557 -0.4348
18904TIP3    H278204   3.916   1.613   5.343  3.1374  0.9865 -0.1641
18905TIP3   OH278205   1.119   4.023  14.446  0.0008 -0.0693 -0.3456
18905TIP3    H178206   1.166   3.973  14.513 -0.0600 -1.4977 -1.3193
18905TIP3    H278207   1.117   3.965  14.370 -0.1082  1.4341 -1.5283
18906TIP3   OH278208   1.999   3.739   0.447 -0.1909 -0.6271  0.0864
18906TIP3    H178209   2.042   3.664   0.489 -0.4394 -1.0346 -0.3811
18906TIP3    H278210   2.065   3.773   0.386 -0.0058 -0.3386  0.4458
18907TIP3   OH278211   6.437   5.115   0.841  0.3115  0.3977  0.5089
18907TIP3    H178212   6.349   5.110   0.878  0.0659 -0.2135 -0.1380
18907TIP3    H278213   6.476   5.192   0.883 -0.5225  0.6772  0.7990
18908TIP3   OH278214   3.581   2.088   3.208 -0.0671  0.5926  0.2152
18908TIP3    H178215   3.522   2.129   3.270  2.4805  0.9333  2.6352
18908TIP3    H278216   3.625   2.161   3.164  1.1701  0.4931  1.2016
18909TIP3   OH278217   5.765   4.157   4.496  0.2033 -0.3881 -0.1686
18909TIP3    H178218   5.784   4.071   4.532  2.5405 -0.2982 -1.0312
18909TIP3    H278219   5.809   4.159   4.412 -0.9171  1.1998 -0.7812
18910TIP3   OH278220   4.207   4.581   0.078  0.0606 -0.2132  0.2397
18910TIP3    H178221   4.278   4.531   0.118  0.7446  1.2727  0.9460
18910TIP3    H278222   4.152   4.608   0.152  0.0065  0.5439 -0.0686
18911TIP3   OH278223   5.421   2.529   2.383  0.4385  0.3119  0.5662
18911TIP3    H178224   5.486   2.475   2.337 -1.3081 -2.2788  0.9095
18911TIP3    H278225   5.461   2.547   2.469  1.6882  0.9367 -0.1237
18912TIP3   OH278226   0.353   1.705  14.593 -0.0094 -0.4635  0.0234
18912TIP3    H178227   0.316   1.690  14.506  1.7436  0.1520 -0.8763
18912TIP3    H278228   0.442   1.735  14.576  0.1792  0.2511  2.0259
18913TIP3   OH278229   3.704   2.343  16.224  0.1112 -0.3729 -0.0206
18913TIP3    H178230   3.730   2.340  16.316  3.2280 -1.6632 -0.7976
18913TIP3    H278231   3.670   2.255  16.205 -0.2121 -0.2130 -0.1946
18914TIP3   OH278232   3.822   2.594  12.752 -0.1078  0.0339  0.1480
18914TIP3    H178233   3.758   2.661  12.729  0.3441  0.6012  0.5302
18914TIP3    H278234   3.797   2.518  12.698 -0.9417  0.3241  0.1112
18915TIP3   OH278235   0.015   1.725   2.301 -0.0769 -0.5365 -0.2276
18915TIP3    H178236   0.080   1.684   2.245  2.0426  1.7791  0.3445
18915TIP3    H278237  -0.048   1.764   2.240  0.2976 -0.9227 -0.8750
18916TIP3   OH278238   5.009   3.813  14.499  0.2080 -0.7619  0.2170
18916TIP3    H178239   5.092   3.773  14.524 -0.2410 -0.2552  2.7615
18916TIP3    H278240   5.025   3.907  14.503  0.0352 -0.6247 -1.3828
18917TIP3   OH278241   2.129   3.258  14.624 -0.4851  0.5747  0.0092
18917TIP3    H178242   2.214   3.303  14.621 -0.3729  0.3550 -0.1724
18917TIP3    H278243   2.065   3.329  14.630 -0.2865  0.7421  0.1787
18918TIP3   OH278244   2.898   0.321  13.585 -0.4302  0.2023 -0.3040
18918TIP3    H178245   2.860   0.388  13.643 -1.0145  0.0570 -0.5153
18918TIP3    H278246   2.839   0.319  13.510 -0.5438 -0.7099 -0.1980
18919TIP3   OH278247   5.105   6.494   1.392  0.1591 -0.0185 -0.0553
18919TIP3    H178248   5.027   6.451   1.429  1.6166 -1.6149  1.3185
18919TIP3    H278249   5.089   6.494   1.298 -0.4198 -2.6566 -0.0388
18920TIP3   OH278250   4.838   3.799  16.356  0.2648  0.0369  0.3559
18920TIP3    H178251   4.858   3.852  16.433  1.6454  2.1550 -1.3476
18920TIP3    H278252   4.845   3.709  16.387 -0.2596  0.7997  2.9252
18921TIP3   OH278253   2.911   1.760   3.812 -0.3912  0.2830 -0.2606
18921TIP3    H178254   2.902   1.848   3.775 -1.6685 -1.0379 -3.4594
18921TIP3    H278255   2.838   1.752   3.873 -1.0819  1.0083 -0.9573
18922TIP3   OH278256   6.127   3.568  11.172  0.1110 -0.4834 -0.0368
18922TIP3    H178257   6.044   3.602  11.138  0.1094 -1.2513 -0.8455
18922TIP3    H278258   6.113   3.561  11.266 -0.0201  1.3498  0.1203
18923TIP3   OH278259   6.836   1.960   5.891 -0.8575  0.2154  0.0506
18923TIP3    H178260   6.896   1.966   5.816 -1.6611 -1.1040 -0.7458
18923TIP3    H278261   6.852   1.872   5.926 -0.9205  0.6039  1.0724
18924TIP3   OH278262   4.627   3.128   2.092  0.0606 -0.2082 -0.3653
18924TIP3    H178263   4.628   3.101   2.184  1.9759 -2.1896 -0.8741
18924TIP3    H278264   4.554   3.189   2.085  0.0392  0.2135  2.5186
18925TIP3   OH278265   0.014   1.729  13.702  0.0179  0.6632 -0.0866
18925TIP3    H178266  -0.046   1.685  13.642  0.0133  0.6989 -0.1084
18925TIP3    H278267   0.101   1.709  13.667  0.0241  0.5089  0.0170
18926TIP3   OH278268   0.524   0.532   4.027  0.2059  0.1134 -0.4635
18926TIP3    H178269   0.526   0.627   4.040 -0.2587 -0.0494  1.1304
18926TIP3    H278270   0.454   0.503   4.086  0.8625 -1.2939 -0.3545
18927TIP3   OH278271   4.718   1.448  14.666 -0.1832 -0.6376 -0.0115
18927TIP3    H178272   4.777   1.416  14.597 -1.1592  0.5545 -1.4769
18927TIP3    H278273   4.718   1.378  14.732 -0.5303 -2.6716 -2.0111
18928TIP3   OH278274   6.789   3.252   4.626  0.6396 -0.5480  0.0170
18928TIP3    H178275   6.883   3.260   4.641  0.6650 -0.1756 -0.3268
18928TIP3    H278276   6.754   3.339   4.649  0.3626 -0.7175  0.2542
18929TIP3   OH278277   5.470   2.608   4.781 -0.3894 -0.2225  0.4477
18929TIP3    H178278   5.512   2.524   4.799 -0.5006 -0.6282 -1.0629
18929TIP3    H278279   5.396   2.586   4.724 -0.2419  0.9133 -0.2133
18930TIP3   OH278280   1.248   6.715   4.757  0.2981  0.0568 -0.0113
18930TIP3    H178281   1.308   6.675   4.694  0.7299  0.4930  0.1200
18930TIP3    H278282   1.282   6.803   4.770 -1.0950  0.7629 -0.8978
18931TIP3   OH278283   0.516   3.657  13.225 -0.0510  0.0076 -0.1261
18931TIP3    H178284   0.461   3.593  13.181  0.7167 -1.9315  1.5440
18931TIP3    H278285   0.601   3.613  13.235  0.3113  1.0033  1.6728
18932TIP3   OH278286   3.107   2.199   3.248 -0.2415 -0.1103  0.6341
18932TIP3    H178287   3.081   2.114   3.284 -2.1945 -0.1171 -0.6285
18932TIP3    H278288   3.160   2.177   3.171 -1.3145 -0.2413 -0.0926
18933TIP3   OH278289   5.600   6.835  12.275 -0.0110 -0.1835 -0.2511
18933TIP3    H178290   5.548   6.765  12.235 -0.7420 -0.1139  0.5409
18933TIP3    H278291   5.546   6.914  12.265 -0.3698 -0.2299  1.1561
18934TIP3   OH278292   4.115   3.596   3.368 -0.0325  0.3023 -0.5216
18934TIP3    H178293   4.019   3.593   3.359 -0.0375 -3.1310 -0.5797
18934TIP3    H278294   4.129   3.621   3.459 -1.0842 -1.0711  0.0515
18935TIP3   OH278295   5.762   5.373  16.328  0.3144  0.0811  0.2768
18935TIP3    H178296   5.780   5.284  16.357  1.6590  0.5103  0.8145
18935TIP3    H278297   5.760   5.368  16.232  0.1589 -0.5538  0.3129
18936TIP3   OH278298   6.049   3.175   2.330  0.2440  0.3931 -0.2447
18936TIP3    H178299   6.135   3.191   2.293  1.1305 -0.7323  1.2470
18936TIP3    H278300   6.051   3.084   2.358 -2.2801 -0.4457 -2.3353
18937TIP3   OH278301   0.763   2.047  16.077 -0.4151  0.4118 -0.3709
18937TIP3    H178302   0.723   2.024  16.160  0.1165  0.2481 -0.1598
18937TIP3    H278303   0.794   2.137  16.089  0.8612 -0.0588  0.0786
18938TIP3   OH278304   4.870   1.537  15.164  0.5502 -0.1022  0.2925
18938TIP3    H178305   4.941   1.529  15.227  0.2602  2.1604  0.9721
18938TIP3    H278306   4.873   1.628  15.135 -1.9723  0.0330  0.2433
18939TIP3   OH278307   5.009   0.780   4.278 -0.2187  0.0884 -0.3172
18939TIP3    H178308   4.977   0.758   4.191 -0.2089  2.4143 -0.9729
18939TIP3    H278309   4.930   0.790   4.331 -0.4305  1.9720 -0.9433
18940TIP3   OH278310   3.208   3.545  12.388 -0.4714 -0.0819  0.4542
18940TIP3    H178311   3.242   3.542  12.298  2.1418  1.3756  1.2965
18940TIP3    H278312   3.146   3.618  12.388  0.5170  0.7815  0.1031
18941TIP3   OH278313   3.566   3.445  14.385  0.1438 -0.4747 -0.1804
18941TIP3    H178314   3.503   3.380  14.415  0.6692 -1.1674 -0.5664
18941TIP3    H278315   3.640   3.395  14.353  1.4060  0.3647  1.3359
18942TIP3   OH278316   3.021   5.624   0.644 -0.9893  0.3870 -0.2552
18942TIP3    H178317   3.099   5.636   0.589 -1.3467 -2.7021 -1.6401
18942TIP3    H278318   3.054   5.626   0.734  1.1769 -2.6162 -0.8159
18943TIP3   OH278319   0.607   1.410  12.073 -0.5407 -0.3605 -0.2399
18943TIP3    H178320   0.581   1.499  12.050 -1.0695  0.0873  1.9494
18943TIP3    H278321   0.668   1.420  12.146 -0.3141 -1.7767 -0.2028
18944TIP3   OH278322   3.625   1.276   1.137 -0.4872  0.1978 -0.5615
18944TIP3    H178323   3.583   1.197   1.102  0.0912  0.6080 -2.2867
18944TIP3    H278324   3.708   1.282   1.091 -0.8752  2.2591 -1.1113
18945TIP3   OH278325   3.800   6.702   2.020  0.2738  0.0239 -0.2719
18945TIP3    H178326   3.751   6.643   2.078 -1.3333  0.2701 -1.3009
18945TIP3    H278327   3.809   6.783   2.070  2.7399 -1.1083  1.2646
18946TIP3   OH278328   1.895   4.986  15.010  0.5084  0.0129 -0.4075
18946TIP3    H178329   1.875   5.015  15.099 -2.6287 -0.4686 -0.8414
18946TIP3    H278330   1.921   5.065  14.964  3.3034  0.1072  1.0874
18947TIP3   OH278331   3.786   4.222  12.015 -0.0115  0.4008  0.0182
18947TIP3    H178332   3.696   4.193  12.022  0.0359 -0.4605 -2.0710
18947TIP3    H278333   3.833   4.172  12.082 -0.4165 -2.4211 -1.6406
18948TIP3   OH278334   3.279   0.210  14.617 -0.2377 -0.0428  0.1221
18948TIP3    H178335   3.237   0.188  14.533 -2.2435  0.1431  1.0089
18948TIP3    H278336   3.313   0.126  14.649 -0.4255 -0.3157 -0.3793
18949TIP3   OH278337   0.073   4.361  11.814 -0.0330 -0.0224  0.6604
18949TIP3    H178338   0.134   4.434  11.824 -0.6823  0.6575 -0.1377
18949TIP3    H278339  -0.007   4.391  11.858 -0.0321 -0.6228  1.0913
18950TIP3   OH278340   1.932   5.096  16.183  0.4428 -0.0350  0.2386
18950TIP3    H178341   1.860   5.108  16.245  0.6564  1.2571  0.2621
18950TIP3    H278342   1.919   5.007  16.149 -2.6951  0.9754 -1.6530
18951TIP3   OH278343   2.748   5.439   4.080  1.0649 -0.5857  0.3290
18951TIP3    H178344   2.817   5.506   4.077  0.0989  0.4014 -0.5952
18951TIP3    H278345   2.706   5.453   4.165  0.2121  0.6949 -0.2754
18952TIP3   OH278346   6.260   2.518   0.476  0.7467  0.4061  0.0643
18952TIP3    H178347   6.261   2.592   0.536  1.9164 -0.4811  1.1951
18952TIP3    H278348   6.321   2.543   0.406  0.3433  0.9183 -0.1121
18953TIP3   OH278349   1.826   0.506  14.840  0.0094  0.2496  0.2828
18953TIP3    H178350   1.845   0.568  14.910 -1.6063  0.6606  0.4001
18953TIP3    H278351   1.909   0.461  14.825  0.8991  1.5582  1.0520
18954TIP3   OH278352   6.196   4.628  11.788  0.2070  0.0800 -0.1641
18954TIP3    H178353   6.250   4.614  11.711 -1.5742 -2.4911 -1.0860
18954TIP3    H278354   6.119   4.674  11.755 -0.3368 -0.5809  0.1623
18955TIP3   OH278355   4.450   4.044  13.545  0.2202  0.3448  0.5296
18955TIP3    H178356   4.468   4.126  13.498  1.0455  0.2532  0.6703
18955TIP3    H278357   4.378   4.065  13.603  0.0928  0.8391  0.1987
18956TIP3   OH278358   0.942   3.898   0.315 -0.2421 -0.1817 -0.2233
18956TIP3    H178359   0.895   3.965   0.266  0.5786  0.5865  0.0101
18956TIP3    H278360   0.907   3.815   0.282 -0.1835  0.3217 -1.6441
18957TIP3   OH278361   5.470   4.001  17.156 -0.0322 -0.1068 -0.0809
18957TIP3    H178362   5.529   3.945  17.206  0.2664  1.3078  1.2306
18957TIP3    H278363   5.399   4.021  17.217 -0.6381  0.1343 -0.8551
18958TIP3   OH278364   1.143   1.375  13.473  0.0680  0.2005 -0.2652
18958TIP3    H178365   1.164   1.284  13.495 -1.0727 -0.3590 -1.4065
18958TIP3    H278366   1.221   1.424  13.499 -0.4159 -0.6096  3.2963
18959TIP3   OH278367   3.236   3.479  16.661 -0.1655 -0.5264 -0.0318
18959TIP3    H178368   3.323   3.462  16.624  1.5072 -0.7200  3.5725
18959TIP3    H278369   3.182   3.408  16.629  0.8044 -0.1459 -2.7618
18960TIP3   OH278370   4.934   6.047   2.203  0.0092  0.1346  0.0073
18960TIP3    H178371   4.901   6.100   2.130  0.2457  2.1732  1.3049
18960TIP3    H278372   5.014   6.008   2.169 -0.8066 -0.4380 -1.3817
18961TIP3   OH278373   0.573   6.376   2.431  0.1853 -0.2137  0.4423
18961TIP3    H178374   0.568   6.471   2.444  1.3816  0.0419 -0.7551
18961TIP3    H278375   0.625   6.344   2.505  1.4381  0.3471 -0.1631
18962TIP3   OH278376   2.126   4.104  13.874 -0.2525 -0.2386  0.1019
18962TIP3    H178377   2.049   4.054  13.845  0.9514 -1.8368 -0.4851
18962TIP3    H278378   2.120   4.103  13.970 -0.9012 -0.4319  0.0667
18963TIP3   OH278379   3.768   6.262  14.850  0.1720  0.1894  0.3482
18963TIP3    H178380   3.759   6.169  14.869  0.8213  0.0488  0.0124
18963TIP3    H278381   3.814   6.265  14.766  1.4772  0.8061  1.0534
18964TIP3   OH278382   5.242   5.790   3.430  0.0173 -0.0003 -0.2245
18964TIP3    H178383   5.179   5.848   3.473  1.4438  1.7964 -0.4280
18964TIP3    H278384   5.214   5.790   3.338 -0.1895  0.0974 -0.1632
18965TIP3   OH278385   6.639   4.729  14.260  0.1616 -0.0934 -0.4048
18965TIP3    H178386   6.705   4.712  14.193  0.2577  1.8945 -0.8920
18965TIP3    H278387   6.642   4.653  14.318  1.7321 -0.7700 -1.3222
18966TIP3   OH278388   4.555   5.263   3.495 -0.2237 -0.2692 -0.1079
18966TIP3    H178389   4.529   5.305   3.413  1.7549 -1.8370 -1.6147
18966TIP3    H278390   4.650   5.274   3.499  0.1116 -2.8028  0.4130
18967TIP3   OH278391   5.198   2.030  15.183  0.6158 -0.0142  0.2071
18967TIP3    H178392   5.242   2.011  15.100 -0.7038 -0.0727 -0.5105
18967TIP3    H278393   5.197   2.126  15.188 -0.7175  0.0377 -0.6610
18968TIP3   OH278394   6.173   3.530   4.815  0.3237  0.6310 -0.4450
18968TIP3    H178395   6.142   3.546   4.726 -0.3880 -2.5762 -0.8909
18968TIP3    H278396   6.116   3.583   4.870  1.2758  3.3180 -1.8149
18969TIP3   OH278397   2.680   4.780  13.189 -0.1631 -0.1259  0.3394
18969TIP3    H178398   2.661   4.774  13.096 -2.1837 -0.7175  0.7371
18969TIP3    H278399   2.643   4.865  13.215  2.5925  1.2155  0.1911
18970TIP3   OH278400   0.678   2.320   2.350 -0.4731 -0.2773  0.7213
18970TIP3    H178401   0.603   2.328   2.410 -1.7746  0.6999 -0.9625
18970TIP3    H278402   0.692   2.226   2.341 -1.6447 -0.4790  0.8820
18971TIP3   OH278403   6.510   5.004   4.671  0.6403 -0.0457  0.1841
18971TIP3    H178404   6.441   5.018   4.736  0.1314 -0.5651 -0.2438
18971TIP3    H278405   6.520   4.909   4.666 -0.6843 -0.1222 -1.9007
18972TIP3   OH278406   1.618   0.363  15.073  0.0938 -0.2534  0.2751
18972TIP3    H178407   1.606   0.393  14.983 -0.4173  0.9086  0.7052
18972TIP3    H278408   1.572   0.280  15.077 -1.6744  0.6475 -0.0344
18973TIP3   OH278409   5.058   3.518  15.038  0.0102 -0.0134 -0.2674
18973TIP3    H178410   5.004   3.573  15.096  1.9764  1.8934 -0.0896
18973TIP3    H278411   5.101   3.581  14.980  1.4663 -1.4987 -0.8711
18974TIP3   OH278412   1.565   3.610   0.250 -0.3249  0.0961  0.6469
18974TIP3    H178413   1.652   3.574   0.268 -0.2949  0.3321  0.9838
18974TIP3    H278414   1.570   3.643   0.161  0.2240  0.9628  0.9894
18975TIP3   OH278415   6.324   5.909  14.013  0.2879 -0.0333 -0.4000
18975TIP3    H178416   6.381   5.956  13.951  0.4889 -0.3056 -0.4217
18975TIP3    H278417   6.379   5.838  14.046  0.1801  0.1092  0.0890
18976TIP3   OH278418   4.143   5.781  11.634  0.2514  0.2272  0.1304
18976TIP3    H178419   4.079   5.767  11.564 -0.2247 -0.2469  0.6495
18976TIP3    H278420   4.185   5.695  11.646  0.3112  0.2988  0.4439
18977TIP3   OH278421   5.983   5.952  16.889 -0.0793  0.2167 -0.5241
18977TIP3    H178422   5.965   5.923  16.978 -0.1959  2.8814  0.3945
18977TIP3    H278423   5.921   5.903  16.835 -0.8954 -0.5020  1.0097
18978TIP3   OH278424   1.294   6.251   4.431 -0.1667 -0.3250  0.7280
18978TIP3    H178425   1.222   6.191   4.411 -0.5916 -0.0607  1.4286
18978TIP3    H278426   1.369   6.193   4.446 -0.2709 -0.6127  0.1714
18979TIP3   OH278427   6.503   0.267   2.202  0.6082  0.3359  0.7199
18979TIP3    H178428   6.489   0.358   2.175  1.9785  0.7454  1.3307
18979TIP3    H278429   6.593   0.248   2.178  0.9268 -0.2444  2.2711
18980TIP3   OH278430   3.779   4.570  13.208 -0.1666 -0.3330 -0.5084
18980TIP3    H178431   3.740   4.652  13.177 -1.4160 -1.0166 -0.7788
18980TIP3    H278432   3.709   4.526  13.256  1.0613 -0.3598  1.3851
18981TIP3   OH278433   4.171   3.546  15.943  0.2401  0.1551  0.2993
18981TIP3    H178434   4.081   3.561  15.969 -0.1541 -0.0807 -0.8659
18981TIP3    H278435   4.165   3.512  15.853  1.5121  0.7795 -0.0502
18982TIP3   OH278436   6.000   3.518  11.843  0.4990 -0.1531 -0.3633
18982TIP3    H178437   5.905   3.505  11.848  0.5235 -0.4206 -0.5951
18982TIP3    H278438   6.032   3.492  11.930  0.0919  2.3432  0.6154
18983TIP3   OH278439   1.492   6.594  13.545  0.0100  0.2764 -0.1346
18983TIP3    H178440   1.585   6.582  13.525  0.0451  1.3968 -0.6831
18983TIP3    H278441   1.491   6.648  13.624 -0.1830  0.7258 -0.4458
18984TIP3   OH278442   1.274   5.206  16.385 -0.1633 -0.9513  0.1095
18984TIP3    H178443   1.310   5.269  16.446 -1.8925 -0.3551  0.5535
18984TIP3    H278444   1.253   5.257  16.307 -0.4993 -1.1907  0.0416
18985TIP3   OH278445   0.535   4.380  12.909 -0.3554 -0.0941  0.2348
18985TIP3    H178446   0.519   4.474  12.908  2.5366  0.6242  3.1122
18985TIP3    H278447   0.459   4.344  12.954 -1.0443  1.0035 -0.0099
18986TIP3   OH278448   5.868   3.453  16.565  0.1279  1.0531  0.3411
18986TIP3    H178449   5.786   3.431  16.520 -0.0757 -0.9426  1.5543
18986TIP3    H278450   5.936   3.429  16.502 -0.1955  0.4857  0.1979
18987TIP3   OH278451   3.961   2.632   4.808  0.2943  0.3568  0.0387
18987TIP3    H178452   3.954   2.589   4.893  0.4127 -1.3849 -0.7907
18987TIP3    H278453   4.005   2.715   4.826  0.5337 -0.0936  1.6313
18988TIP3   OH278454   6.469   2.476  12.361 -0.3869  0.3674  0.6306
18988TIP3    H178455   6.505   2.388  12.351 -1.2931 -0.2470  2.3683
18988TIP3    H278456   6.452   2.505  12.271  1.1121 -0.6911 -0.0505
18989TIP3   OH278457   0.974   5.978   5.269 -0.1980  0.0572 -0.7655
18989TIP3    H178458   1.033   5.965   5.195  0.9773  0.1014  0.1199
18989TIP3    H278459   1.019   6.042   5.325 -0.1139 -1.3531  0.8913
18990TIP3   OH278460   2.735   1.814   3.346  0.4092 -0.0610  0.1370
18990TIP3    H178461   2.703   1.840   3.259  0.5244  1.4095  0.5036
18990TIP3    H278462   2.700   1.726   3.359 -2.9784  1.1453  0.1927
18991TIP3   OH278463   5.324   1.433  15.917  0.4718  0.6071 -0.5256
18991TIP3    H178464   5.399   1.439  15.858  1.5350  0.7944  0.7938
18991TIP3    H278465   5.337   1.349  15.962 -1.4507 -0.5622 -1.9791
18992TIP3   OH278466   2.433   0.013  13.954 -0.7659 -0.0364  0.0039
18992TIP3    H178467   2.391  -0.064  13.990  1.2957 -1.8180 -1.1502
18992TIP3    H278468   2.527  -0.001  13.968 -0.2613  1.7763 -1.1159
18993TIP3   OH278469   1.370   1.024   4.028 -0.4784 -0.3477 -0.1333
18993TIP3    H178470   1.438   1.090   4.038  1.2126 -1.6869 -1.9948
18993TIP3    H278471   1.353   0.992   4.117  1.1936  0.1502  0.3909
18994TIP3   OH278472   2.746   6.082   2.190 -0.7377  0.1981 -0.2781
18994TIP3    H178473   2.797   6.001   2.185 -1.9184 -0.5719 -0.3025
18994TIP3    H278474   2.811   6.152   2.186  0.4794 -0.7428  1.6730
18995TIP3   OH278475   3.996   1.981   0.653  0.1665 -0.2726  0.0724
18995TIP3    H178476   4.058   2.053   0.659 -0.4101  0.3233 -0.7995
18995TIP3    H278477   3.913   2.018   0.682 -0.1893 -0.5041 -0.6249
18996TIP3   OH278478   6.540   3.266   2.706 -0.1819  0.9942 -0.1974
18996TIP3    H178479   6.475   3.301   2.645 -0.5558  0.0595 -0.3388
18996TIP3    H278480   6.595   3.209   2.653 -1.6295 -1.2949  0.6344
18997TIP3   OH278481   2.741   2.816  13.825 -0.4664 -0.2696  0.4970
18997TIP3    H178482   2.772   2.877  13.892  2.6402  1.1705 -1.9880
18997TIP3    H278483   2.712   2.872  13.753 -0.4314 -1.7331 -0.6960
18998TIP3   OH278484   2.196   4.412   0.475 -0.7939 -0.6011  0.3464
18998TIP3    H178485   2.284   4.427   0.508 -1.4177 -0.0533  1.8176
18998TIP3    H278486   2.173   4.325   0.505  0.2930 -2.0298 -2.5407
18999TIP3   OH278487   2.050   2.193  15.295 -0.0905 -0.1093 -0.1266
18999TIP3    H178488   2.006   2.263  15.247 -1.6282 -0.6301  0.4681
18999TIP3    H278489   2.012   2.112  15.261  2.5557 -0.8241 -1.7282
19000TIP3   OH278490   0.165   4.834   5.228 -0.4004 -0.0252  0.1172
19000TIP3    H178491   0.233   4.851   5.163 -0.4391 -1.2007 -0.2526
19000TIP3    H278492   0.088   4.879   5.194 -0.9346 -2.1042 -1.6571
19001TIP3   OH278493   5.816   4.090   5.358 -0.6376 -0.3995 -0.0462
19001TIP3    H178494   5.846   4.085   5.448 -0.4735  0.2438 -0.0564
19001TIP3    H278495   5.745   4.155   5.359 -0.9564 -0.7377 -0.2966
19002TIP3   OH278496   2.781   2.046   5.321  0.3588 -0.2963  0.9165
19002TIP3    H178497   2.786   2.104   5.245  1.6469 -0.1808  1.0697
19002TIP3    H278498   2.816   2.098   5.393 -0.6968 -0.4615  1.5759
19003TIP3   OH278499   5.440   0.922   3.076 -0.3421  0.6839  0.4245
19003TIP3    H178500   5.389   0.966   3.144 -1.9198  0.8810 -0.8374
19003TIP3    H278501   5.437   0.829   3.100 -0.4205  0.8033  0.8957
19004TIP3   OH278502   1.636   3.224   3.709  0.6182 -0.2179  0.4356
19004TIP3    H178503   1.718   3.238   3.756 -0.3974  1.4614  1.8303
19004TIP3    H278504   1.583   3.171   3.769  0.3918 -0.6522 -0.1399
19005TIP3   OH278505   6.649   2.651   4.860 -0.1262  0.4520  0.7858
19005TIP3    H178506   6.683   2.708   4.928  1.8045 -0.7820  0.9280
19005TIP3    H278507   6.628   2.569   4.905  0.8036 -0.2503 -0.0046
19006TIP3   OH278508   5.265   0.851  13.675 -0.0906  0.4131  0.4331
19006TIP3    H178509   5.201   0.921  13.658  0.1447  0.9339  1.5754
19006TIP3    H278510   5.271   0.804  13.592 -1.8081  0.4748  0.2267
19007TIP3   OH278511   5.609   5.112  14.166  0.3602 -0.5202  0.3511
19007TIP3    H178512   5.534   5.169  14.150 -0.4918 -1.2416  1.5621
19007TIP3    H278513   5.609   5.098  14.260  0.8327 -2.0946  0.1577
19008TIP3   OH278514   1.522   3.764  15.568  0.2122  0.2358  0.0586
19008TIP3    H178515   1.532   3.850  15.609  2.3561  0.1625 -0.2260
19008TIP3    H278516   1.570   3.770  15.485 -1.3689 -0.6147 -0.9753
19009TIP3   OH278517   1.755   4.663  12.485 -0.6050  0.1952 -0.8019
19009TIP3    H178518   1.662   4.646  12.471 -0.3290  0.0457 -2.7724
19009TIP3    H278519   1.761   4.758  12.492 -0.9712  0.1677 -0.1364
19010TIP3   OH278520   5.504   6.095   5.158 -0.3557 -0.4897 -0.3083
19010TIP3    H178521   5.564   6.145   5.213  0.2548 -0.0074 -1.3758
19010TIP3    H278522   5.560   6.058   5.089 -1.0328 -1.4232 -0.3785
19011TIP3   OH278523   1.325   5.850  13.066 -0.0528  0.4106  0.5325
19011TIP3    H178524   1.347   5.814  13.152 -0.5893 -1.1084  0.0720
19011TIP3    H278525   1.234   5.879  13.074  0.3358  1.6110  0.8616
19012TIP3   OH278526   1.537   6.337   2.543 -0.7441 -0.6820 -0.7054
19012TIP3    H178527   1.558   6.427   2.567 -2.9222  0.1328 -1.5831
19012TIP3    H278528   1.550   6.334   2.449 -0.7258 -1.2844 -0.6844
19013TIP3   OH278529   0.611   1.270  15.945  0.6391  0.3074  0.3408
19013TIP3    H178530   0.685   1.227  15.987 -0.1653  0.2307  1.7645
19013TIP3    H278531   0.614   1.360  15.977  0.2312  0.3554  0.2524
19014TIP3   OH278532   0.657   4.580   1.656 -0.4360 -0.2574  0.3339
19014TIP3    H178533   0.624   4.582   1.566 -0.9150  0.4692  0.5202
19014TIP3    H278534   0.748   4.608   1.649  0.0778 -1.9399 -0.1412
19015TIP3   OH278535   3.026   4.397   6.418 -0.0159  0.6577  0.2347
19015TIP3    H178536   3.078   4.449   6.356  1.0833  0.9981  1.3980
19015TIP3    H278537   2.978   4.462   6.470  1.6706  0.6155  1.9652
19016TIP3   OH278538   5.495   1.069  11.335  0.0137  0.3672  0.6715
19016TIP3    H178539   5.428   1.114  11.283 -0.2880 -0.8506 -0.0452
19016TIP3    H278540   5.478   1.097  11.425 -1.5691 -0.0276  0.5216
19017TIP3   OH278541   5.010   0.725  15.726 -0.6795  0.0791  0.1275
19017TIP3    H178542   5.077   0.689  15.783  1.0805  0.6766 -1.4565
19017TIP3    H278543   4.995   0.813  15.759  0.2244  0.3718 -0.2085
19018TIP3   OH278544   3.523   3.961  16.797  0.4127 -0.3981  0.4229
19018TIP3    H178545   3.593   3.897  16.780  0.0225 -0.3868 -1.5565
19018TIP3    H278546   3.550   4.006  16.876  1.5504 -1.8764  0.9300
19019TIP3   OH278547   2.537   6.725  12.234 -0.0710 -0.6059  0.3304
19019TIP3    H178548   2.548   6.820  12.238  0.4108 -0.6466  0.0199
19019TIP3    H278549   2.625   6.690  12.251  0.3493 -0.9387 -2.1792
19020TIP3   OH278550   5.363   2.694   5.365  0.2695  0.3888 -0.0176
19020TIP3    H178551   5.386   2.668   5.454  0.4242  2.5011  0.6052
19020TIP3    H278552   5.444   2.731   5.329 -0.0977  0.6158 -0.6227
19021TIP3   OH278553   4.378   3.333   0.056 -0.2802 -0.9921 -0.1118
19021TIP3    H178554   4.469   3.307   0.043 -0.8714 -3.2185 -0.3528
19021TIP3    H278555   4.382   3.402   0.122  1.5277 -1.6372  0.5229
19022TIP3   OH278556   2.028   4.583  15.746 -0.0550  0.6762 -0.1047
19022TIP3    H178557   1.935   4.573  15.767  0.0718  0.9857  0.6188
19022TIP3    H278558   2.071   4.508  15.786  0.0148  0.5658 -0.3862
19023TIP3   OH278559   6.067   6.076  15.423 -0.0142  0.3928 -0.3887
19023TIP3    H178560   6.078   6.096  15.330 -3.0110  0.1242 -0.9127
19023TIP3    H278561   6.036   6.158  15.461  0.4656  0.2928  0.2256
19024TIP3   OH278562   2.210   1.674   6.142 -0.3941 -0.9319 -0.2328
19024TIP3    H178563   2.191   1.739   6.075 -0.6367 -1.5992 -0.8354
19024TIP3    H278564   2.191   1.718   6.225 -1.8756 -0.6576 -0.6807
19025TIP3   OH278565   2.875   1.520  16.546 -0.3105  0.0368 -0.2555
19025TIP3    H178566   2.797   1.568  16.517 -0.3032  0.3593  0.2389
19025TIP3    H278567   2.948   1.567  16.507 -0.1858  1.5623  1.6927
19026TIP3   OH278568   6.194   4.567   3.498  0.2461  0.1709 -0.2767
19026TIP3    H178569   6.246   4.546   3.575 -0.9870  0.3224  0.6291
19026TIP3    H278570   6.109   4.526   3.515  0.0653 -0.1002 -1.7206
19027TIP3   OH278571   4.534   2.551  13.638  0.1093  0.0525 -0.2254
19027TIP3    H178572   4.443   2.582  13.640  0.8069  2.2501  0.2794
19027TIP3    H278573   4.545   2.515  13.550 -0.8905  1.0081 -0.7660
19028TIP3   OH278574   4.538   5.532   0.375 -0.3735  0.6238 -0.7689
19028TIP3    H178575   4.617   5.477   0.380  0.0819  1.3467  1.1576
19028TIP3    H278576   4.467   5.474   0.403 -0.3886  0.2355 -1.5800
19029TIP3   OH278577   5.774   3.975   0.631 -0.0437  0.5521 -0.0639
19029TIP3    H178578   5.840   3.905   0.626  0.5602  1.1766 -1.3313
19029TIP3    H278579   5.822   4.050   0.665 -0.3708  0.7372 -0.0070
19030TIP3   OH278580   4.624   0.632   4.183 -0.4225  0.4356  0.0844
19030TIP3    H178581   4.539   0.587   4.188 -0.1268 -0.1918 -0.3457
19030TIP3    H278582   4.688   0.562   4.191  0.0820  0.4374 -2.6705
19031TIP3   OH278583   3.316   3.557  17.200  0.5960  0.1968  0.3219
19031TIP3    H178584   3.228   3.584  17.226  0.7628  1.9804 -0.7928
19031TIP3    H278585   3.351   3.632  17.152  1.7692 -1.4575 -1.5526
19032TIP3   OH278586   1.783   6.219   3.372  0.1393  0.3110  0.4351
19032TIP3    H178587   1.874   6.247   3.377  0.7126 -1.5652  1.6049
19032TIP3    H278588   1.778   6.167   3.292 -0.2191  1.3287 -0.2267
19033TIP3   OH278589   2.659   2.569   5.628 -0.3239 -0.5967 -0.5414
19033TIP3    H178590   2.600   2.632   5.668 -1.2813 -1.6519 -0.2232
19033TIP3    H278591   2.631   2.565   5.536 -0.4634 -0.7694 -0.4927
19034TIP3   OH278592   5.625   3.821  14.455 -0.1990  0.3591 -0.4916
19034TIP3    H178593   5.624   3.897  14.514 -0.1816  0.4635 -0.6253
19034TIP3    H278594   5.684   3.759  14.497 -0.4104  0.3171 -0.2508
19035TIP3   OH278595   1.603   2.275   0.093  0.2445 -0.2080 -0.1788
19035TIP3    H178596   1.696   2.263   0.077  0.2076  1.3338 -1.8921
19035TIP3    H278597   1.583   2.217   0.166  2.6787 -0.0624  0.6721
19036TIP3   OH278598   0.564   2.630   0.454 -0.2339  0.1093  0.9599
19036TIP3    H178599   0.492   2.677   0.496 -0.3760  0.2151  0.6037
19036TIP3    H278600   0.532   2.540   0.447 -0.7183  0.3491 -0.0548
19037TIP3   OH278601   5.354   3.396  13.351 -0.0489 -0.0154 -0.7260
19037TIP3    H178602   5.394   3.331  13.409 -0.8672  0.5245  0.4622
19037TIP3    H278603   5.428   3.448  13.320  0.5539 -1.1521 -1.2752
19038TIP3   OH278604   3.002   3.678   3.174  0.0317  0.1069  0.1888
19038TIP3    H178605   3.002   3.724   3.090  2.7307  2.2452  1.2030
19038TIP3    H278606   2.917   3.698   3.213 -0.6981  0.2399 -1.4281
19039TIP3   OH278607   0.576   1.661  11.969  0.5747 -0.2137 -0.3484
19039TIP3    H178608   0.638   1.721  11.928  0.9310  0.6252  1.3100
19039TIP3    H278609   0.498   1.715  11.986  0.6198 -0.3859  0.4781
19040TIP3   OH278610   1.204   4.386   5.079  0.2728 -0.1405  0.0675
19040TIP3    H178611   1.157   4.306   5.102  1.2044 -0.1698  2.1391
19040TIP3    H278612   1.139   4.456   5.082  0.0490 -0.3941  1.3647
19041TIP3   OH278613   0.413   6.094  16.629  0.5056 -0.0353 -0.4108
19041TIP3    H178614   0.442   6.156  16.696 -0.4143 -0.0330 -0.0066
19041TIP3    H278615   0.353   6.035  16.674  1.4156 -1.2842 -0.7688
19042TIP3   OH278616   2.969   3.552  14.514  0.4845 -0.0586 -0.6609
19042TIP3    H178617   2.949   3.587  14.427 -1.5268  0.9695  0.1341
19042TIP3    H278618   2.960   3.628  14.572 -1.5417 -1.3274  0.8205
19043TIP3   OH278619   6.177   5.354   0.894  0.0759 -0.7376  0.5848
19043TIP3    H178620   6.149   5.315   0.811  2.5147 -1.0464 -0.1665
19043TIP3    H278621   6.180   5.448   0.877 -1.1830 -0.6150  0.9267
19044TIP3   OH278622   6.028   1.913  13.525 -0.7586  0.1275  0.3576
19044TIP3    H178623   6.054   1.836  13.575 -1.7603 -0.8984 -0.6347
19044TIP3    H278624   5.933   1.904  13.514 -0.8238  1.2637 -0.1570
19045TIP3   OH278625   1.832   3.363  16.724 -0.2014 -0.3476 -0.1531
19045TIP3    H178626   1.847   3.357  16.630 -0.1127  1.5235 -0.3001
19045TIP3    H278627   1.916   3.340  16.763  0.3974  0.8947 -0.6401
19046TIP3   OH278628   5.933   6.365  15.928  0.1647 -0.1255  0.5697
19046TIP3    H178629   5.891   6.415  15.858 -0.9501 -1.2885  0.3784
19046TIP3    H278630   6.014   6.332  15.890  0.8281  1.3379  0.6379
19047TIP3   OH278631   3.489   6.808   2.082  0.0778  0.6283 -0.6206
19047TIP3    H178632   3.580   6.776   2.081 -0.1769 -0.3824  1.7161
19047TIP3    H278633   3.441   6.742   2.032  0.0048 -1.3789  1.8797
19048TIP3   OH278634   1.734   0.669  16.552  0.2942 -0.2977  0.1511
19048TIP3    H178635   1.713   0.588  16.597  0.4291 -0.6660 -0.4322
19048TIP3    H278636   1.700   0.657  16.463 -1.5802  1.1223  0.6237
19049TIP3   OH278637   1.573   6.745   3.783  0.6515  0.5584  0.0590
19049TIP3    H178638   1.625   6.741   3.863 -0.5091  0.5338  0.8470
19049TIP3    H278639   1.496   6.691   3.802  1.4707 -1.5258 -1.9707
19050TIP3   OH278640   3.352   6.090  13.372  0.4658 -0.4253 -0.4742
19050TIP3    H178641   3.357   6.172  13.421  0.7703 -0.4469 -0.4730
19050TIP3    H278642   3.370   6.116  13.281  2.4971 -0.7780 -0.2059
19051TIP3   OH278643   0.815   4.929   1.997  0.2063  0.3767  0.2901
19051TIP3    H178644   0.794   5.006   1.944 -0.4974  0.3835  0.5682
19051TIP3    H278645   0.801   4.957   2.087 -1.0764 -0.3645  0.3486
19052TIP3   OH278646   2.466   5.865   2.506  0.2405 -0.2128  0.0524
19052TIP3    H178647   2.550   5.909   2.518 -0.1577  0.8067 -0.7147
19052TIP3    H278648   2.471   5.787   2.560  1.5082  0.0745  0.3657
19053TIP3   OH278649   3.718   1.981  12.881 -0.0436 -0.3828 -0.3044
19053TIP3    H178650   3.632   2.007  12.916 -0.8924 -2.1602 -0.9532
19053TIP3    H278651   3.762   2.064  12.863 -1.9390  0.5922 -0.7204
19054TIP3   OH278652   3.946   2.686  15.127 -0.6754  0.2526  0.0917
19054TIP3    H178653   3.868   2.643  15.161 -2.2182  1.2125 -2.0687
19054TIP3    H278654   3.995   2.616  15.083 -1.0554 -0.0661  0.1750
19055TIP3   OH278655   3.799   3.009   2.210 -0.8274 -0.0238  0.0855
19055TIP3    H178656   3.709   3.037   2.229 -0.1518  1.8356  0.7863
19055TIP3    H278657   3.823   2.953   2.283 -0.5580  1.6157  1.3062
19056TIP3   OH278658   0.052   2.022  15.795 -0.4346  0.1785  0.4927
19056TIP3    H178659  -0.040   2.016  15.769 -0.0505  0.2590 -0.9953
19056TIP3    H278660   0.100   1.979  15.724  0.6917  0.2970  1.1541
19057TIP3   OH278661   6.642   2.390  15.058  0.5957 -0.4890  0.2588
19057TIP3    H178662   6.728   2.351  15.039 -0.1366 -1.7816 -0.5843
19057TIP3    H278663   6.617   2.354  15.143  0.0927 -1.6157 -0.3423
19058TIP3   OH278664   5.748   5.557   1.604 -0.3278  0.1553  0.4718
19058TIP3    H178665   5.694   5.519   1.674 -1.7449  0.5644 -0.3478
19058TIP3    H278666   5.709   5.643   1.588  1.4764  1.0731  0.8068
19059TIP3   OH278667   6.452   3.422  17.006  0.3156 -0.4271 -0.0388
19059TIP3    H178668   6.400   3.432  17.086  1.7803 -1.5431  1.1156
19059TIP3    H278669   6.520   3.489  17.013 -0.8425  1.0282 -1.5436
19060TIP3   OH278670   1.607   5.338  11.739 -0.5954  0.1416  0.0651
19060TIP3    H178671   1.631   5.407  11.801  0.7148 -0.5489  0.3505
19060TIP3    H278672   1.525   5.302  11.775 -0.9988  1.1536  0.2123
19061TIP3   OH278673   0.104   6.115   4.090 -0.1342  0.0026  0.1253
19061TIP3    H178674   0.067   6.199   4.062 -1.0097 -0.6737 -0.7933
19061TIP3    H278675   0.191   6.113   4.050 -0.3178  0.2423 -0.2872
19062TIP3   OH278676   1.492   4.157   2.036  0.2785  0.2912 -0.2074
19062TIP3    H178677   1.494   4.062   2.037  1.1721  0.3036 -0.3747
19062TIP3    H278678   1.550   4.182   1.964  0.0206  0.9661 -0.1950
19063TIP3   OH278679   0.667   5.027  11.051  0.5893 -0.2276  0.1059
19063TIP3    H178680   0.617   5.063  11.124  0.5675 -1.3777  0.6939
19063TIP3    H278681   0.609   4.962  11.011  1.0601 -0.5009 -0.1488
19064TIP3   OH278682   4.856   2.913   3.907 -0.4181  0.4753 -0.0205
19064TIP3    H178683   4.874   2.888   3.816  0.4885 -0.1787  0.3187
19064TIP3    H278684   4.841   2.830   3.952 -1.7969  0.8442  0.2649
19065TIP3   OH278685   1.712   1.924  16.437  0.1436  1.1662 -0.1033
19065TIP3    H178686   1.708   1.840  16.391  0.0829  1.9630 -1.6155
19065TIP3    H278687   1.736   1.901  16.526 -0.2878 -0.4965 -0.3788
19066TIP3   OH278688   5.596   4.672  16.863  0.2171  0.2188  0.5787
19066TIP3    H178689   5.560   4.610  16.800 -1.0888  2.0108 -0.5393
19066TIP3    H278690   5.524   4.692  16.923  0.1332  1.7245  0.0278
19067TIP3   OH278691   2.862   2.723   4.080  0.5006  0.5574  0.2158
19067TIP3    H178692   2.873   2.628   4.078  1.6678  0.6796 -0.2247
19067TIP3    H278693   2.817   2.744   3.999 -0.2458  0.3342  0.5669
19068TIP3   OH278694   4.056   1.833  17.094  0.5716 -0.2209  0.3112
19068TIP3    H178695   3.978   1.884  17.071  1.9363  2.2283  0.7744
19068TIP3    H278696   4.093   1.808  17.009  0.4950  0.5653  0.0375
19069TIP3   OH278697   6.547   0.660  16.000  0.5495  0.5375 -0.2755
19069TIP3    H178698   6.571   0.568  16.009  2.4675  1.1449  1.7201
19069TIP3    H278699   6.480   0.674  16.066  1.5065  0.9118  0.6508
19070TIP3   OH278700   5.800   3.260  11.398 -0.5249 -0.3881 -0.2172
19070TIP3    H178701   5.846   3.176  11.392 -0.3897 -0.7195  3.2766
19070TIP3    H278702   5.857   3.314  11.453 -1.9094  1.0160 -0.1022
19071TIP3   OH278703   3.517   2.923   2.115  0.2257  0.1073 -0.0452
19071TIP3    H178704   3.515   3.008   2.072  1.9275 -0.0657 -0.5501
19071TIP3    H278705   3.451   2.871   2.069 -0.6837  1.0662  0.1401
19072TIP3   OH278706   4.763   0.086  14.540 -0.1472 -0.2303 -0.6456
19072TIP3    H178707   4.698   0.047  14.481 -1.8547  2.6163 -0.8497
19072TIP3    H278708   4.832   0.118  14.482 -0.2540 -0.2207 -0.7681
19073TIP3   OH278709   0.500   5.500  14.270 -0.4595 -0.1376 -0.1626
19073TIP3    H178710   0.582   5.466  14.304  0.1606  0.2366 -1.2275
19073TIP3    H278711   0.502   5.477  14.177 -2.1871 -1.3443  0.0380
19074TIP3   OH278712   5.178   2.130  12.400 -0.2449 -0.2027  0.8112
19074TIP3    H178713   5.244   2.061  12.403 -1.3353 -1.3302 -0.1563
19074TIP3    H278714   5.212   2.193  12.336  0.5990  0.0245  1.4589
19075TIP3   OH278715   3.876   1.532  13.751  0.1582 -0.5890  0.5890
19075TIP3    H178716   3.877   1.513  13.657  0.4692  0.5278  0.3641
19075TIP3    H278717   3.962   1.504  13.782 -0.0410 -1.2125  0.6072
19076TIP3   OH278718   5.953   6.117   3.665 -0.7675  0.3640  0.2137
19076TIP3    H178719   5.949   6.023   3.652  1.4560  0.1224  0.8950
19076TIP3    H278720   5.965   6.154   3.578 -1.9001  0.0788 -0.0847
19077TIP3   OH278721   4.803   2.632  11.468 -0.4690  0.5663  0.6062
19077TIP3    H178722   4.777   2.559  11.412 -1.0775 -0.1856  1.8487
19077TIP3    H278723   4.721   2.663  11.507 -0.0185  0.9151  1.2916
19078TIP3   OH278724   2.881   4.205   5.826 -0.5079  0.2720  0.1422
19078TIP3    H178725   2.919   4.254   5.752 -1.7012  0.9283 -0.0653
19078TIP3    H278726   2.941   4.222   5.899 -0.0058  0.6737 -0.3529
19079TIP3   OH278727   4.224   5.468   2.631  0.4653  0.4510  0.9724
19079TIP3    H178728   4.316   5.457   2.656  0.0960  0.0424  2.1954
19079TIP3    H278729   4.205   5.391   2.577  1.2016  1.2178 -0.4382
19080TIP3   OH278730   3.988   6.169   2.710 -0.1657 -0.1013 -0.6544
19080TIP3    H178731   4.004   6.112   2.635 -1.1241 -0.2689 -0.7436
19080TIP3    H278732   4.024   6.121   2.785  0.9797  0.1613 -1.0205
19081TIP3   OH278733   6.694   2.618   1.012 -0.0834  0.2469  0.0852
19081TIP3    H178734   6.604   2.592   1.030  0.2132 -0.4171  0.6811
19081TIP3    H278735   6.736   2.538   0.979  0.5785  0.2279  0.9483
19082TIP3   OH278736   4.198   1.485   1.153 -0.1024 -0.2834  0.2140
19082TIP3    H178737   4.166   1.490   1.063  2.0177 -1.2510 -0.6571
19082TIP3    H278738   4.278   1.433   1.148  1.4927  1.7005  2.2568
19083TIP3   OH278739   1.189   2.726  14.833 -0.0029  0.0398 -0.1300
19083TIP3    H178740   1.246   2.747  14.907 -1.3394  0.5517  0.7842
19083TIP3    H278741   1.144   2.646  14.859  0.5713 -0.5976 -1.0265
19084TIP3   OH278742   1.025   0.082   1.298 -0.1431 -0.4343  0.1588
19084TIP3    H178743   0.979   0.004   1.267 -0.8215  0.5732 -1.5539
19084TIP3    H278744   0.956   0.140   1.328 -0.2936  1.4471 -3.2281
19085TIP3   OH278745   4.527   1.861  12.015  0.3160 -0.1254 -0.0132
19085TIP3    H178746   4.592   1.899  12.074  0.0204  0.1742  0.1227
19085TIP3    H278747   4.525   1.919  11.939 -1.3466  1.1470  0.9133
19086TIP3   OH278748   3.027   3.181  11.708  0.0604  0.5482  0.0315
19086TIP3    H178749   2.955   3.196  11.647  1.3007  0.4448 -1.5298
19086TIP3    H278750   3.038   3.264  11.753 -1.5807  0.3105  0.9549
19087TIP3   OH278751   6.017   5.066  11.675 -0.0848 -0.0974  0.2090
19087TIP3    H178752   6.073   5.007  11.724  0.7979 -0.7707 -1.5256
19087TIP3    H278753   6.065   5.149  11.674  0.4895 -0.4234 -0.5115
19088TIP3   OH278754   2.507   5.001  15.591 -0.5515 -0.0142 -0.7207
19088TIP3    H178755   2.567   5.044  15.530 -0.4630  0.7668 -0.1088
19088TIP3    H278756   2.448   5.071  15.619  0.0124 -0.1070  0.8165
19089TIP3   OH278757   5.455   2.523   6.070  0.2184 -0.4114  0.3415
19089TIP3    H178758   5.432   2.607   6.109 -0.4776  0.2565 -1.4076
19089TIP3    H278759   5.550   2.518   6.079  0.0313 -0.7204  2.8383
19090TIP3   OH278760   3.431   3.560   2.573 -0.1912 -0.0926  0.2986
19090TIP3    H178761   3.336   3.574   2.572 -0.2318 -0.1742  1.4119
19090TIP3    H278762   3.445   3.502   2.647  1.0177  2.1864  1.9829
19091TIP3   OH278763   3.297   1.133   4.052 -0.4501 -0.6263  0.0766
19091TIP3    H178764   3.239   1.101   4.121 -1.4255 -0.3911 -0.6029
19091TIP3    H278765   3.386   1.118   4.085 -0.8978 -0.9980  1.1436
19092TIP3   OH278766   3.231   1.661  16.728 -0.2444  0.0744  0.2088
19092TIP3    H178767   3.148   1.680  16.686 -0.9531  1.0304  1.9053
19092TIP3    H278768   3.297   1.694  16.667 -1.2810  3.3349  0.6181
19093TIP3   OH278769   5.572   1.345  16.651  0.3574 -0.6959  0.0485
19093TIP3    H178770   5.544   1.261  16.687  1.2769 -1.0552 -0.0389
19093TIP3    H278771   5.569   1.332  16.556 -1.2917 -0.0113 -0.0127
19094TIP3   OH278772   6.131   2.427   3.800  0.0387 -0.2808  0.1931
19094TIP3    H178773   6.219   2.463   3.789  0.5427 -1.5088  0.0456
19094TIP3    H278774   6.103   2.406   3.711  0.3922 -1.6495  0.3702
19095TIP3   OH278775   1.525   4.342   2.691 -0.5327  0.6528 -0.2081
19095TIP3    H178776   1.491   4.391   2.765  1.7717 -1.3233  2.3809
19095TIP3    H278777   1.474   4.261   2.690 -0.4435  0.5974 -0.6804
19096TIP3   OH278778   6.332   3.924  13.309  0.1158  0.4583  0.0762
19096TIP3    H178779   6.406   3.870  13.336 -0.8312 -1.3087 -0.7160
19096TIP3    H278780   6.278   3.931  13.388  0.2192  0.1694  0.1748
19097TIP3   OH278781   5.669   2.901  12.678  0.2784  0.6344  0.4321
19097TIP3    H178782   5.731   2.975  12.681 -0.2924  1.0855  2.0701
19097TIP3    H278783   5.585   2.939  12.704 -0.1595 -0.4751  0.7041
19098TIP3   OH278784   1.674   2.656  10.605  0.2958  0.0149  0.0199
19098TIP3    H178785   1.674   2.663  10.509 -0.0506  2.1248  0.1188
19098TIP3    H278786   1.587   2.624  10.627  0.3679 -0.4563 -0.3457
19099TIP3   OH278787   1.895   4.547  11.562  0.4186  0.5307 -0.0469
19099TIP3    H178788   1.874   4.465  11.607  0.1054  0.3534 -0.5004
19099TIP3    H278789   1.824   4.607  11.587  1.9252  1.4987  2.2939
19100TIP3   OH278790   1.652   2.697  13.526 -0.5686 -0.4010  0.0247
19100TIP3    H178791   1.733   2.647  13.535  0.4321  1.0478 -0.5420
19100TIP3    H278792   1.663   2.771  13.586 -1.8654 -0.6371  0.5908
19101TIP3   OH278793   0.435   3.005  16.639  0.1305  0.4603 -0.4591
19101TIP3    H178794   0.509   2.945  16.646 -0.2949 -0.0223 -0.0256
19101TIP3    H278795   0.475   3.092  16.630  0.7617  0.3775  1.2734
19102TIP3   OH278796   6.403   6.582  15.680 -0.0988 -0.2849  0.9068
19102TIP3    H178797   6.451   6.650  15.633  0.6752 -0.5730  1.2479
19102TIP3    H278798   6.464   6.554  15.748 -0.0291 -1.9697  0.1935
19103TIP3   OH278799   1.869   0.353   4.433  0.1691  0.2870 -0.4324
19103TIP3    H178800   1.955   0.314   4.417 -0.5450 -0.9625 -1.4059
19103TIP3    H278801   1.828   0.294   4.497 -0.8002 -0.4428 -1.6752
19104TIP3   OH278802   5.425   3.078   5.880 -0.0720  0.0092  0.8576
19104TIP3    H178803   5.389   2.995   5.848  1.1976 -0.2432  0.0415
19104TIP3    H278804   5.459   3.056   5.967 -0.2946 -0.1688  0.9026
19105TIP3   OH278805   4.568   5.182  11.254 -0.5154  0.4401 -0.0733
19105TIP3    H178806   4.572   5.182  11.158 -0.4086  1.2548 -0.0700
19105TIP3    H278807   4.619   5.104  11.279 -2.3960 -1.0925 -0.7237
19106TIP3   OH278808   5.177   4.266   3.023  0.6992  0.0479 -0.0740
19106TIP3    H178809   5.193   4.230   2.935 -1.5326 -0.5752 -0.2860
19106TIP3    H278810   5.222   4.350   3.023  0.0704  0.4391 -2.1400
19107TIP3   OH278811   4.996   3.991  11.441 -0.4341 -0.0373  0.5979
19107TIP3    H178812   5.006   4.033  11.356  0.1162 -1.5280 -0.1158
19107TIP3    H278813   5.082   3.952  11.459 -1.0630 -1.3656  0.9058
19108TIP3   OH278814   1.767   2.794   3.066 -0.4625 -0.1457 -0.2976
19108TIP3    H178815   1.681   2.818   3.033 -0.6855  1.1619  1.0971
19108TIP3    H278816   1.799   2.727   3.006 -2.0182  0.0797 -1.4187
19109TIP3   OH278817   5.443   1.732   5.824  0.1189  0.0492  0.6118
19109TIP3    H178818   5.447   1.652   5.770  0.0165  1.6817 -1.9700
19109TIP3    H278819   5.357   1.769   5.806  0.2790  0.9057  1.5471
19110TIP3   OH278820   0.787   0.875  15.176  1.0759  0.6047 -0.3151
19110TIP3    H178821   0.764   0.897  15.086  0.9493  2.0170  0.0478
19110TIP3    H278822   0.883   0.874  15.177  1.0784  0.3832 -0.4996
19111TIP3   OH278823   2.264   3.821   2.497  0.5502 -0.0622 -0.2692
19111TIP3    H178824   2.269   3.726   2.500  1.0913 -0.0580 -0.7691
19111TIP3    H278825   2.274   3.848   2.589 -3.1265 -0.5819  0.4193
19112TIP3   OH278826   2.472   3.041  13.038 -0.7848 -0.3299  0.1159
19112TIP3    H178827   2.565   3.045  13.017 -0.2847 -0.3477  2.0778
19112TIP3    H278828   2.430   3.017  12.956  0.9370 -0.3878 -0.8094
19113TIP3   OH278829   0.459   1.610   0.927  0.1645 -0.8563  0.1771
19113TIP3    H178830   0.379   1.614   0.874  1.0184  0.0760 -1.1321
19113TIP3    H278831   0.513   1.544   0.883  0.9449  0.0299 -0.2315
19114TIP3   OH278832   1.035   3.681   3.156 -0.2342  0.1873  0.0317
19114TIP3    H178833   0.994   3.616   3.098  0.5485 -0.2865 -0.0034
19114TIP3    H278834   0.961   3.731   3.191 -0.9631 -1.3471  0.8342
19115TIP3   OH278835   3.523   4.138   1.114 -0.4788  0.5025 -0.3158
19115TIP3    H178836   3.530   4.053   1.071 -0.4551  1.0702 -1.4516
19115TIP3    H278837   3.437   4.137   1.155 -0.0671 -0.4631  0.5662
19116TIP3   OH278838   5.333   2.350  17.169  0.3773  0.1011  0.0720
19116TIP3    H178839   5.358   2.288  17.238  0.8892  0.4768  0.2192
19116TIP3    H278840   5.371   2.433  17.196 -1.6933  0.8968  0.7391
19117TIP3   OH278841   4.445   0.469   3.580 -0.3328  0.2425 -0.6596
19117TIP3    H178842   4.356   0.434   3.583  0.4270 -1.8103 -0.4171
19117TIP3    H278843   4.496   0.403   3.534  1.3561  0.6624  0.4764
19118TIP3   OH278844   4.586   5.512   1.818 -0.0367  0.0029 -0.2789
19118TIP3    H178845   4.679   5.488   1.818  0.0994  0.5123 -0.7734
19118TIP3    H278846   4.586   5.607   1.829 -0.5060 -0.0086 -0.1803
19119TIP3   OH278847   1.604   5.292  13.456 -0.3317  0.4429  0.5091
19119TIP3    H178848   1.632   5.206  13.486 -3.2499 -0.4596  0.9620
19119TIP3    H278849   1.586   5.280  13.363 -1.4575  0.2996  0.7257
19120TIP3   OH278850   0.701   6.561   4.749  0.6133 -0.1499 -0.3546
19120TIP3    H178851   0.668   6.650   4.738  0.4004 -0.1166  0.4541
19120TIP3    H278852   0.785   6.560   4.704  0.6545  0.4817 -0.3016
19121TIP3   OH278853   3.510   6.143   5.888  0.0013  0.4933 -0.2417
19121TIP3    H178854   3.509   6.238   5.877 -3.0611  0.5614 -0.3441
19121TIP3    H278855   3.478   6.108   5.805  0.5528 -0.5991 -0.0179
19122TIP3   OH278856   2.595   2.321   5.451 -0.7522 -0.4633  0.2374
19122TIP3    H178857   2.563   2.233   5.431 -2.3784 -0.4814  2.5679
19122TIP3    H278858   2.555   2.343   5.535  2.8812  0.8883  1.8354
19123TIP3   OH278859   5.550   5.704   4.662  0.5977 -1.0104 -0.2118
19123TIP3    H178860   5.635   5.748   4.654  0.0113  0.2286  0.1089
19123TIP3    H278861   5.516   5.734   4.746 -1.2164  0.4930 -1.3935
19124TIP3   OH278862   5.044   0.335   4.092 -0.0757 -0.6699 -0.4823
19124TIP3    H178863   5.102   0.407   4.117 -1.0621 -0.2571  0.7306
19124TIP3    H278864   5.061   0.268   4.158 -0.1977 -0.9675 -0.7556
19125TIP3   OH278865   4.118   2.576   1.467  0.4827 -0.4936  0.1751
19125TIP3    H178866   4.093   2.484   1.453  2.3346 -0.7350 -1.9875
19125TIP3    H278867   4.050   2.627   1.423  0.3245 -0.8703 -0.0195
19126TIP3   OH278868   6.314   5.866  15.585 -0.2010 -0.0645  0.1103
19126TIP3    H178869   6.237   5.923  15.583  0.2276  0.4977 -0.8725
19126TIP3    H278870   6.316   5.826  15.498 -0.9223 -2.2056  1.0045
19127TIP3   OH278871   0.047   0.595  10.980 -0.7777  0.5414  0.0227
19127TIP3    H178872   0.026   0.520  11.035  0.8063  1.1187  1.5096
19127TIP3    H278873   0.011   0.670  11.026 -2.4544  0.7526 -1.5147
19128TIP3   OH278874   3.242   1.256   1.230 -0.1072 -0.0660 -0.1000
19128TIP3    H178875   3.272   1.187   1.171 -1.4538 -0.5328 -0.2572
19128TIP3    H278876   3.218   1.210   1.311  3.4230  0.7245  1.6002
19129TIP3   OH278877   5.353   4.475   5.301  0.2117  0.1746  0.1023
19129TIP3    H178878   5.295   4.521   5.241 -0.0149  0.8737  0.8440
19129TIP3    H278879   5.355   4.529   5.380  0.0915 -0.9739  0.9313
19130TIP3   OH278880   2.240   4.550  16.283 -0.5912  0.2284  0.3144
19130TIP3    H178881   2.213   4.474  16.335 -1.0686  0.4907  0.4552
19130TIP3    H278882   2.249   4.621  16.347  0.0930  0.2373  0.2190
19131TIP3   OH278883   4.025   3.967  13.139 -0.6962  0.3760 -0.2584
19131TIP3    H178884   4.092   3.988  13.074  0.7060 -2.4664  0.1056
19131TIP3    H278885   3.994   4.052  13.171  1.3963  1.8028 -1.7988
19132TIP3   OH278886   5.470   1.377  11.489 -0.1095 -0.0790  0.4072
19132TIP3    H178887   5.376   1.361  11.499 -0.5166  1.0617 -1.2012
19132TIP3    H278888   5.512   1.300  11.527 -1.7123 -0.8735  0.6270
19133TIP3   OH278889   5.810   4.395   4.732 -0.1316 -0.4361  0.1401
19133TIP3    H178890   5.850   4.377   4.818  1.8466  0.6658 -0.4738
19133TIP3    H278891   5.759   4.317   4.712  0.1981 -1.1428  1.8660
19134TIP3   OH278892   6.287   0.184   6.303  0.6250  0.3516 -0.6325
19134TIP3    H178893   6.284   0.260   6.246  0.4758  2.4369  1.9480
19134TIP3    H278894   6.216   0.198   6.366  0.2488 -2.2175 -0.3720
19135TIP3   OH278895   4.251   4.674   3.488  0.2210 -0.4080 -0.0273
19135TIP3    H178896   4.301   4.748   3.522  0.2705 -1.3939  2.2271
19135TIP3    H278897   4.189   4.713   3.427  1.3749  1.2653 -0.1952
19136TIP3   OH278898   0.061   1.445   2.789 -0.2387 -0.1693  0.2156
19136TIP3    H178899   0.048   1.480   2.877  1.5911  0.3320  0.3321
19136TIP3    H278900   0.090   1.520   2.737 -0.9950 -0.5279 -0.7621
19137TIP3   OH278901   0.207   6.822  11.936  0.1306  0.0877  0.1571
19137TIP3    H178902   0.116   6.831  11.965 -0.1446  0.7715 -0.8435
19137TIP3    H278903   0.237   6.740  11.975 -1.2392 -0.6621 -0.2852
19138TIP3   OH278904   2.423   3.773   3.969  0.0708 -0.1430  0.1152
19138TIP3    H178905   2.394   3.692   3.927  1.5833  0.4703 -2.2993
19138TIP3    H278906   2.407   3.841   3.904 -0.1035  1.3610  1.6568
19139TIP3   OH278907   3.756   0.640   5.036 -0.0799  0.6306 -0.7723
19139TIP3    H178908   3.779   0.551   5.063  2.1247  1.2247 -0.4516
19139TIP3    H278909   3.789   0.647   4.946  1.2030  1.5684 -0.2630
19140TIP3   OH278910   1.984   5.941   1.914 -0.3584  0.9114 -0.0888
19140TIP3    H178911   1.945   6.028   1.921 -2.0314  0.2903 -0.9283
19140TIP3    H278912   1.979   5.905   2.003  0.5975  1.7542  0.3197
19141TIP3   OH278913   6.694   0.712  14.732 -0.0994 -0.5657  0.2076
19141TIP3    H178914   6.708   0.730  14.640 -1.2946  1.7163  0.3932
19141TIP3    H278915   6.649   0.627  14.734 -0.2856 -0.5195 -1.3078
19142TIP3   OH278916   4.184   3.142  13.194 -0.7466  0.1595  0.5734
19142TIP3    H178917   4.094   3.166  13.173  0.0711  2.0777 -1.0211
19142TIP3    H278918   4.222   3.221  13.232  0.8685  0.1611 -0.9192
19143TIP3   OH278919   0.664   6.796  13.629 -0.5830 -0.3361 -0.1709
19143TIP3    H178920   0.718   6.812  13.551  0.1210 -3.4117 -0.4151
19143TIP3    H278921   0.603   6.870  13.631  2.0925  2.0926 -1.1894
19144TIP3   OH278922   3.490   1.297   2.659  0.4272 -0.3952 -0.8756
19144TIP3    H178923   3.565   1.355   2.668  0.3575 -0.5223  0.8096
19144TIP3    H278924   3.527   1.209   2.649  0.5385 -0.5971  1.0165
19145TIP3   OH278925   0.357   0.351   0.747  0.0646 -0.0380 -0.2378
19145TIP3    H178926   0.433   0.373   0.693 -0.1153  0.6533 -0.2112
19145TIP3    H278927   0.380   0.266   0.786  1.2451  0.5947  0.5250
19146TIP3   OH278928   3.267   3.711  16.782  0.1404  0.3321 -0.4272
19146TIP3    H178929   3.233   3.800  16.771  0.7441  0.5624 -0.4668
19146TIP3    H278930   3.197   3.655  16.752 -1.1429  0.7080  1.6534
19147TIP3   OH278931   1.824   1.507  13.629 -0.1597 -1.2200  0.2349
19147TIP3    H178932   1.783   1.433  13.585  0.4616 -0.9757 -0.7709
19147TIP3    H278933   1.771   1.583  13.604  1.3066 -0.7793 -1.7127
19148TIP3   OH278934   5.208   5.954   1.787  1.1597  0.5015  0.3019
19148TIP3    H178935   5.154   5.945   1.865  1.1933 -1.1273  0.1688
19148TIP3    H278936   5.283   6.006   1.816  1.2040 -0.1289  1.3834
19149TIP3   OH278937   3.127   4.263   3.521 -0.3349 -0.0642 -0.4365
19149TIP3    H178938   3.049   4.254   3.577  0.7651  2.1659  1.6664
19149TIP3    H278939   3.116   4.347   3.478  0.2701 -0.3772 -1.2235
19150TIP3   OH278940   5.207   2.635   3.177 -0.0911  0.3293  0.0159
19150TIP3    H178941   5.218   2.645   3.272  0.8195  0.9953 -0.1475
19150TIP3    H278942   5.257   2.556   3.156 -1.3585 -0.5779  0.2552
19151TIP3   OH278943   2.499   5.402   1.149  0.0219  0.0965 -0.1190
19151TIP3    H178944   2.517   5.493   1.125 -0.8161  0.1731 -0.4957
19151TIP3    H278945   2.584   5.367   1.175  0.2406  1.2018  0.7738
19152TIP3   OH278946   5.586   5.399   4.919  0.0140  0.2534 -0.2550
19152TIP3    H178947   5.677   5.399   4.891  0.1497  0.8368  0.1809
19152TIP3    H278948   5.585   5.450   5.000 -0.6924  0.2326 -0.2427
19153TIP3   OH278949   0.543   6.533  11.285 -0.5399  0.4239  0.7511
19153TIP3    H178950   0.491   6.499  11.213  1.5258  0.9929 -1.1360
19153TIP3    H278951   0.586   6.611  11.249  1.0508  0.3633  2.3831
19154TIP3   OH278952   4.438   0.334  11.778  0.2090 -0.0529 -0.0879
19154TIP3    H178953   4.369   0.398  11.765  0.2724 -0.2781 -1.7959
19154TIP3    H278954   4.511   0.366  11.725  0.2341 -1.5186 -0.9850
19155TIP3   OH278955   4.686   4.801   3.208  0.2350  0.2248 -0.3919
19155TIP3    H178956   4.611   4.831   3.260  0.3655 -0.2046  0.0514
19155TIP3    H278957   4.651   4.794   3.119 -0.6378 -1.2269  0.0230
19156TIP3   OH278958   2.120   4.692   5.310 -0.0998  0.1386  0.0012
19156TIP3    H178959   2.103   4.785   5.293  1.5068  0.2749 -1.0431
19156TIP3    H278960   2.196   4.692   5.369  2.8022 -0.4355 -3.3693
19157TIP3   OH278961   3.886   5.461  14.798 -0.0479 -0.3193  0.2391
19157TIP3    H178962   3.861   5.494  14.884  0.0008 -2.8583  1.3002
19157TIP3    H278963   3.821   5.393  14.779 -1.1057  1.2982 -2.5552
19158TIP3   OH278964   3.399   2.594   1.270  0.6915  0.1056 -0.3257
19158TIP3    H178965   3.475   2.543   1.299 -0.9408 -0.9742  2.4404
19158TIP3    H278966   3.362   2.542   1.198  2.0113  0.1993 -1.1164
19159TIP3   OH278967   4.689   4.753   4.756 -0.1556  0.4588 -0.3881
19159TIP3    H178968   4.716   4.662   4.747 -1.6073 -0.1500  1.0622
19159TIP3    H278969   4.690   4.770   4.850 -0.8648  1.6365 -0.5705
19160TIP3   OH278970   0.567   4.664   0.264 -0.2000 -0.3187  0.3478
19160TIP3    H178971   0.537   4.627   0.347  0.2085 -0.0486  0.6147
19160TIP3    H278972   0.633   4.602   0.233 -1.5814 -1.3708 -0.6563
19161TIP3   OH278973   3.002   4.203  11.606  0.2536  0.4586 -0.0746
19161TIP3    H178974   3.091   4.238  11.604  1.0491 -1.4446 -0.4550
19161TIP3    H278975   3.008   4.122  11.556 -1.9232  0.7549 -0.8946
19162TIP3   OH278976   0.432   3.930  11.135 -0.0377  0.4731 -0.7585
19162TIP3    H178977   0.506   3.892  11.182 -1.0593 -0.4755  0.1568
19162TIP3    H278978   0.355   3.891  11.176 -1.0183  0.2445 -2.6793
19163TIP3   OH278979   5.374   5.424  16.617  0.5386  0.3542 -0.2181
19163TIP3    H178980   5.394   5.419  16.711 -1.8237  1.8741  0.4630
19163TIP3    H278981   5.453   5.461  16.578  0.6977  2.1441  1.6190
19164TIP3   OH278982   3.624   0.069   3.091  0.5493 -0.5530  0.0101
19164TIP3    H178983   3.631  -0.026   3.099 -1.2490 -0.7010  0.1510
19164TIP3    H278984   3.659   0.089   3.004  0.6386 -1.3628 -0.1468
19165TIP3   OH278985   3.174   4.114   5.198 -0.1305 -0.6815  0.1143
19165TIP3    H178986   3.176   4.196   5.149  0.3851 -0.0790  1.1258
19165TIP3    H278987   3.086   4.109   5.234 -0.1076 -0.4800  0.1990
19166TIP3   OH278988   6.072   1.959  12.529 -0.7446  0.1011 -0.4423
19166TIP3    H178989   6.074   1.963  12.433  3.2226  0.0358 -0.5165
19166TIP3    H278990   6.075   1.865  12.549 -1.2945  0.1238 -0.2385
19167TIP3   OH278991   0.109   2.808  12.917  0.2522 -0.5363 -0.2965
19167TIP3    H178992   0.100   2.735  12.856  0.1722 -1.6552  0.9990
19167TIP3    H278993   0.052   2.784  12.991  0.2026  0.8580  0.1470
19168TIP3   OH278994   2.326   4.092  12.240  0.4908 -0.0264  0.2413
19168TIP3    H178995   2.384   4.167  12.234  0.3010  0.2169  1.3198
19168TIP3    H278996   2.301   4.087  12.332 -1.2558 -0.0724 -0.1947
19169TIP3   OH278997   5.503   0.580   2.432 -0.4576 -0.5872 -0.2850
19169TIP3    H178998   5.480   0.489   2.447 -0.4968 -0.5362 -0.0335
19169TIP3    H278999   5.421   0.628   2.441 -0.6657 -0.6566 -1.6019
19170TIP3   OH279000   1.364   2.517   4.890 -0.4082  0.1521  0.3269
19170TIP3    H179001   1.293   2.570   4.926 -0.4580 -0.4136  1.0957
19170TIP3    H279002   1.444   2.557   4.924 -0.4272 -0.0105  0.5679
19171TIP3   OH279003   5.890   2.756  13.428  0.0723  0.1061 -0.1367
19171TIP3    H179004   5.864   2.848  13.421  0.9397  0.3551 -0.1751
19171TIP3    H279005   5.907   2.743  13.522 -0.9627 -0.2766  0.0064
19172TIP3   OH279006   6.114   6.265  11.240  0.4098 -0.5574 -0.4836
19172TIP3    H179007   6.190   6.324  11.240 -0.8315  1.1106 -0.3679
19172TIP3    H279008   6.101   6.244  11.148  0.0246  0.5163 -0.6900
19173TIP3   OH279009   0.572   5.148   0.945  0.3082  0.3709 -0.0868
19173TIP3    H179010   0.603   5.075   0.998  1.6742  1.6822  1.0350
19173TIP3    H279011   0.648   5.207   0.940 -0.9068  1.9785 -0.4437
19174TIP3   OH279012   2.211   3.093  15.795  0.4899  0.1762  0.2383
19174TIP3    H179013   2.147   3.041  15.844 -0.7470 -0.4846 -1.9296
19174TIP3    H279014   2.280   3.030  15.773 -0.7790 -0.5582 -1.9780
19175TIP3   OH279015   2.131   1.587  11.308 -0.5940  0.1062 -0.2272
19175TIP3    H179016   2.202   1.647  11.286  0.0848 -0.6860 -0.2336
19175TIP3    H279017   2.058   1.615  11.253  0.0513  0.2389 -1.0235
19176TIP3   OH279018   6.698   4.278   3.597 -0.2256  0.9023 -0.3323
19176TIP3    H179019   6.697   4.333   3.675  0.3224 -2.2700  2.0799
19176TIP3    H279020   6.610   4.241   3.592 -0.2376  1.0184 -1.2367
19177TIP3   OH279021   1.556   0.083  13.461  0.1546  0.4043 -0.1260
19177TIP3    H179022   1.587   0.041  13.541  1.8644 -0.1433 -1.0197
19177TIP3    H279023   1.477   0.033  13.437  0.9991 -1.0122 -0.0694
19178TIP3   OH279024   6.646   0.102   3.833  0.0134 -0.5806  0.0349
19178TIP3    H179025   6.655   0.083   3.740 -0.5729 -0.0806 -0.1340
19178TIP3    H279026   6.674   0.193   3.842 -1.6633 -0.0269  0.0213
19179TIP3   OH279027   4.735   4.182   2.855 -0.1120 -0.2760 -0.4281
19179TIP3    H179028   4.751   4.247   2.923 -0.0946 -0.8062  0.0782
19179TIP3    H279029   4.821   4.142   2.840 -0.6271 -2.3151  1.4617
19180TIP3   OH279030   4.145   0.817   3.538  0.6133 -0.1667 -0.3225
19180TIP3    H179031   4.092   0.739   3.521  1.1264 -0.1132 -2.5196
19180TIP3    H279032   4.089   0.874   3.591 -0.3839 -1.3386 -0.0794
19181TIP3   OH279033   6.176   2.977  13.909 -0.7427 -0.3587  0.4346
19181TIP3    H179034   6.113   3.046  13.933 -1.2525 -0.3614 -0.8273
19181TIP3    H279035   6.127   2.895  13.919  0.1554 -0.6667  2.8913
19182TIP3   OH279036   3.906   5.725  16.041 -0.7348 -0.3698  0.4086
19182TIP3    H179037   3.964   5.801  16.042  0.3160 -1.0908 -1.0597
19182TIP3    H279038   3.851   5.736  16.118  1.4899  0.2571  2.0298
19183TIP3   OH279039   5.300   1.771  14.462  0.3187 -0.4119 -0.5657
19183TIP3    H179040   5.267   1.861  14.465  0.4256 -0.3446 -1.1525
19183TIP3    H279041   5.234   1.719  14.507 -0.3337 -0.2032 -1.2554
19184TIP3   OH279042   0.005   2.264  11.868 -0.2574 -0.3648 -0.5148
19184TIP3    H179043  -0.083   2.239  11.898  0.1238 -0.4130  0.6443
19184TIP3    H279044   0.035   2.190  11.817 -0.1832 -1.1795  0.6571
19185TIP3   OH279045   3.962   0.832  13.181 -0.0650 -0.2386  0.5552
19185TIP3    H179046   3.979   0.913  13.132 -0.8299  0.3522  1.2209
19185TIP3    H279047   4.044   0.783  13.177 -0.0201 -0.0925 -1.0790
19186TIP3   OH279048   4.671   3.808   3.681 -0.3773 -0.3052  0.4666
19186TIP3    H179049   4.664   3.792   3.587  1.8998  0.1814  0.1511
19186TIP3    H279050   4.685   3.721   3.719 -1.6537 -0.5462  0.4359
19187TIP3   OH279051   6.392   4.037   0.062  0.1120 -0.0472 -0.4271
19187TIP3    H179052   6.413   4.041   0.156 -1.7257  2.0277 -0.0187
19187TIP3    H279053   6.472   4.004   0.021  1.4449  0.3088  1.7101
19188TIP3   OH279054   1.310   1.192  11.775  0.3107 -0.1387  0.3437
19188TIP3    H179055   1.339   1.256  11.840  2.2085 -0.1013 -0.4769
19188TIP3    H279056   1.276   1.119  11.826 -0.8517  1.0417  1.3054
19189TIP3   OH279057   3.653   2.099  16.396  0.0225 -1.0490 -0.1444
19189TIP3    H179058   3.640   2.089  16.490 -0.4213 -0.4982 -0.1468
19189TIP3    H279059   3.675   2.010  16.366  0.2533 -1.2117  0.4836
19190TIP3   OH279060   0.492   3.621  10.674 -0.0468 -0.1051  0.2672
19190TIP3    H179061   0.527   3.539  10.709 -0.0474 -0.5896 -0.8373
19190TIP3    H279062   0.401   3.602  10.655 -0.1361  0.2603  0.3194
19191TIP3   OH279063   1.401   4.090   2.757  0.1187 -0.0289 -0.2387
19191TIP3    H179064   1.484   4.046   2.739 -0.8794 -3.1763  1.9909
19191TIP3    H279065   1.388   4.079   2.851 -2.9299  0.0870 -0.5584
19192TIP3   OH279066   0.525   3.324  12.248  0.4123  0.3061  0.6805
19192TIP3    H179067   0.579   3.348  12.323  0.1791 -0.7687  1.2025
19192TIP3    H279068   0.578   3.262  12.199  0.6566  1.1729 -0.1886
19193TIP3   OH279069   5.282   2.141  16.295 -0.0370 -0.2504 -0.6672
19193TIP3    H179070   5.291   2.234  16.318 -2.9190  0.2759 -1.2352
19193TIP3    H279071   5.319   2.094  16.369  0.4482  1.3553  0.1592
19194TIP3   OH279072   5.254   2.076   4.580  0.2794 -0.1333 -0.7335
19194TIP3    H179073   5.304   2.071   4.661 -0.3785  0.4474 -0.2818
19194TIP3    H279074   5.316   2.108   4.515  0.6275  0.0724 -0.2996
19195TIP3   OH279075   5.043   5.202  16.663  0.3075 -0.5876 -0.1855
19195TIP3    H179076   5.084   5.239  16.585  0.5218 -1.6317 -0.5965
19195TIP3    H279077   4.949   5.210  16.647  0.3123  1.1953  0.4544
19196TIP3   OH279078   4.077   4.734  13.613 -0.2263 -0.4538  0.3167
19196TIP3    H179079   4.078   4.662  13.677 -1.3253  0.2322  1.1651
19196TIP3    H279080   4.031   4.698  13.537 -0.9174 -0.6277  0.8006
19197TIP3   OH279081   0.062   6.218   1.788 -0.0103  0.2531  0.0616
19197TIP3    H179082   0.054   6.135   1.835 -1.2151  0.5421  0.3874
19197TIP3    H279083   0.154   6.221   1.760  0.1451 -0.9873  0.4058
19198TIP3   OH279084   0.351   4.485   2.574  0.0543 -0.2152 -0.0841
19198TIP3    H179085   0.432   4.435   2.577  0.3594  0.1543 -1.5123
19198TIP3    H279086   0.379   4.575   2.556 -0.6952 -0.2782 -1.7973
19199TIP3   OH279087   3.673   6.314  12.439  0.0224  0.0674  0.1940
19199TIP3    H179088   3.630   6.366  12.506  0.6435  0.0441  0.6124
19199TIP3    H279089   3.601   6.280  12.385 -0.4804  0.0504  0.8677
19200TIP3   OH279090   2.415   1.845  15.141  0.0497 -0.1555  0.4688
19200TIP3    H179091   2.382   1.841  15.051  0.6131  0.6744  0.2085
19200TIP3    H279092   2.404   1.756  15.175 -2.0244 -0.0457  0.2624
19201TIP3   OH279093   4.925   0.725   0.167 -0.0892  0.3015 -0.2425
19201TIP3    H179094   4.952   0.782   0.096  2.0598 -0.7974 -0.3991
19201TIP3    H279095   4.929   0.637   0.130 -2.5230 -0.0617  0.2182
19202TIP3   OH279096   0.749   0.317   0.854  0.3174 -0.0476  0.0084
19202TIP3    H179097   0.744   0.325   0.949 -1.4289  1.5417 -0.1539
19202TIP3    H279098   0.797   0.396   0.826  0.1233 -0.0941 -0.4710
19203TIP3   OH279099   5.058   6.212  17.112 -0.3957 -0.2298 -0.3373
19203TIP3    H179100   5.072   6.119  17.129 -2.1731 -0.5891 -0.6654
19203TIP3    H279101   5.049   6.219  17.017  0.1324  0.3524 -0.3542
19204TIP3   OH279102   6.185   1.713   4.159 -0.1256  0.4673 -0.3784
19204TIP3    H179103   6.280   1.705   4.170 -0.2381  0.9037  1.0723
19204TIP3    H279104   6.175   1.778   4.088  0.6500  0.2835 -0.6645
19205TIP3   OH279105   0.958   2.831   5.030 -0.4946  0.2009  0.0691
19205TIP3    H179106   0.928   2.769   5.097 -1.2051  0.7344  0.2638
19205TIP3    H279107   0.950   2.917   5.072 -0.7396  0.5241 -0.6188
19206TIP3   OH279108   0.408   0.209  15.383 -0.0116  0.1790  0.4893
19206TIP3    H179109   0.388   0.276  15.448  0.6221  0.7747  0.0851
19206TIP3    H279110   0.491   0.171  15.411  1.1896  1.6659 -0.8975
19207TIP3   OH279111   6.128   2.255   5.283 -0.2945 -0.2813 -0.0344
19207TIP3    H179112   6.221   2.246   5.303 -0.0467  2.5374  0.4928
19207TIP3    H279113   6.125   2.318   5.211 -1.7375 -1.9220 -1.4839
19208TIP3   OH279114   0.861   0.593   3.712  0.0074 -1.3323 -0.0740
19208TIP3    H179115   0.881   0.657   3.780 -0.8801 -0.5763 -0.5112
19208TIP3    H279116   0.945   0.553   3.691  0.9289  1.0196 -1.1385
19209TIP3   OH279117   0.105   6.413  12.729  0.4574  0.4670  0.2685
19209TIP3    H179118   0.188   6.452  12.703 -0.5520  0.0784 -4.3824
19209TIP3    H279119   0.040   6.480  12.708 -0.6689 -0.6624  0.0476
19210TIP3   OH279120   6.023   5.351   1.691 -0.0863 -0.3392  0.0343
19210TIP3    H179121   6.052   5.394   1.610  1.7595 -1.6588 -0.0920
19210TIP3    H279122   5.954   5.290   1.663  1.1348 -1.4176 -0.7593
19211TIP3   OH279123   5.850   1.794   0.957  0.3467  0.9083  0.0170
19211TIP3    H179124   5.854   1.847   1.037  1.3393  0.6808  0.1274
19211TIP3    H279125   5.797   1.718   0.981 -1.0263  1.7859 -0.1214
19212TIP3   OH279126   0.553   6.806   5.849  0.5844  0.1880  0.0300
19212TIP3    H179127   0.577   6.868   5.918 -0.0996  0.2156  0.2489
19212TIP3    H279128   0.503   6.738   5.894  1.4718 -0.6276 -0.1742
19213TIP3   OH279129   1.247   0.270  17.161 -0.6362  0.0807  0.0792
19213TIP3    H179130   1.280   0.195  17.211  1.3014 -0.1825 -1.4535
19213TIP3    H279131   1.154   0.274  17.182 -0.9766 -3.1933 -0.2781
19214TIP3   OH279132   3.337   0.703   6.847 -0.2159  0.1523  0.3526
19214TIP3    H179133   3.417   0.700   6.794 -1.0311  0.6313 -0.9593
19214TIP3    H279134   3.266   0.713   6.783 -1.2733  0.4699  1.5325
19215TIP3   OH279135   4.772   4.845  16.589  0.5125  0.0361  0.2378
19215TIP3    H179136   4.719   4.857  16.510  0.7042 -0.2464  0.0622
19215TIP3    H279137   4.857   4.882  16.567  0.7725 -0.6412  0.0730
19216TIP3   OH279138   0.982   4.579  11.453 -0.0626  0.0193 -0.3004
19216TIP3    H179139   1.058   4.525  11.434  0.2459  0.6702 -0.9681
19216TIP3    H279140   1.019   4.659  11.491 -0.4038  0.3465 -0.6431
19217TIP3   OH279141   3.632   4.586   3.760  0.7746  0.7826 -0.7728
19217TIP3    H179142   3.682   4.660   3.794  0.2703  1.2211 -0.9717
19217TIP3    H279143   3.566   4.569   3.827  0.2100  1.2111 -1.2120
19218TIP3   OH279144   3.143   3.382  14.239 -0.0215  0.2719  0.6787
19218TIP3    H179145   3.191   3.331  14.174  0.4046  0.2027  1.0458
19218TIP3    H279146   3.051   3.371  14.214  0.1984  2.1007 -1.2985
19219TIP3   OH279147   6.282   3.829  16.251 -0.3404  0.7380 -0.4963
19219TIP3    H179148   6.292   3.797  16.162 -2.2484 -1.2613 -0.0814
19219TIP3    H279149   6.327   3.764  16.305  0.6785  1.8545  0.0360
19220TIP3   OH279150   3.885   6.677  12.016  0.3427  0.0156  0.4126
19220TIP3    H179151   3.887   6.585  12.043 -0.6447 -0.0687  0.2385
19220TIP3    H279152   3.843   6.675  11.930 -2.5601  0.8925  1.6900
19221TIP3   OH279153   6.359   4.745  13.693  0.4408  0.9325  0.1540
19221TIP3    H179154   6.340   4.804  13.766 -0.3952  2.0655 -0.9342
19221TIP3    H279155   6.313   4.784  13.618 -1.0740 -1.7040 -0.3927
19222TIP3   OH279156   5.991   6.265  14.789  0.5860 -0.1277 -0.6838
19222TIP3    H179157   6.034   6.321  14.853  1.8623  0.1992 -1.7744
19222TIP3    H279158   5.990   6.178  14.828  0.8144  0.1799  0.0132
19223TIP3   OH279159   1.486   6.630   0.291  0.2496  0.2108 -0.1355
19223TIP3    H179160   1.534   6.547   0.298  0.0058 -0.3417 -3.3978
19223TIP3    H279161   1.419   6.625   0.359  0.1762 -2.3448 -0.3135
19224TIP3   OH279162   6.509   2.329  15.299 -0.5065 -0.0764  0.5502
19224TIP3    H179163   6.414   2.324  15.301 -0.5366  0.5121  0.6220
19224TIP3    H279164   6.529   2.420  15.318 -0.0219  0.4573 -2.1018
19225TIP3   OH279165   6.230   1.595  12.189 -0.0042 -0.1218  0.1450
19225TIP3    H179166   6.157   1.636  12.143 -0.7491  0.3483  1.6715
19225TIP3    H279167   6.220   1.501  12.172 -1.3147 -0.1223  0.7762
19226TIP3   OH279168   3.560   0.840   3.550  0.6865 -0.0764 -0.6430
19226TIP3    H179169   3.515   0.764   3.587 -0.0231 -0.2290 -1.7767
19226TIP3    H279170   3.522   0.851   3.463  0.0093  2.2330 -0.1250
19227TIP3   OH279171   2.547   0.376  14.717 -0.3748 -0.6511 -0.1358
19227TIP3    H179172   2.635   0.349  14.744 -0.9188 -0.2029  2.3066
19227TIP3    H279173   2.553   0.472  14.710  0.2726 -0.8163 -3.9112
19228TIP3   OH279174   0.260   3.501   1.170  0.2385 -0.0759  0.3103
19228TIP3    H179175   0.184   3.471   1.220 -0.6729 -0.4610 -1.2395
19228TIP3    H279176   0.313   3.547   1.234 -1.2870  0.1914  1.4540
19229TIP3   OH279177   5.026   2.523   1.031  0.0834  0.3589  0.3092
19229TIP3    H179178   5.099   2.510   1.091  0.1565 -1.5254 -0.1308
19229TIP3    H279179   4.978   2.440   1.033 -0.4346  0.5674 -1.5264
19230TIP3   OH279180   3.004   0.826   4.636  0.7840  0.5980  0.1296
19230TIP3    H179181   3.078   0.882   4.661  1.7054 -1.4061  2.2142
19230TIP3    H279182   2.988   0.772   4.713 -2.2654  0.2726 -0.6214
19231TIP3   OH279183   2.578   6.801  16.226  0.6914 -0.5164  0.2733
19231TIP3    H179184   2.636   6.731  16.257 -0.2005 -1.7696 -0.7979
19231TIP3    H279185   2.521   6.820  16.300  0.6791 -1.2174  0.4470
19232TIP3   OH279186   0.301   0.891  13.383 -0.4503 -0.5988 -0.4812
19232TIP3    H179187   0.296   0.796  13.394  0.6702 -0.4431  2.1878
19232TIP3    H279188   0.279   0.906  13.291 -1.2447 -3.3692 -0.8375
19233TIP3   OH279189   6.574   3.012  11.225 -0.0163 -0.1999  0.1721
19233TIP3    H179190   6.599   2.924  11.253 -0.7191 -0.3897  0.2167
19233TIP3    H279191   6.603   3.069  11.297 -1.0937 -0.5946  0.9426
19234TIP3   OH279192   4.834   1.567   3.599 -0.4949 -0.5014 -0.0752
19234TIP3    H179193   4.769   1.628   3.634 -0.3773 -0.3603 -0.1027
19234TIP3    H279194   4.855   1.601   3.512 -1.6851 -1.5240 -0.7961
19235TIP3   OH279195   6.628   6.250   1.619  0.1270  0.0771 -0.4081
19235TIP3    H179196   6.552   6.247   1.677  2.0996 -1.1224  2.3629
19235TIP3    H279197   6.621   6.170   1.566 -2.1169  1.5791 -2.5821
19236TIP3   OH279198   0.071   4.822  13.399 -0.0248  0.3397 -0.0460
19236TIP3    H179199   0.100   4.896  13.452 -0.2289  1.0633 -0.9286
19236TIP3    H279200  -0.017   4.803  13.430 -0.8380  1.9030 -1.2745
19237TIP3   OH279201   1.541   1.509  16.860 -0.0864 -0.5075  0.3691
19237TIP3    H179202   1.589   1.583  16.897 -1.0017 -0.6508  1.9509
19237TIP3    H279203   1.593   1.432  16.885  0.8728 -0.4365 -1.2857
19238TIP3   OH279204   6.365   6.723   1.899 -0.2598  0.4833  0.0083
19238TIP3    H179205   6.349   6.796   1.958 -2.7970  1.1706 -1.3803
19238TIP3    H279206   6.284   6.715   1.848  0.3873 -2.5236 -0.7384
19239TIP3   OH279207   2.753   3.906  11.709  0.0301 -0.5574 -0.3494
19239TIP3    H179208   2.674   3.886  11.659 -0.8587  1.7483  0.0142
19239TIP3    H279209   2.735   3.991  11.749  2.9477  0.3495 -0.7421
19240TIP3   OH279210   0.448   2.099   3.595 -0.0932  0.2473 -0.2798
19240TIP3    H179211   0.465   2.013   3.632 -2.3256  0.5132  1.5727
19240TIP3    H279212   0.426   2.081   3.503  1.1864 -0.9233 -0.3948
19241TIP3   OH279213   4.137   4.236   4.529 -0.1053  0.1621  0.0105
19241TIP3    H179214   4.175   4.320   4.504 -0.6375  0.8648  1.4576
19241TIP3    H279215   4.212   4.183   4.557  0.4325 -0.4398 -2.2948
19242TIP3   OH279216   1.153   1.354  14.174  0.1229 -0.3348 -0.3204
19242TIP3    H179217   1.147   1.315  14.261 -0.9958 -2.7404 -1.3827
19242TIP3    H279218   1.244   1.342  14.148 -0.4187 -3.6269 -1.1096
19243TIP3   OH279219   0.671   3.390   3.174 -0.1309  0.3008 -0.7021
19243TIP3    H179220   0.677   3.434   3.259 -0.1536 -1.1205  0.0690
19243TIP3    H279221   0.625   3.453   3.118 -0.9596  0.9041  0.5939
19244TIP3   OH279222   1.062   3.358   2.736 -0.0254 -0.3427  0.4982
19244TIP3    H179223   1.019   3.443   2.735 -0.3404 -0.5011  0.1397
19244TIP3    H279224   1.156   3.377   2.734 -0.0855  0.0024  0.9980
19245TIP3   OH279225   3.835   6.425   0.816  0.0908 -0.2706 -0.7550
19245TIP3    H179226   3.751   6.466   0.835 -0.1269 -0.1090 -1.9650
19245TIP3    H279227   3.813   6.337   0.786  0.3930 -0.4188 -0.5520
19246TIP3   OH279228   5.299   3.142   4.388  0.6730  0.4632 -0.4142
19246TIP3    H179229   5.261   3.220   4.346 -0.8668 -0.4177 -0.7265
19246TIP3    H279230   5.344   3.176   4.465 -0.3579  1.6249 -0.2993
19247TIP3   OH279231   2.429   5.431   5.376  0.2417 -0.0515  0.5418
19247TIP3    H179232   2.376   5.509   5.361 -0.5379 -0.7246 -0.3673
19247TIP3    H279233   2.464   5.408   5.289  0.3863 -0.7493  0.7746
19248TIP3   OH279234   4.192   5.178  13.416  0.2702  0.1671 -0.0620
19248TIP3    H179235   4.096   5.182  13.412  0.0975 -1.9968  0.4516
19248TIP3    H279236   4.216   5.129  13.337  0.9820  0.7713 -0.2285
19249TIP3   OH279237   1.972   4.648   3.871  0.2676 -0.2894 -0.7902
19249TIP3    H179238   1.907   4.684   3.811  1.0834  0.7502 -1.0793
19249TIP3    H279239   1.924   4.633   3.953 -0.1851  1.1250 -0.7832
19250TIP3   OH279240   0.726   1.372  14.783  0.0840  0.0075  0.1770
19250TIP3    H179241   0.799   1.389  14.843 -0.7337 -0.7428  1.4231
19250TIP3    H279242   0.688   1.290  14.815 -1.7428  0.7444  0.0051
19251TIP3   OH279243   6.027   0.239  12.519  0.2533  0.3332  0.0054
19251TIP3    H179244   6.008   0.316  12.573  2.6246  1.1126 -0.1529
19251TIP3    H279245   6.019   0.165  12.579  0.2425  0.9298  0.7579
19252TIP3   OH279246   5.972   5.014   1.816  0.1120 -0.0997  0.4864
19252TIP3    H179247   5.923   5.062   1.749  0.3983  0.9700  1.0227
19252TIP3    H279248   6.061   5.009   1.783  0.1543  0.0295  0.5798
19253TIP3   OH279249   4.760   0.862  13.182  0.0732  0.0174 -0.6334
19253TIP3    H179250   4.665   0.872  13.192  0.1670 -0.1697  0.6808
19253TIP3    H279251   4.770   0.786  13.125 -0.5583  1.1339 -2.2993
19254TIP3   OH279252   0.549   2.190   1.625 -0.0342  0.0444 -0.0039
19254TIP3    H179253   0.582   2.118   1.571 -2.9231  0.7328 -2.9886
19254TIP3    H279254   0.625   2.247   1.637  1.6392 -2.0604  0.0445
19255TIP3   OH279255   1.293   4.090   5.510  0.5044  0.3021 -0.3556
19255TIP3    H179256   1.332   4.040   5.582 -0.9659 -1.2967 -0.6069
19255TIP3    H279257   1.324   4.046   5.431 -1.0066 -0.4418 -0.5753
19256TIP3   OH279258   3.728   3.957  12.360 -0.0679  0.4093 -0.5791
19256TIP3    H179259   3.782   4.034  12.344  1.3399 -0.7793 -1.7917
19256TIP3    H279260   3.768   3.916  12.436 -1.4009  1.3177  0.6825
19257TIP3   OH279261   5.754   1.259  15.775 -0.0107 -0.0732 -0.4187
19257TIP3    H179262   5.678   1.317  15.773  0.5823  0.7345 -0.1181
19257TIP3    H279263   5.728   1.187  15.833 -0.4299  0.3645 -0.0627
19258TIP3   OH279264   0.994   4.299   0.949  0.3804 -0.3232 -0.1827
19258TIP3    H179265   0.940   4.244   1.006  0.0802 -0.2045 -0.3516
19258TIP3    H279266   0.946   4.381   0.942  0.1210 -0.5380 -1.0701
19259TIP3   OH279267   2.926   3.565  12.589  0.7120  0.0527  0.2925
19259TIP3    H179268   2.919   3.546  12.495  1.9314  0.7142  0.0535
19259TIP3    H279269   2.898   3.484  12.631 -2.5900  0.6191 -0.5488
19260TIP3   OH279270   5.721   4.391   1.755  0.1599 -0.4599  0.1110
19260TIP3    H179271   5.731   4.297   1.767  3.3045 -0.0224  2.2802
19260TIP3    H279272   5.668   4.420   1.829 -0.4372 -0.4607 -0.3119
19261TIP3   OH279273   3.012   3.053   4.911  0.2488 -0.2590 -0.2824
19261TIP3    H179274   3.039   3.137   4.948  1.6772 -0.9175  0.2560
19261TIP3    H279275   3.052   3.050   4.824  1.6257 -1.0363  0.3337
19262TIP3   OH279276   3.506   4.360  17.139 -0.0314  0.1722 -0.1950
19262TIP3    H179277   3.565   4.306  17.191  0.1969  1.1872  0.6343
19262TIP3    H279278   3.564   4.416  17.088 -0.1939  2.4012  1.9094
19263TIP3   OH279279   6.037   0.136  13.704  0.3030  0.5720 -0.4350
19263TIP3    H179280   5.947   0.115  13.678  0.4256 -0.6445  0.1001
19263TIP3    H279281   6.091   0.068  13.663  0.8117  0.3838  0.5204
19264TIP3   OH279282   2.370   6.208  16.349 -0.5408 -0.0936  0.2287
19264TIP3    H179283   2.313   6.284  16.355 -0.6382 -0.2605  3.0166
19264TIP3    H279284   2.326   6.150  16.287 -2.2034  0.7544  0.5485
19265TIP3   OH279285   1.751   6.611  16.406  0.2651 -0.0026  0.3850
19265TIP3    H179286   1.740   6.679  16.472  1.6833  0.1664  0.4928
19265TIP3    H279287   1.663   6.576  16.392 -0.1181  0.0999  2.2143
19266TIP3   OH279288   5.226   0.480  10.579 -0.0053 -0.2932 -0.3334
19266TIP3    H179289   5.199   0.440  10.496  0.0732 -3.4745  1.0474
19266TIP3    H279290   5.161   0.450  10.642  1.5603 -0.4005  1.2993
19267TIP3   OH279291   0.944   1.625   0.337  0.4431 -0.8093 -0.5020
19267TIP3    H179292   0.894   1.622   0.419  1.0393 -1.2599 -0.1458
19267TIP3    H279293   0.967   1.534   0.319 -0.1497 -0.7854 -1.4789
19268TIP3   OH279294   3.838   3.523  13.593  0.3226  0.3415 -0.5018
19268TIP3    H179295   3.903   3.556  13.532 -0.5477 -0.9326 -2.2009
19268TIP3    H279296   3.888   3.502  13.672  1.9533 -0.3811 -1.6673
19269TIP3   OH279297   5.372   5.335  14.123  0.0924 -0.3029 -0.6865
19269TIP3    H179298   5.341   5.344  14.213 -0.7691  0.8119 -1.0705
19269TIP3    H279299   5.304   5.284  14.079  0.9916 -1.7330 -0.5020
19270TIP3   OH279300   6.295   1.213   3.612 -0.3931 -0.2677 -0.1634
19270TIP3    H179301   6.294   1.267   3.532  0.9353 -0.3800 -0.2815
19270TIP3    H279302   6.278   1.275   3.683 -0.6097  0.0075 -0.4542
19271TIP3   OH279303   1.504   1.664  15.438 -0.0007  0.1882  0.3218
19271TIP3    H179304   1.536   1.668  15.528 -0.3785  2.0503  0.4197
19271TIP3    H279305   1.583   1.650  15.385  0.2725 -0.5206  0.9045
19272TIP3   OH279306   4.008   6.061  15.558  0.3730  0.1996  0.0897
19272TIP3    H179307   4.044   6.091  15.641 -0.9973  0.5361  0.5908
19272TIP3    H279308   4.085   6.043  15.504  1.2894  0.1194  1.3669
19273TIP3   OH279309   1.565   0.193  11.728 -0.3151 -0.2054 -0.1986
19273TIP3    H179310   1.564   0.203  11.823  0.9356  1.7802 -0.3189
19273TIP3    H279311   1.590   0.102  11.713 -1.2892 -0.7550  1.3521
19274TIP3   OH279312   4.590   4.842   0.428 -0.2489  0.2963  0.0422
19274TIP3    H179313   4.638   4.780   0.372 -1.1705  0.5654 -1.0864
19274TIP3    H279314   4.655   4.906   0.456  0.7698 -1.2556  1.3859
19275TIP3   OH279315   0.931   4.420   6.853 -0.2093 -0.1968 -0.1482
19275TIP3    H179316   0.896   4.507   6.835  0.2992 -0.1533 -0.9929
19275TIP3    H279317   0.886   4.363   6.792 -2.0925 -0.9257  1.7911
19276TIP3   OH279318   1.719   3.596  11.249  0.1344  0.2529  0.5181
19276TIP3    H179319   1.719   3.505  11.219  1.2550  0.4178 -0.0384
19276TIP3    H279320   1.785   3.639  11.195 -0.9148  1.5867  0.2439
19277TIP3   OH279321   2.983   4.931  11.729 -0.4561 -0.4951 -0.0849
19277TIP3    H179322   2.939   4.977  11.800  0.7237  0.3113  0.1620
19277TIP3    H279323   2.951   4.974  11.649  0.5395  0.7053  0.1379
19278TIP3   OH279324   6.205   0.360  12.829  1.1346 -0.0686  0.1923
19278TIP3    H179325   6.178   0.283  12.877  0.2462 -0.6527 -1.1825
19278TIP3    H279326   6.124   0.406  12.807  1.4769  0.0755 -0.8764
19279TIP3   OH279327   6.503   4.993  10.576 -0.4773  0.3981  0.2174
19279TIP3    H179328   6.427   4.936  10.568 -0.4212  0.3747 -0.1605
19279TIP3    H279329   6.476   5.060  10.638 -0.8525  0.4645 -0.0133
19280TIP3   OH279330   0.041   4.024   3.689 -0.0536  0.1229  0.2641
19280TIP3    H179331  -0.027   4.088   3.669 -0.2093  0.0283  0.4899
19280TIP3    H279332   0.013   3.982   3.771  0.1069 -0.1482  0.1844
19281TIP3   OH279333   2.399   2.061  12.103 -0.6782 -0.2348  0.5440
19281TIP3    H179334   2.333   2.086  12.167  0.0249 -0.1164  1.2511
19281TIP3    H279335   2.482   2.080  12.146 -0.1838  0.2685 -0.5752
19282TIP3   OH279336   6.695   0.902   1.334  0.1986  0.4516 -0.0313
19282TIP3    H179337   6.689   0.948   1.250  0.7671  0.1160 -0.2646
19282TIP3    H279338   6.610   0.858   1.343  0.6160 -0.6296 -1.1074
19283TIP3   OH279339   5.806   1.589   0.411  0.2979  0.5697 -0.2104
19283TIP3    H179340   5.728   1.551   0.372  0.1898 -0.0088  0.5419
19283TIP3    H279341   5.878   1.537   0.375  0.3028  0.8382 -0.5894
19284TIP3   OH279342   1.816   3.260  14.125 -0.5845  0.0470 -0.3681
19284TIP3    H179343   1.823   3.273  14.219  1.2836  0.1688 -0.4802
19284TIP3    H279344   1.788   3.345  14.091 -1.0125  0.0749  0.0456
19285TIP3   OH279345   2.585   2.442   4.610  0.3033 -0.2145  0.3666
19285TIP3    H179346   2.594   2.493   4.690 -0.1921 -0.7664  0.7803
19285TIP3    H279347   2.649   2.481   4.549  1.0450 -0.1176  1.1898
19286TIP3   OH279348   3.590   2.029  14.910  0.6211  0.1857 -0.3603
19286TIP3    H179349   3.534   2.095  14.950 -0.3817 -0.3853 -0.7855
19286TIP3    H279350   3.677   2.070  14.907  0.6867  0.3854  2.0652
19287TIP3   OH279351   1.957   0.290  16.634  0.4458 -0.4914  0.3116
19287TIP3    H179352   1.924   0.316  16.548 -1.2126 -1.4376  0.6144
19287TIP3    H279353   2.051   0.279  16.622  0.6705  1.9377 -0.7231
19288TIP3   OH279354   3.865   6.079  12.316  0.0319 -0.3101  0.0941
19288TIP3    H179355   3.798   6.026  12.272 -0.1837 -0.4819  0.6202
19288TIP3    H279356   3.832   6.169  12.309 -0.2423 -0.3896  0.3204
19289TIP3   OH279357   2.144   3.453  13.899 -0.2899  0.2188  0.4063
19289TIP3    H179358   2.226   3.409  13.880 -0.2204 -0.1192  1.4291
19289TIP3    H279359   2.077   3.402  13.853 -0.0661 -0.2364  0.5829
19290TIP3   OH279360   5.164   4.650   5.170 -0.0807 -0.0400  0.1814
19290TIP3    H179361   5.113   4.673   5.093 -0.1229  0.5340  0.3776
19290TIP3    H279362   5.110   4.585   5.216 -0.1864 -0.1658 -0.1218
19291TIP3   OH279363   0.149   3.284  16.252  0.0157 -0.4748  0.4178
19291TIP3    H179364   0.158   3.252  16.342 -0.2595  0.0009  0.6206
19291TIP3    H279365   0.054   3.291  16.239  0.0584 -0.4151  0.1381
19292TIP3   OH279366   1.395   4.633   4.172 -0.5389 -0.2621  0.1011
19292TIP3    H179367   1.391   4.541   4.147  0.1952 -1.1960  2.9941
19292TIP3    H279368   1.479   4.642   4.217 -0.4944  1.8972 -0.2899
19293TIP3   OH279369   6.113   5.946  11.076 -0.1002 -0.0121  0.1584
19293TIP3    H179370   6.140   5.994  10.998 -1.3964  2.9360  1.3603
19293TIP3    H279371   6.026   5.912  11.054 -0.5220  0.9292  0.3285
19294TIP3   OH279372   0.300   2.819   5.849 -0.1230 -0.5218 -0.0290
19294TIP3    H179373   0.393   2.805   5.868  0.3192  2.1336  0.1097
19294TIP3    H279374   0.288   2.784   5.761  1.0258 -0.7653 -0.1055
19295TIP3   OH279375   1.225   3.959  10.852  0.1521  0.3960  0.0028
19295TIP3    H179376   1.153   4.022  10.843  0.2961  0.3936 -1.3357
19295TIP3    H279377   1.236   3.949  10.947 -3.2652 -1.4954  0.3603
19296TIP3   OH279378   5.197   2.130   0.940  0.4275 -0.0192 -0.2426
19296TIP3    H179379   5.285   2.113   0.906  0.8740  1.8298 -0.1090
19296TIP3    H279380   5.210   2.142   1.034  0.1359  0.7783 -0.2960
19297TIP3   OH279381   4.696   3.577  14.173 -0.2817  0.0968 -0.1093
19297TIP3    H179382   4.741   3.565  14.089 -0.6539 -0.1690 -0.2807
19297TIP3    H279383   4.701   3.491  14.215 -0.9027 -0.0292 -0.2780
19298TIP3   OH279384   2.236   4.570  12.184 -0.3531  0.0598 -0.0797
19298TIP3    H179385   2.198   4.564  12.272  0.6814 -0.6696  0.3328
19298TIP3    H279386   2.318   4.520  12.189  0.6462  1.5082 -0.9489
19299TIP3   OH279387   1.476   5.457  11.047 -0.0133 -0.6159  0.0094
19299TIP3    H179388   1.424   5.412  11.114 -0.1114  0.5572  0.7487
19299TIP3    H279389   1.565   5.425  11.060 -0.6322 -3.5109 -1.9953
19300TIP3   OH279390   5.627   6.285   5.312 -0.1002 -0.0219 -0.0272
19300TIP3    H179391   5.626   6.262   5.405 -0.7936  1.7264  0.4472
19300TIP3    H279392   5.719   6.276   5.286  0.1229 -0.4063  0.8578
19301TIP3   OH279393   0.323   4.603   3.416 -0.1251  0.0624  0.0484
19301TIP3    H179394   0.244   4.580   3.466 -0.0003  2.0683  1.2470
19301TIP3    H279395   0.392   4.606   3.481  0.8091 -0.7899 -0.8632
19302TIP3   OH279396   3.297   5.811  15.184 -0.2869 -0.4561  0.6569
19302TIP3    H179397   3.261   5.737  15.234 -1.3212 -0.7268 -0.4577
19302TIP3    H279398   3.235   5.882  15.199  0.9354  0.3755  2.0931
19303TIP3   OH279399   0.273   2.757  15.110  0.1919  0.4849  0.1907
19303TIP3    H179400   0.262   2.735  15.202  1.1810 -0.4323  0.1054
19303TIP3    H279401   0.202   2.819  15.092 -0.5295  0.0354  1.3447
19304TIP3   OH279402   4.127   1.317   0.459 -0.5270 -0.3051  0.5748
19304TIP3    H179403   4.206   1.302   0.407  0.0336  0.2382  1.2597
19304TIP3    H279404   4.144   1.397   0.508 -0.9288 -0.9417  1.8092
19305TIP3   OH279405   2.217   5.306   1.613 -0.2564 -0.0823 -0.2414
19305TIP3    H179406   2.205   5.226   1.563  0.8423 -0.0156 -0.6314
19305TIP3    H279407   2.295   5.290   1.666 -0.0781  0.6997 -0.2613
19306TIP3   OH279408   6.418   3.339  12.529  0.7188 -0.0773 -0.0458
19306TIP3    H179409   6.385   3.251  12.515  0.8776  0.1374 -1.9634
19306TIP3    H279410   6.375   3.393  12.462  1.0865  1.1908  0.6901
19307TIP3   OH279411   2.877   2.326  15.798 -0.4795  0.2523 -0.8530
19307TIP3    H179412   2.830   2.408  15.811 -1.8561 -0.3153 -1.9601
19307TIP3    H279413   2.884   2.317  15.703 -0.5923 -1.0377 -0.7603
19308TIP3   OH279414   2.767   5.869  16.652  0.3349  0.2076 -0.1472
19308TIP3    H179415   2.728   5.952  16.679  1.6307  0.6962  0.2925
19308TIP3    H279416   2.849   5.894  16.608  0.2224 -0.7886 -0.9734
19309TIP3   OH279417   5.279   5.729  16.621 -0.2659  0.6397 -0.5942
19309TIP3    H179418   5.235   5.765  16.544  1.7999  2.0647 -1.1826
19309TIP3    H279419   5.267   5.634  16.613 -1.7931  0.8750 -1.5696
19310TIP3   OH279420   4.738   3.273  10.789 -0.2890 -0.4243  0.1994
19310TIP3    H179421   4.737   3.239  10.699 -0.0892 -0.3657  0.1751
19310TIP3    H279422   4.662   3.232  10.830 -1.7097  1.2850 -0.6356
19311TIP3   OH279423   2.030   0.969  12.616 -0.0946 -0.3323  0.0259
19311TIP3    H179424   1.967   1.011  12.557  0.3402  2.8825  1.6319
19311TIP3    H279425   1.981   0.956  12.697  0.2833 -1.4487  0.0863
19312TIP3   OH279426   5.357   1.013  15.654 -0.2465 -0.2740 -0.0657
19312TIP3    H179427   5.448   1.026  15.628 -0.0986 -1.0209  0.0432
19312TIP3    H279428   5.355   0.924  15.689 -0.8432  0.0316  0.7059
19313TIP3   OH279429   4.600   1.717  16.388  0.3251 -0.2783 -0.3455
19313TIP3    H179430   4.678   1.686  16.434  0.4396  0.9597  0.3287
19313TIP3    H279431   4.528   1.671  16.430  0.4473  0.6967  0.9837
19314TIP3   OH279432   0.228   5.004  17.004  0.1735  0.0714 -0.7929
19314TIP3    H179433   0.247   5.039  17.091 -0.0441  0.0809 -0.7482
19314TIP3    H279434   0.302   4.946  16.984  0.5528  0.5816 -0.8840
19315TIP3   OH279435   5.905   5.583  13.948 -0.3640  0.2979  0.1661
19315TIP3    H179436   5.973   5.650  13.938 -1.5099  1.5979  0.7555
19315TIP3    H279437   5.918   5.548  14.036 -0.8782  1.0349  0.5379
19316TIP3   OH279438   5.855   0.013  15.941  0.0339 -0.0339  0.1025
19316TIP3    H179439   5.915   0.041  16.010  2.7732 -3.5512 -0.5598
19316TIP3    H279440   5.912  -0.003  15.866 -2.4349  0.6399 -2.0175
19317TIP3   OH279441   4.407   5.405   2.130  0.2739  0.2599  0.1058
19317TIP3    H179442   4.497   5.394   2.098  0.8334  1.1309  1.3238
19317TIP3    H279443   4.378   5.316   2.148  1.2029  0.0211  0.5003
19318TIP3   OH279444   5.380   3.052   2.136 -0.1959 -0.5475  0.3594
19318TIP3    H179445   5.358   3.108   2.211  1.0532 -0.6796  0.8358
19318TIP3    H279446   5.444   2.990   2.170  1.0206 -0.0893 -1.0218
19319TIP3   OH279447   3.699   4.217  13.069 -0.3930 -0.4149 -0.0817
19319TIP3    H179448   3.738   4.199  13.154 -1.0422 -0.6646  0.1738
19319TIP3    H279449   3.769   4.201  13.006 -0.1383 -1.0230  0.3515
19320TIP3   OH279450   4.249   3.742   5.995  0.0798  0.3293 -0.6607
19320TIP3    H179451   4.243   3.795   6.075  0.4086 -0.4273 -0.1139
19320TIP3    H279452   4.235   3.652   6.026 -0.3888  0.0887 -1.5518
19321TIP3   OH279453   5.931   5.969  13.738 -0.6122 -0.2649 -0.2214
19321TIP3    H179454   5.870   6.029  13.694 -0.9906 -1.7289 -1.8352
19321TIP3    H279455   6.017   6.010  13.728 -1.1724  1.3654  1.2475
19322TIP3   OH279456   3.396   3.761  16.252 -0.3769  0.4263  0.3234
19322TIP3    H179457   3.316   3.811  16.236 -1.3896 -1.2023  0.0776
19322TIP3    H279458   3.466   3.825  16.247 -1.5697  1.7058 -0.5539
19323TIP3   OH279459   6.743   1.860   0.574  0.1439 -0.0477  0.4295
19323TIP3    H179460   6.658   1.867   0.530 -0.8985 -0.5666  2.2508
19323TIP3    H279461   6.798   1.925   0.530 -1.6000  1.3033  0.1097
19324TIP3   OH279462   3.966   2.090   2.453  0.1043  0.3565 -0.1949
19324TIP3    H179463   4.035   2.079   2.388  0.3082  2.2973 -0.3691
19324TIP3    H279464   3.885   2.089   2.403  0.0557 -0.8115 -0.1234
19325TIP3   OH279465   4.315   3.718  11.116 -0.1580 -0.0009 -0.3970
19325TIP3    H179466   4.407   3.698  11.133 -0.4176 -0.7411  0.1529
19325TIP3    H279467   4.287   3.768  11.192  0.0415  1.0839 -1.0120
19326TIP3   OH279468   1.589   5.446   0.996  0.0766 -0.0059 -0.1331
19326TIP3    H179469   1.616   5.505   0.926  1.1142 -1.0403 -0.6443
19326TIP3    H279470   1.663   5.447   1.057 -0.1437 -0.3236  0.1415
19327TIP3   OH279471   6.003   1.704   4.349 -0.1707 -0.7074  0.1752
19327TIP3    H179472   5.980   1.794   4.326  1.5171 -0.3217 -0.0888
19327TIP3    H279473   6.075   1.682   4.291  2.1263 -0.8062  2.8186
19328TIP3   OH279474   5.224   3.968  15.054 -0.0026  0.4680  0.2305
19328TIP3    H179475   5.158   3.953  14.986  0.2921  0.7032 -0.1144
19328TIP3    H279476   5.200   3.908  15.125 -0.4307  0.3637  0.0007
19329TIP3   OH279477   5.366   5.874  13.585  0.0447 -0.1251 -0.7118
19329TIP3    H179478   5.293   5.931  13.562  0.8126  0.8667 -0.7463
19329TIP3    H279479   5.345   5.843  13.674 -0.6366 -0.2383 -0.9039
19330TIP3   OH279480   6.010   4.431  12.413 -0.3888 -0.1185 -0.2600
19330TIP3    H179481   6.031   4.390  12.329 -1.9330 -2.0176  0.2356
19330TIP3    H279482   6.091   4.478  12.437  0.2799 -0.0169 -2.4819
19331TIP3   OH279483   4.978   4.722   4.958  0.5996  0.5707 -0.7451
19331TIP3    H179484   4.889   4.753   4.977 -0.8068 -0.3371 -4.6680
19331TIP3    H279485   4.970   4.626   4.959  1.5179  0.4844 -1.1345
19332TIP3   OH279486   2.541   0.513  11.332 -0.1041 -0.1245 -0.7888
19332TIP3    H179487   2.581   0.600  11.328 -0.0218 -0.1981 -1.7879
19332TIP3    H279488   2.612   0.453  11.310 -0.1111 -0.4663  0.1009
19333TIP3   OH279489   5.308   0.466  13.798  0.6187 -0.6466 -0.1238
19333TIP3    H179490   5.391   0.505  13.826 -0.2245 -0.3205  2.1435
19333TIP3    H279491   5.297   0.494  13.707  1.2933  2.3235  0.6094
19334TIP3   OH279492   3.923   0.686   5.888  0.9946  0.2436 -0.3618
19334TIP3    H179493   3.880   0.651   5.966  1.5299 -0.2383 -0.2757
19334TIP3    H279494   3.877   0.768   5.871  0.4364  0.0317  0.0710
19335TIP3   OH279495   5.772   0.272   2.934  0.4615 -0.1936  0.2379
19335TIP3    H179496   5.782   0.363   2.964  1.8075 -0.8093  1.8615
19335TIP3    H279497   5.793   0.220   3.011  0.3957 -1.9009 -0.8567
19336TIP3   OH279498   2.413   4.949   1.139 -0.1201  0.0229 -0.7514
19336TIP3    H179499   2.494   5.001   1.133  0.5892 -0.5992  2.0031
19336TIP3    H279500   2.354   5.004   1.192 -0.2097 -0.9488  0.1856
19337TIP3   OH279501   5.229   4.565  14.030 -0.5353  0.3944 -0.0843
19337TIP3    H179502   5.146   4.575  13.984 -1.0067  0.8270  0.8353
19337TIP3    H279503   5.207   4.579  14.122  0.2208 -1.2581  0.3913
19338TIP3   OH279504   1.817   3.974  14.294  0.0326  0.5079 -0.3901
19338TIP3    H179505   1.807   4.060  14.333  0.3923  0.3649  0.0293
19338TIP3    H279506   1.738   3.926  14.321  0.7942  0.0434  1.1511
19339TIP3   OH279507   6.831   5.010  15.772  0.3702 -0.6898 -0.3646
19339TIP3    H179508   6.812   5.058  15.853  1.0076 -1.4534  0.2524
19339TIP3    H279509   6.846   5.078  15.707 -4.7097  0.1034 -1.0943
19340TIP3   OH279510   0.307   6.039   3.894 -0.1393 -0.5727 -0.0323
19340TIP3    H179511   0.243   5.968   3.905 -0.1826 -0.2941  1.8397
19340TIP3    H279512   0.385   6.008   3.941 -0.2010  0.6387  0.8986
19341TIP3   OH279513   1.253   0.046   9.991 -0.7533  0.7367  0.3659
19341TIP3    H179514   1.344   0.024  10.007 -1.3965 -1.5452  1.2180
19341TIP3    H279515   1.255   0.095   9.908  1.1777  0.3451  0.1316
19342TIP3   OH279516   1.423   3.990   3.598 -0.1415  0.1883 -0.1079
19342TIP3    H179517   1.357   4.057   3.613 -0.0068  0.2329  0.3067
19342TIP3    H279518   1.494   4.036   3.552 -1.6676 -0.5229 -3.4610
19343TIP3   OH279519   0.890   1.084  13.976 -0.5149  0.3091 -0.4076
19343TIP3    H179520   0.972   1.131  13.969 -0.8469  0.9214 -0.2799
19343TIP3    H279521   0.861   1.098  14.067  0.4365 -1.9500  0.3218
19344TIP3   OH279522   5.412   2.144   5.172  0.2455  0.6869 -0.1457
19344TIP3    H179523   5.336   2.128   5.228  0.3837  0.0432 -0.1386
19344TIP3    H279524   5.485   2.106   5.219  0.2043 -0.8558 -1.2383
19345TIP3   OH279525   5.288   3.339  17.081 -0.4673 -0.0285 -0.0856
19345TIP3    H179526   5.208   3.349  17.133 -0.5023 -0.0270 -0.1391
19345TIP3    H279527   5.271   3.389  17.001  0.3390  1.6071  0.7207
19346TIP3   OH279528   1.651   1.736  11.012  0.1344 -0.4479 -0.2993
19346TIP3    H179529   1.632   1.666  11.075  0.2204 -0.9849 -0.8682
19346TIP3    H279530   1.724   1.784  11.052  0.6850 -1.2405 -0.3342
19347TIP3   OH279531   5.068   5.409   4.987 -0.5288 -0.4414 -0.4810
19347TIP3    H179532   5.122   5.352   4.933  0.4790 -0.2962  0.3413
19347TIP3    H279533   5.099   5.497   4.967  0.1618 -0.4108  0.6301
19348TIP3   OH279534   0.194   2.238  16.091  0.4276 -0.1071  0.3039
19348TIP3    H179535   0.167   2.330  16.089  1.0934  0.3269  4.1954
19348TIP3    H279536   0.286   2.240  16.117  1.1170 -1.9187 -1.6551
19349TIP3   OH279537   3.113   5.656   3.520 -0.3313 -0.4894 -0.0833
19349TIP3    H179538   3.019   5.656   3.532 -0.3951 -0.6319 -0.5569
19349TIP3    H279539   3.127   5.704   3.438  0.0277 -0.2068  0.1388
19350TIP3   OH279540   2.061   6.208   1.463 -0.1757 -0.5136 -0.3844
19350TIP3    H179541   2.036   6.271   1.531  1.7689 -1.0642  0.9204
19350TIP3    H279542   2.042   6.253   1.380  2.6288  2.5435  0.4230
19351TIP3   OH279543   5.004   5.291   0.977 -0.6633  0.0865 -0.0697
19351TIP3    H179544   4.999   5.196   0.962  0.0038  0.2408 -1.4195
19351TIP3    H279545   5.047   5.325   0.898  0.7470  1.3049  1.1666
19352TIP3   OH279546   6.418   4.922   4.021 -0.0194  0.4183 -0.2455
19352TIP3    H179547   6.336   4.971   4.011 -0.9969 -1.3347 -1.3035
19352TIP3    H279548   6.405   4.868   4.098 -0.5096 -0.9971 -1.2850
19353TIP3   OH279549   0.807   2.056  14.107  0.1395 -0.8504  0.5830
19353TIP3    H179550   0.777   2.121  14.043 -1.4948 -1.0433  1.0911
19353TIP3    H279551   0.896   2.035  14.080 -0.1936 -0.2832 -1.1154
19354TIP3   OH279552   4.792   3.515   4.787 -0.4353  0.8156  0.1310
19354TIP3    H179553   4.736   3.457   4.735  0.5264 -1.7454  1.7766
19354TIP3    H279554   4.859   3.544   4.726 -0.4474 -0.5353 -0.5715
19355TIP3   OH279555   5.789   0.209  11.368 -0.0157  0.1096  0.0785
19355TIP3    H179556   5.717   0.244  11.315 -0.0363  1.1023  0.7319
19355TIP3    H279557   5.831   0.286  11.406 -0.2615 -0.5635  1.8228
19356TIP3   OH279558   6.008   4.716  14.488 -0.2884  0.5211 -0.1816
19356TIP3    H179559   6.085   4.659  14.482 -0.8465 -0.1847 -0.9856
19356TIP3    H279560   5.971   4.697  14.575 -0.3978 -0.2752 -0.3939
19357TIP3   OH279561   3.618   4.798  14.136  0.6518 -0.3535 -0.1558
19357TIP3    H179562   3.698   4.817  14.187  0.6028 -0.6436  0.0315
19357TIP3    H279563   3.642   4.819  14.046  1.2379 -1.3184 -0.2326
19358TIP3   OH279564   1.346   4.247  11.019  0.6752 -0.3288 -0.1727
19358TIP3    H179565   1.264   4.198  11.017 -0.8229  2.0518 -0.0392
19358TIP3    H279566   1.362   4.270  10.927  0.6225  0.0817 -0.0820
19359TIP3   OH279567   0.656   1.722  13.273  0.4932  0.1467 -0.1157
19359TIP3    H179568   0.743   1.722  13.233 -0.3352 -0.0021 -2.0388
19359TIP3    H279569   0.638   1.814  13.293  0.7495  0.2834 -0.5169
19360TIP3   OH279570   5.069   6.045   2.505  1.0324  0.3997  0.4728
19360TIP3    H179571   4.978   6.070   2.488  0.7491  0.3260  1.7321
19360TIP3    H279572   5.121   6.101   2.448  0.3273  2.5391  1.8284
19361TIP3   OH279573   0.582   0.649   0.898  0.4905  0.4057 -0.3095
19361TIP3    H179574   0.664   0.604   0.879  1.2955  2.4207 -1.9846
19361TIP3    H279575   0.561   0.696   0.817 -1.3494  1.3986  0.6801
19362TIP3   OH279576   0.688   2.456  15.308  0.3301 -0.1521  0.8119
19362TIP3    H179577   0.691   2.532  15.366  2.3127 -0.1178  0.7350
19362TIP3    H279578   0.639   2.487  15.231  0.6048  0.8574  1.0244
19363TIP3   OH279579   0.584   5.185  14.180 -0.3201  0.1887  0.4477
19363TIP3    H179580   0.543   5.230  14.107 -1.0961  0.3251  0.9559
19363TIP3    H279581   0.582   5.093  14.156 -3.7798 -0.2125  1.7428
19364TIP3   OH279582   4.279   4.647   2.092 -0.2239 -0.4212  0.1809
19364TIP3    H179583   4.322   4.572   2.050 -0.6801  0.5541 -2.2125
19364TIP3    H279584   4.352   4.704   2.118  0.0891 -1.2698  1.2349
19365TIP3   OH279585   6.511   5.837   0.525 -0.6845 -0.3334  0.7715
19365TIP3    H179586   6.430   5.786   0.538 -1.0998  0.1530  0.1478
19365TIP3    H279587   6.573   5.773   0.490 -0.8639 -0.6610  1.0347
19366TIP3   OH279588   5.893   4.520  11.962  0.2140 -0.3526  0.3047
19366TIP3    H179589   5.929   4.606  11.984 -0.7731  0.5516 -1.4049
19366TIP3    H279590   5.945   4.459  12.013  0.7469  1.2632  1.8299
19367TIP3   OH279591   0.585   3.947   6.254 -0.4229  0.2920  0.2065
19367TIP3    H179592   0.583   4.000   6.334  0.2403  0.0869  0.3702
19367TIP3    H279593   0.501   3.964   6.211 -1.2190 -0.3394  1.4322
19368TIP3   OH279594   4.544   2.186  16.764 -0.0572  0.1040 -0.0518
19368TIP3    H179595   4.610   2.135  16.810 -1.2602 -1.3279  0.1788
19368TIP3    H279596   4.559   2.166  16.671 -0.5585 -0.7696  0.0393
19369TIP3   OH279597   0.231   0.310   3.969 -0.5386 -0.3660 -0.1184
19369TIP3    H179598   0.202   0.286   3.881 -1.1386  0.8781 -0.2894
19369TIP3    H279599   0.207   0.236   4.024 -0.1268 -1.1697 -0.9988
19370TIP3   OH279600   5.332   4.435  14.302  0.4889 -0.1751  0.3173
19370TIP3    H179601   5.371   4.410  14.218  1.2929 -2.2901  1.2525
19370TIP3    H279602   5.239   4.415  14.292  0.2488  1.2795 -0.6365
19371TIP3   OH279603   2.802   1.883  16.436 -0.1865 -0.2375  0.8512
19371TIP3    H179604   2.773   1.967  16.399  0.4445 -0.0389  0.7858
19371TIP3    H279605   2.853   1.908  16.513  3.2765 -0.2663 -1.2355
19372TIP3   OH279606   4.117   2.981   2.326  0.7307  0.4651  0.1881
19372TIP3    H179607   4.064   2.902   2.328  1.2454  0.0519 -1.1620
19372TIP3    H279608   4.088   3.028   2.247  0.6988  1.4256  0.7573
19373TIP3   OH279609   0.758   1.337  11.086 -0.2087  0.1115 -0.3043
19373TIP3    H179610   0.712   1.349  11.003  0.1481  1.8324 -0.2785
19373TIP3    H279611   0.737   1.247  11.112 -2.7853  0.5274 -0.7381
19374TIP3   OH279612   0.854   1.656  13.968  0.3374 -0.5557  0.1076
19374TIP3    H179613   0.905   1.576  13.959 -0.7971 -1.5232  1.7567
19374TIP3    H279614   0.869   1.686  14.057  0.9127  1.2430 -0.5336
19375TIP3   OH279615   0.438   6.416  15.541 -0.8992  0.0995 -0.4563
19375TIP3    H179616   0.457   6.447  15.629 -2.0362  0.6316 -0.3732
19375TIP3    H279617   0.346   6.390  15.545 -1.3203  1.2593 -1.7725
19376TIP3   OH279618   1.375   2.408   3.246 -0.0604 -0.3204  0.4139
19376TIP3    H179619   1.424   2.339   3.201  0.0195 -0.6181  0.9545
19376TIP3    H279620   1.425   2.426   3.325  0.4568  1.0651 -0.1941
19377TIP3   OH279621   6.236   4.934  16.696  0.2979  0.0534  0.3553
19377TIP3    H179622   6.169   4.983  16.649 -0.4527 -2.3120 -1.1945
19377TIP3    H279623   6.311   4.932  16.636  0.6095 -0.0426  0.7404
19378TIP3   OH279624   5.597   0.725  11.653  0.2052  0.0968 -0.2301
19378TIP3    H179625   5.601   0.774  11.571 -2.0960  0.4670 -0.1745
19378TIP3    H279626   5.587   0.634  11.626 -2.4578  0.3935 -0.4559
19379TIP3   OH279627   0.545   4.439  15.930  0.2234 -0.0151 -0.0497
19379TIP3    H179628   0.467   4.407  15.975 -0.2135 -1.6896 -1.8516
19379TIP3    H279629   0.523   4.529  15.905 -2.3300 -1.2780 -2.9046
19380TIP3   OH279630   3.325   4.425  14.242  0.2393 -0.4180 -0.4809
19380TIP3    H179631   3.310   4.438  14.149  0.9837 -0.7712 -0.6600
19380TIP3    H279632   3.252   4.370  14.271 -2.1180  2.7147 -0.0156
19381TIP3   OH279633   3.149   6.074   1.011  0.7908  0.1063 -0.3702
19381TIP3    H179634   3.214   6.137   0.978 -0.6267  1.0906 -1.3721
19381TIP3    H279635   3.098   6.050   0.934  1.2463 -2.2829 -0.0025
19382TIP3   OH279636   4.481   1.264  10.913  0.3019 -0.3031 -0.0666
19382TIP3    H179637   4.535   1.203  10.863 -0.5781 -1.3723  0.2497
19382TIP3    H279638   4.497   1.240  11.005 -1.7794 -1.6566  0.0117
19383TIP3   OH279639   6.408   0.907  13.390 -0.1155  0.0698  0.4424
19383TIP3    H179640   6.401   0.932  13.483 -1.3918  1.1429  0.0957
19383TIP3    H279641   6.326   0.861  13.372 -0.2791  0.6527 -0.3565
19384TIP3   OH279642   0.533   0.959   6.319  0.3131  0.2379  0.5213
19384TIP3    H179643   0.439   0.980   6.323  0.2642 -0.0642  0.9776
19384TIP3    H279644   0.577   1.043   6.331  0.0998  0.5069 -0.4716
19385TIP3   OH279645   3.673   2.517   0.543 -0.4024  0.6272 -0.1236
19385TIP3    H179646   3.662   2.423   0.527  1.0108  0.3066  0.6247
19385TIP3    H279647   3.747   2.523   0.603 -0.1106  2.2618 -0.5852
19386TIP3   OH279648   4.731   6.205   3.188 -0.4591 -0.0753  0.5650
19386TIP3    H179649   4.686   6.284   3.219 -2.6365 -0.5049 -1.2418
19386TIP3    H279650   4.822   6.233   3.175 -0.6738  1.5031  2.0657
19387TIP3   OH279651   0.849   1.999   4.442 -0.2112  0.1541  0.0147
19387TIP3    H179652   0.817   1.937   4.508 -0.5334  1.0241  0.6989
19387TIP3    H279653   0.943   2.004   4.458  0.4399 -2.5538 -2.1217
19388TIP3   OH279654   5.990   1.050   2.809  0.4167 -0.5492  0.0928
19388TIP3    H179655   5.935   1.127   2.797 -1.7173 -1.8456  0.9171
19388TIP3    H279656   6.074   1.084   2.840 -0.9066  1.3704  1.7893
19389TIP3   OH279657   0.904   2.851  12.008  0.6550  0.4232 -0.5062
19389TIP3    H179658   0.976   2.842  11.946  0.1719 -1.2296 -0.8726
19389TIP3    H279659   0.912   2.940  12.041  0.8195  1.4550 -3.0887
19390TIP3   OH279660   4.453   0.088   6.383  0.5803  0.5421  0.2096
19390TIP3    H179661   4.429   0.024   6.450  2.2560  0.0918  0.4310
19390TIP3    H279662   4.386   0.156   6.389 -0.5566 -0.5982  0.7962
19391TIP3   OH279663   1.956   5.160   5.429  0.6316 -0.3324 -0.0486
19391TIP3    H179664   1.997   5.244   5.408 -1.0073  0.4561 -0.3172
19391TIP3    H279665   1.971   5.106   5.351  0.5246  0.2035 -0.4538
19392TIP3   OH279666   0.993   0.574   1.403 -0.2781 -0.3570 -0.4861
19392TIP3    H179667   0.906   0.611   1.390 -1.0658 -1.3634  1.4394
19392TIP3    H279668   1.031   0.626   1.473 -0.1062 -1.0947 -0.0158
19393TIP3   OH279669   2.410   1.464   0.339 -0.0341 -0.0197  0.8782
19393TIP3    H179670   2.482   1.432   0.285 -1.9239 -1.7636 -0.7794
19393TIP3    H279671   2.444   1.463   0.428  2.2065 -0.0312  0.0802
19394TIP3   OH279672   3.118   1.655   3.378 -0.1678  0.7768  0.1804
19394TIP3    H179673   3.144   1.693   3.461  2.3348 -0.7151  0.1577
19394TIP3    H279674   3.177   1.694   3.313  0.1108 -0.4915 -0.3640
19395TIP3   OH279675   5.101   6.111  16.512  0.1920  0.3198  0.1301
19395TIP3    H179676   5.044   6.086  16.585  1.4209  0.7455  1.2813
19395TIP3    H279677   5.065   6.194  16.481 -0.2796  0.1889  0.3151
19396TIP3   OH279678   4.013   2.547   5.478 -0.2773  0.2781  0.3450
19396TIP3    H179679   4.092   2.554   5.425 -0.2574  0.3313  0.3819
19396TIP3    H279680   4.040   2.496   5.555 -0.4152 -0.1904  0.0904
19397TIP3   OH279681   1.681   2.798   3.359 -0.7708 -0.1533 -0.2695
19397TIP3    H179682   1.684   2.822   3.267 -2.1718 -0.1137 -0.3320
19397TIP3    H279683   1.619   2.859   3.398 -0.3727 -0.3194  0.6521
19398TIP3   OH279684   0.953   5.042  12.756  0.2065 -0.4660  0.1711
19398TIP3    H179685   0.990   4.964  12.797  2.0633  0.1506 -0.2064
19398TIP3    H279686   0.951   5.022  12.663 -1.6370 -0.9404  0.2867
19399TIP3   OH279687   1.577   5.361   4.212  0.0038 -0.2736 -0.4090
19399TIP3    H179688   1.642   5.431   4.213 -1.9121  1.6062  0.5743
19399TIP3    H279689   1.577   5.327   4.302 -0.6429  0.0314 -0.2880
19400TIP3   OH279690   1.893   0.556  17.022 -0.2164 -0.3135 -0.3461
19400TIP3    H179691   1.807   0.560  17.064  0.5766  0.3209  1.3155
19400TIP3    H279692   1.917   0.463  17.024  0.0781 -0.2270  1.2517
19401TIP3   OH279693   2.936   2.952  15.307  0.1658  0.3410  0.1964
19401TIP3    H179694   2.855   2.919  15.346 -0.2550  1.0831 -0.0435
19401TIP3    H279695   2.975   3.006  15.376  2.0750 -2.4567  1.5062
19402TIP3   OH279696   4.920   4.968  15.129  0.4352  0.0590 -0.3900
19402TIP3    H179697   4.901   4.882  15.090  1.8161  0.2970 -1.6704
19402TIP3    H279698   5.015   4.973  15.130  0.4121  0.9132  1.2481
19403TIP3   OH279699   4.333   1.240   2.692  0.5507  0.4685 -0.0258
19403TIP3    H179700   4.396   1.289   2.638 -1.2799  1.3197 -1.4968
19403TIP3    H279701   4.289   1.307   2.744 -0.4027  0.1534 -0.3927
19404TIP3   OH279702   4.273   3.031  16.599 -0.0641 -0.3528 -0.2694
19404TIP3    H179703   4.279   3.030  16.503  1.7199  0.8206 -0.2260
19404TIP3    H279704   4.364   3.029  16.628 -0.4979  1.0497  1.3420
19405TIP3   OH279705   6.012   1.994   2.177 -0.0422  0.5978  0.3495
19405TIP3    H179706   5.991   2.083   2.147 -0.8286 -0.1783 -1.5643
19405TIP3    H279707   5.939   1.941   2.145  0.6135 -0.8065  1.1216
19406TIP3   OH279708   3.383   3.036   5.485  0.1508  0.9218 -0.1007
19406TIP3    H179709   3.424   3.038   5.571 -0.0981 -1.6280  0.1575
19406TIP3    H279710   3.456   3.042   5.423  0.8058 -1.4861  0.3471
19407TIP3   OH279711   6.678   4.877   0.939  0.1921  0.4886 -0.5864
19407TIP3    H179712   6.716   4.789   0.951  0.8050  0.7599 -0.4802
19407TIP3    H279713   6.647   4.901   1.026 -3.8828 -1.3260 -1.3271
19408TIP3   OH279714   0.139   2.276   4.617 -0.2385 -0.0869  0.6957
19408TIP3    H179715   0.114   2.342   4.681  1.1216 -0.1725  1.3411
19408TIP3    H279716   0.229   2.298   4.592  0.1277 -1.4813  0.6804
19409TIP3   OH279717   1.574   0.385  10.465  0.3498  0.0633  0.0781
19409TIP3    H179718   1.574   0.423  10.377 -0.5131  1.1987  0.5394
19409TIP3    H279719   1.562   0.291  10.451 -1.4862  0.4114 -0.9643
19410TIP3   OH279720   1.493   0.994  14.197 -0.4001 -0.5386  0.0146
19410TIP3    H179721   1.492   0.971  14.104 -1.0505  1.3417 -0.4952
19410TIP3    H279722   1.408   0.965  14.230 -1.5730  1.6843 -0.8236
19411TIP3   OH279723   0.242   3.077   0.664  0.0469  0.1677  0.2387
19411TIP3    H179724   0.228   3.079   0.569  0.4720 -0.6758  0.1468
19411TIP3    H279725   0.212   2.990   0.690  2.8490 -0.8800  0.3633
19412TIP3   OH279726   6.444   4.604  13.174  0.2983 -0.1552 -0.3473
19412TIP3    H179727   6.500   4.626  13.099  0.7749 -0.0561  0.0284
19412TIP3    H279728   6.401   4.686  13.197  1.3526  0.1922  0.4619
19413TIP3   OH279729   4.364   5.949   2.144  0.0408  0.5457 -0.1516
19413TIP3    H179730   4.311   5.985   2.215 -0.6718  2.8491 -1.7526
19413TIP3    H279731   4.359   6.014   2.075  2.2967 -0.7277 -1.6237
19414TIP3   OH279732   0.813   4.870  11.270 -0.1145 -0.9175  0.3124
19414TIP3    H179733   0.857   4.791  11.239 -3.7413 -3.2283  0.4432
19414TIP3    H279734   0.761   4.899  11.195  1.2310  1.5374  0.2279
19415TIP3   OH279735   6.768   2.260   5.835  0.2657 -0.0297 -0.3772
19415TIP3    H179736   6.764   2.190   5.770  0.3273  0.1537 -0.5820
19415TIP3    H279737   6.772   2.215   5.919 -1.7119 -0.2730 -0.3793
19416TIP3   OH279738   3.883   2.028   0.106  0.0595  0.4841  0.4307
19416TIP3    H179739   3.897   2.077   0.187 -0.5238 -1.5573  1.8624
19416TIP3    H279740   3.818   1.961   0.130 -1.8517  1.1995 -2.3433
19417TIP3   OH279741   0.598   2.618   5.403  0.0699 -0.1097 -0.1816
19417TIP3    H179742   0.547   2.652   5.330 -3.1142 -0.1101  1.8312
19417TIP3    H279743   0.558   2.534   5.424  2.6190 -1.3849 -0.0144
19418TIP3   OH279744   2.352   3.195  16.135  0.4307 -0.1237 -0.6490
19418TIP3    H179745   2.299   3.227  16.062 -2.2165 -0.6196  0.9015
19418TIP3    H279746   2.415   3.264  16.151 -0.9170  1.3707 -1.4936
19419TIP3   OH279747   0.109   6.244  14.317  0.1211 -0.1996 -0.0955
19419TIP3    H179748   0.109   6.340  14.327 -0.9402 -0.1369 -0.5734
19419TIP3    H279749   0.186   6.226  14.264  2.2601  0.0516  2.6470
19420TIP3   OH279750   2.073   2.994   0.094 -0.9671  0.0099  0.1157
19420TIP3    H179751   2.029   3.011   0.177  0.6027 -1.2373  1.2742
19420TIP3    H279752   2.163   2.971   0.119 -0.4892 -0.5317 -1.9266
19421TIP3   OH279753   1.262   6.685   1.994 -0.1662 -0.0062  0.2410
19421TIP3    H179754   1.312   6.721   2.067  0.1328 -1.0662  0.5815
19421TIP3    H279755   1.296   6.596   1.983 -1.8490 -0.7072  0.3840
19422TIP3   OH279756   4.738   3.929   6.052 -0.0249 -0.0545  0.6133
19422TIP3    H179757   4.821   3.884   6.068 -0.2968 -0.5441  0.6824
19422TIP3    H279758   4.699   3.938   6.139  1.1843  2.6689  0.9750
19423TIP3   OH279759   5.034   3.670  11.159 -0.2434 -0.3783 -0.0395
19423TIP3    H179760   4.966   3.730  11.127  0.7182  0.7182 -0.0939
19423TIP3    H279761   5.053   3.613  11.085  0.5753  0.8758 -0.8409
19424TIP3   OH279762   2.059   6.120  12.386  0.2376 -0.4536  0.3214
19424TIP3    H179763   2.081   6.190  12.448 -1.0997  1.4464 -1.1953
19424TIP3    H279764   1.981   6.079  12.423 -1.4383  1.6397 -0.6926
19425TIP3   OH279765   2.877   0.800  11.791 -0.8017  0.3807 -0.2614
19425TIP3    H179766   2.841   0.788  11.703 -0.7097  0.0047 -0.2479
19425TIP3    H279767   2.938   0.728  11.802 -0.2144  0.8817 -0.1888
19426TIP3   OH279768   0.262   1.895   1.501  0.3621  0.8024  0.1051
19426TIP3    H179769   0.346   1.850   1.489 -0.2343 -0.0543 -1.1501
19426TIP3    H279770   0.284   1.977   1.545  1.7693  0.2958  0.3897
19427TIP3   OH279771   1.248   4.630   3.582 -0.3666 -0.3759 -0.0396
19427TIP3    H179772   1.324   4.639   3.525 -0.1718 -1.3874  0.0457
19427TIP3    H279773   1.281   4.650   3.670 -0.8568  2.0601 -0.3370
19428TIP3   OH279774   0.195   3.971   6.397  0.3336  0.2921 -0.9329
19428TIP3    H179775   0.109   4.011   6.385 -0.3626 -1.5330 -2.3614
19428TIP3    H279776   0.177   3.879   6.414  2.0147 -0.2843 -2.0674
19429TIP3   OH279777   2.264   1.829   0.574 -0.4954  0.2044  0.7929
19429TIP3    H179778   2.275   1.752   0.630  0.3590  0.3632  0.8467
19429TIP3    H279779   2.170   1.829   0.553 -0.3667 -1.3511  0.0611
19430TIP3   OH279780   5.703   6.139  15.262  0.3335  0.5263 -0.1846
19430TIP3    H179781   5.675   6.230  15.271 -0.8268  0.1195  0.6901
19430TIP3    H279782   5.690   6.102  15.350  0.6275 -0.5143 -0.5664
19431TIP3   OH279783   5.132   2.297  14.443  0.0422 -0.5203 -0.4699
19431TIP3    H179784   5.154   2.314  14.351 -1.6594  2.0133 -0.5417
19431TIP3    H279785   5.167   2.373  14.490 -3.0902  0.6742  0.1847
19432TIP3   OH279786   3.104   2.816  13.805 -0.1505  0.4196 -0.1401
19432TIP3    H179787   3.090   2.752  13.875  0.4083  0.8992  0.4214
19432TIP3    H279788   3.156   2.769  13.740 -1.4155 -0.3089 -0.6711
19433TIP3   OH279789   2.460   4.118  15.400 -0.0231  0.0443 -0.3481
19433TIP3    H179790   2.481   4.124  15.307  1.4481  0.9272  0.0127
19433TIP3    H279791   2.364   4.108  15.403 -0.0440 -0.3777 -1.9489
19434TIP3   OH279792   3.835   2.211  11.785  0.3969 -0.5191  0.1832
19434TIP3    H179793   3.789   2.288  11.752  1.4422  0.1000  0.1569
19434TIP3    H279794   3.765   2.157  11.823 -0.6533 -0.5846 -1.6910
19435TIP3   OH279795   0.864   1.867  12.859 -0.2182  0.2824  0.4272
19435TIP3    H179796   0.935   1.931  12.854 -0.6990  0.8651  0.9179
19435TIP3    H279797   0.900   1.788  12.819  0.8048  0.4792  0.9197
19436TIP3   OH279798   6.150   2.120   4.490  0.4772 -0.0337  0.1234
19436TIP3    H179799   6.210   2.054   4.524 -0.7402 -0.6216  1.2286
19436TIP3    H279800   6.136   2.095   4.399 -1.0264 -2.2047  0.8641
19437TIP3   OH279801   5.372   6.570   2.927 -0.3756 -0.2633  0.0893
19437TIP3    H179802   5.438   6.553   2.860  0.3286 -1.1891  0.9981
19437TIP3    H279803   5.411   6.637   2.983  0.5425 -1.9657  1.5874
19438TIP3   OH279804   1.475   0.280   1.034  0.3563  0.6812 -0.0652
19438TIP3    H179805   1.462   0.209   1.097 -0.6196  0.1298 -0.8651
19438TIP3    H279806   1.427   0.252   0.956 -0.2438  2.3296 -0.3197
19439TIP3   OH279807   3.554   1.033   4.154  0.4799  0.9112 -0.3216
19439TIP3    H179808   3.646   1.010   4.165 -0.3203 -1.3653  3.4024
19439TIP3    H279809   3.542   1.111   4.209  0.0734  0.8139 -0.2645
19440TIP3   OH279810   3.994   2.789  12.431  0.2275 -0.1361 -0.0547
19440TIP3    H179811   3.938   2.783  12.354  0.6102  0.6660 -0.4128
19440TIP3    H279812   4.071   2.737  12.409  0.9857  1.2514 -0.8240
19441TIP3   OH279813   6.322   3.546  15.606 -0.1894  0.7996 -0.2391
19441TIP3    H179814   6.239   3.557  15.652 -0.8327 -0.3697 -1.0867
19441TIP3    H279815   6.370   3.482  15.658  0.3338  1.6864  0.4109
19442TIP3   OH279816   1.160   4.078   4.630  0.0679  0.4328  0.0467
19442TIP3    H179817   1.167   3.985   4.652  0.3189  0.8528  1.8386
19442TIP3    H279818   1.198   4.124   4.705  0.7719  1.9720 -1.1962
19443TIP3   OH279819   6.026   6.077  12.073 -0.7061  0.2383 -0.3577
19443TIP3    H179820   6.079   5.997  12.067 -1.0627 -0.0270  0.0251
19443TIP3    H279821   6.043   6.122  11.990  0.0440  0.1112 -0.2830
19444TIP3   OH279822   4.937   3.478   5.580 -0.4628 -0.1122 -0.6356
19444TIP3    H179823   4.987   3.401   5.553  1.6382  0.6444  0.8723
19444TIP3    H279824   5.002   3.546   5.595 -2.1102  1.4707 -0.2663
19445TIP3   OH279825   0.993   3.984  15.070 -1.0874  0.4168  0.1610
19445TIP3    H179826   1.027   4.027  15.148 -0.2234  0.6636 -0.3431
19445TIP3    H279827   0.902   3.961  15.093 -2.0228  3.5716  0.0245
19446TIP3   OH279828   6.521   0.543   4.770  0.2793  0.0568  0.0911
19446TIP3    H179829   6.556   0.613   4.826  1.1421  0.5433 -1.0169
19446TIP3    H279830   6.510   0.584   4.684 -1.7563 -0.4598  0.0404
19447TIP3   OH279831   1.246   5.510   3.929  0.0539  0.0820 -1.0152
19447TIP3    H179832   1.167   5.456   3.937 -1.3651  1.5476 -3.5657
19447TIP3    H279833   1.318   5.448   3.934 -1.2229 -1.3920  0.8709
19448TIP3   OH279834   1.612   4.292   0.477 -0.2228  0.0236 -0.2377
19448TIP3    H179835   1.582   4.261   0.562 -0.7587  0.8642 -0.1064
19448TIP3    H279836   1.696   4.249   0.464 -0.1763 -0.1864  0.6717
19449TIP3   OH279837   0.306   1.160  13.464  0.1882  0.3433 -0.1860
19449TIP3    H179838   0.278   1.202  13.382  1.0717  0.9044 -0.2089
19449TIP3    H279839   0.336   1.073  13.438 -1.8146 -0.4180 -0.1186
19450TIP3   OH279840   1.024   5.989  12.541  0.5316  0.5182  0.1817
19450TIP3    H179841   1.002   5.957  12.453  1.4133  0.6643 -0.1063
19450TIP3    H279842   0.999   5.918  12.600 -0.8289  0.7481 -0.1005
19451TIP3   OH279843   3.873   5.516   3.733  0.0486 -0.5268  0.1983
19451TIP3    H179844   3.968   5.511   3.743  0.2713  0.9115 -0.8105
19451TIP3    H279845   3.841   5.550   3.816  0.4018 -1.1186  0.5802
19452TIP3   OH279846   0.493   3.233   2.603  0.0863  0.0463  0.1024
19452TIP3    H179847   0.442   3.310   2.580  0.2542  0.0911 -0.1265
19452TIP3    H279848   0.471   3.216   2.695  0.8153  0.9833  0.4756
19453TIP3   OH279849   1.120   4.917   3.005  0.0963  0.0199 -0.0533
19453TIP3    H179850   1.156   4.860   3.073  0.4982 -2.4449 -2.1720
19453TIP3    H279851   1.192   4.976   2.983  0.9862 -1.1291 -0.3331
19454TIP3   OH279852   4.160   1.036   6.076  0.2514  0.6555  0.0488
19454TIP3    H179853   4.228   1.018   6.140 -0.6875  0.7707  1.1173
19454TIP3    H279854   4.087   0.980   6.102 -0.5295  1.4923 -0.2622
19455TIP3   OH279855   2.403   3.483   6.329  0.5099 -0.4188  0.0902
19455TIP3    H179856   2.377   3.568   6.364  0.2075 -0.4815  0.0209
19455TIP3    H279857   2.326   3.427   6.341  0.8797 -0.8304  0.6198
19456TIP3   OH279858   5.552   0.198  11.685  0.5828 -0.2737 -0.5200
19456TIP3    H179859   5.636   0.192  11.639  1.2898 -0.6482  0.7452
19456TIP3    H279860   5.569   0.155  11.769 -0.6097  0.5002  0.1407
19457TIP3   OH279861   3.729   2.038  13.285  0.0396 -0.0806  0.1199
19457TIP3    H179862   3.775   2.062  13.365 -0.4042 -0.7425  0.5864
19457TIP3    H279863   3.795   2.042  13.216  0.2651  1.1961  0.3888
19458TIP3   OH279864   1.127   4.465  15.706  0.1935 -0.5558  0.0248
19458TIP3    H179865   1.207   4.487  15.753 -1.0686  1.7441  1.2328
19458TIP3    H279866   1.134   4.512  15.623  1.6280 -3.2487 -1.5522
19459TIP3   OH279867   2.993   1.236   2.980  0.2167 -0.5900  0.1173
19459TIP3    H179868   2.908   1.241   3.024 -1.5610 -1.1586 -2.9992
19459TIP3    H279869   2.985   1.162   2.920  2.1150  0.6684 -1.8094
19460TIP3   OH279870   2.958   0.696   6.229  0.5232  0.2232 -0.4918
19460TIP3    H179871   3.024   0.748   6.276 -0.9699 -1.0991  3.4682
19460TIP3    H279872   2.983   0.605   6.246 -1.6664 -0.2995  0.2271
19461TIP3   OH279873   0.307   6.292  16.361 -0.2433 -0.1060  0.5387
19461TIP3    H179874   0.366   6.217  16.358 -0.6037 -0.3863  0.3853
19461TIP3    H279875   0.330   6.338  16.442  0.4952  0.0431  0.2461
19462TIP3   OH279876   6.003   5.841  17.123 -0.2795 -0.1975  0.1526
19462TIP3    H179877   6.028   5.748  17.126  0.5638 -0.0486 -1.2094
19462TIP3    H279878   6.019   5.872  17.212  0.5253 -1.1054  0.3539
19463TIP3   OH279879   0.943   0.039   4.440  0.2870 -0.1183  0.1107
19463TIP3    H179880   0.894  -0.032   4.398 -0.1467  0.0422  0.3352
19463TIP3    H279881   0.895   0.118   4.415  0.9004  0.1195 -0.3265
19464TIP3   OH279882   2.633   6.183   1.260  0.2851  0.1215 -0.2237
19464TIP3    H179883   2.676   6.098   1.273 -0.0100 -0.1379 -0.8876
19464TIP3    H279884   2.602   6.208   1.347  1.1594 -0.0230  0.1330
19465TIP3   OH279885   5.852   6.261   5.879  0.5916 -0.2492 -0.5496
19465TIP3    H179886   5.888   6.196   5.940 -0.1279 -1.1907 -1.1051
19465TIP3    H279887   5.780   6.301   5.927  1.5197  0.7152  0.0825
19466TIP3   OH279888   5.096   5.124   5.424  0.0789  0.1929  0.0953
19466TIP3    H179889   5.048   5.177   5.360 -1.0325 -0.7357  0.1206
19466TIP3    H279890   5.044   5.130   5.504  1.3489  1.1672  0.8785
19467TIP3   OH279891   4.293   1.049   4.453 -0.0761 -0.2357  0.5154
19467TIP3    H179892   4.312   1.018   4.364 -0.0620 -0.4554  0.5946
19467TIP3    H279893   4.230   0.986   4.487 -0.8231  0.3858  0.3161
19468TIP3   OH279894   0.803   5.069  11.814 -0.2910  0.2313  0.3865
19468TIP3    H179895   0.886   5.099  11.776 -0.0962  0.4828  1.0045
19468TIP3    H279896   0.814   4.974  11.823 -0.8564 -0.0623 -1.4449
19469TIP3   OH279897   4.721   3.696  15.708 -0.6458 -0.3001 -0.6942
19469TIP3    H179898   4.713   3.601  15.709  0.1525 -0.3763 -0.5046
19469TIP3    H279899   4.639   3.727  15.671 -0.7103 -1.0897 -1.2337
19470TIP3   OH279900   3.251   3.648   3.270 -0.0473  0.3075  0.1969
19470TIP3    H179901   3.167   3.661   3.226  0.0237  0.4697  0.1121
19470TIP3    H279902   3.229   3.645   3.363 -0.0747  0.9060  0.2108
19471TIP3   OH279903   3.676   0.216  16.795  0.2516  0.0913  0.1770
19471TIP3    H179904   3.647   0.157  16.865  0.3031  0.8872  0.8972
19471TIP3    H279905   3.607   0.210  16.728 -1.0943  1.1314  1.3806
19472TIP3   OH279906   0.018   5.938  13.039  0.0074 -0.3067  0.1544
19472TIP3    H179907  -0.026   5.939  12.955  1.8638  0.3655 -0.8783
19472TIP3    H279908  -0.049   5.913  13.102 -1.6645  0.1370 -1.3840
19473TIP3   OH279909   3.267   1.239   1.830 -0.2984  0.1783 -0.4134
19473TIP3    H179910   3.266   1.156   1.878  2.2636  0.5680  0.4799
19473TIP3    H279911   3.353   1.241   1.788 -0.9059  1.7032 -1.6865
19474TIP3   OH279912   4.703   0.985   2.090  0.4803  0.5111  0.3035
19474TIP3    H179913   4.711   1.060   2.031  1.1798  2.5873  2.8507
19474TIP3    H279914   4.791   0.949   2.097  0.3953  0.2558  0.0903
19475TIP3   OH279915   0.286   6.600  12.657 -1.0343 -0.2682  0.4284
19475TIP3    H179916   0.373   6.627  12.629 -1.0573 -0.0902  0.5257
19475TIP3    H279917   0.231   6.677  12.643 -1.3876 -0.6925 -0.5807
19476TIP3   OH279918   5.011   5.072   2.177  0.3482 -0.0512 -0.0965
19476TIP3    H179919   4.944   5.074   2.245  0.4329 -0.0342 -0.0118
19476TIP3    H279920   4.999   5.153   2.127  0.5606  0.1482  0.1692
19477TIP3   OH279921   3.557   4.634  12.927 -0.3539 -0.2360  0.0519
19477TIP3    H179922   3.578   4.541  12.920 -0.3166 -0.2265  0.0415
19477TIP3    H279923   3.485   4.638  12.990 -0.7498 -0.3291 -0.3883
19478TIP3   OH279924   1.457   6.131  14.873 -0.0098 -0.0055  0.2586
19478TIP3    H179925   1.412   6.097  14.950 -0.0541  3.0046  1.6975
19478TIP3    H279926   1.520   6.194  14.908  0.4808  0.9430 -2.1377
19479TIP3   OH279927   2.727   2.629  14.578 -0.0720 -0.1268 -0.2617
19479TIP3    H179928   2.734   2.576  14.657  1.7055 -1.3029 -1.1433
19479TIP3    H279929   2.750   2.717  14.606  0.4557 -0.5188  0.5742
19480TIP3   OH279930   5.085   2.820  11.432  0.9482 -0.3470 -0.4674
19480TIP3    H179931   5.083   2.895  11.373  1.3172  0.8200  0.9418
19480TIP3    H279932   5.006   2.828  11.484  3.3825  2.2616  3.3556
19481TIP3   OH279933   1.056   6.525  13.408  0.5132  0.2597 -0.5596
19481TIP3    H179934   1.050   6.457  13.475  3.8651  1.3864  1.0881
19481TIP3    H279935   1.037   6.479  13.326  2.3452 -2.6944  0.5047
19482TIP3   OH279936   1.307   3.260   0.601 -0.6224  0.2793 -0.2742
19482TIP3    H179937   1.222   3.241   0.640 -0.2277 -2.1566 -0.4728
19482TIP3    H279938   1.356   3.178   0.608  1.3155  1.2905 -1.1982
19483TIP3   OH279939   2.120   3.763  16.769  0.4824 -0.0476 -0.0216
19483TIP3    H179940   2.069   3.809  16.836  1.5960  1.0395  0.1066
19483TIP3    H279941   2.149   3.683  16.813 -0.9562 -0.6243 -0.0527
19484TIP3   OH279942   0.892   0.511  14.572  0.1713 -0.3892 -0.5362
19484TIP3    H179943   0.898   0.582  14.508  2.8665 -1.0130 -1.1103
19484TIP3    H279944   0.904   0.431  14.519 -3.5564 -1.4488 -0.0349
19485TIP3   OH279945   5.863   3.029  17.021 -0.4066 -0.7994  0.1465
19485TIP3    H179946   5.940   2.973  17.021  0.7685  0.7624 -0.2439
19485TIP3    H279947   5.803   2.988  17.084 -0.3387 -3.4151 -1.3687
19486TIP3   OH279948   6.246   2.987   5.340  0.1345  0.0661  0.0611
19486TIP3    H179949   6.331   2.964   5.379  0.1208  0.7121  0.4887
19486TIP3    H279950   6.268   3.010   5.249  0.5918  1.2355  0.4427
19487TIP3   OH279951   0.696   4.145   3.714  0.5207  0.0625  0.3519
19487TIP3    H179952   0.758   4.087   3.759  0.0895 -0.0423  0.8145
19487TIP3    H279953   0.680   4.216   3.776  0.5898  0.3712  0.0197
19488TIP3   OH279954   0.671   0.287  11.955 -0.1356 -0.3189  1.0287
19488TIP3    H179955   0.653   0.228  11.882 -1.1524  1.7306 -0.4644
19488TIP3    H279956   0.746   0.339  11.925 -0.8386  0.8382  1.2291
19489TIP3   OH279957   3.488   0.298  12.722  1.1165 -0.8499  0.1053
19489TIP3    H179958   3.574   0.272  12.755  1.3845  2.3638  2.3610
19489TIP3    H279959   3.426   0.250  12.777  1.4668 -1.5458 -0.0929
19490TIP3   OH279960   6.480   0.906   4.721 -0.2137  0.6009 -0.3333
19490TIP3    H179961   6.405   0.848   4.731  0.2526 -0.0992 -0.8428
19490TIP3    H279962   6.515   0.915   4.810 -0.1210 -0.1340 -0.2875
19491TIP3   OH279963   2.346   0.185   0.984 -0.2384 -0.4005 -0.4218
19491TIP3    H179964   2.289   0.157   1.055 -0.2482 -0.8509 -0.6035
19491TIP3    H279965   2.431   0.145   1.004 -0.4819 -1.3186 -1.1537
19492TIP3   OH279966   0.667   0.108   5.116  0.5526  0.0676 -0.1237
19492TIP3    H179967   0.658   0.016   5.089 -0.0284 -0.1671  0.8419
19492TIP3    H279968   0.665   0.105   5.211 -2.6685  1.3865 -0.0548
19493TIP3   OH279969   1.673   4.537   3.141  0.4739  0.3233  0.2060
19493TIP3    H179970   1.639   4.450   3.161  2.5837 -0.4172  0.8121
19493TIP3    H279971   1.638   4.557   3.054 -0.3882 -0.9271  0.2360
19494TIP3   OH279972   5.862   3.467  12.921  0.0652  0.1245  0.5049
19494TIP3    H179973   5.896   3.529  12.986 -0.8208  0.8485  0.2948
19494TIP3    H279974   5.770   3.456  12.944  0.2915 -1.4299  0.7654
19495TIP3   OH279975   2.005   3.134  16.457 -0.1215 -0.4710 -0.0727
19495TIP3    H179976   1.973   3.051  16.493  1.1331 -0.6489  0.6825
19495TIP3    H279977   2.064   3.108  16.387  2.4353 -0.3802  1.9162
19496TIP3   OH279978   5.726   0.487   5.891  0.7699  0.0296  0.0250
19496TIP3    H179979   5.654   0.543   5.862  0.3183 -1.0226 -0.9682
19496TIP3    H279980   5.702   0.460   5.980  1.5786  2.3178  1.0319
19497TIP3   OH279981   4.079   4.776  14.520 -0.5604 -0.4574  0.0148
19497TIP3    H179982   3.994   4.821  14.515 -1.5402 -2.1704  0.2095
19497TIP3    H279983   4.109   4.792  14.610 -0.1352  1.0534 -0.3790
19498TIP3   OH279984   0.267   4.954   2.615 -0.7205 -0.2975  0.6199
19498TIP3    H179985   0.315   4.984   2.537  1.2519  0.1838  1.9486
19498TIP3    H279986   0.224   5.033   2.648 -0.8386 -0.3160  0.5113
19499TIP3   OH279987   3.388   1.874  12.370 -0.6327  0.1023 -0.1843
19499TIP3    H179988   3.463   1.819  12.392 -1.0551  0.3594  2.2093
19499TIP3    H279989   3.314   1.831  12.413 -1.4952  0.9967 -0.7393
19500TIP3   OH279990   6.660   2.050  12.133 -1.3539  0.0219 -0.3672
19500TIP3    H179991   6.633   2.013  12.048 -0.3550 -0.3738 -0.5284
19500TIP3    H279992   6.586   2.103  12.160 -1.2750  1.0693 -2.0340
19501TIP3   OH279993   0.951   5.594  15.794 -0.1273  0.2604 -0.1524
19501TIP3    H179994   1.018   5.647  15.750  1.0167  0.0571  1.2562
19501TIP3    H279995   0.942   5.516  15.740  0.1289  0.6942 -0.8260
19502TIP3   OH279996   1.657   0.346  15.953  0.7851  0.3481  0.0636
19502TIP3    H179997   1.621   0.313  15.871 -0.3108 -1.6251  1.2749
19502TIP3    H279998   1.679   0.268  16.003 -0.8718  1.4104  2.6361
19503TIP3   OH279999   2.496   1.565   2.557 -0.3988 -0.1239  0.2526
19503TIP3    H180000   2.423   1.507   2.578 -0.9017  0.1291 -0.7590
19503TIP3    H280001   2.468   1.614   2.480  0.9282 -0.1895 -0.3107
19504TIP3   OH280002   3.514   3.362  11.617  0.3491  0.2030 -0.9529
19504TIP3    H180003   3.460   3.291  11.651  1.4799 -0.2663 -0.0962
19504TIP3    H280004   3.467   3.442  11.642 -0.2895 -0.2045 -0.8200
19505TIP3   OH280005   6.235   1.787  15.954  0.6521  0.0398 -0.1131
19505TIP3    H180006   6.289   1.727  16.006  1.2396  0.4016 -0.2907
19505TIP3    H280007   6.297   1.852  15.922 -0.2692  1.9512  1.7681
19506TIP3   OH280008   1.130   2.226   3.808  0.5123  0.1078 -0.3302
19506TIP3    H180009   1.169   2.213   3.721 -0.2802 -0.1838 -0.6561
19506TIP3    H280010   1.064   2.294   3.794 -1.4423 -1.7218 -0.5648
19507TIP3   OH280011   0.841   0.474  16.351  0.2595 -0.1274 -0.2362
19507TIP3    H180012   0.877   0.559  16.326  0.2720 -0.1232 -0.2029
19507TIP3    H280013   0.758   0.468  16.303 -0.0424  0.1711  0.2394
19508TIP3   OH280014   6.037   5.629  13.029 -0.4301 -0.3229 -0.0450
19508TIP3    H180015   6.069   5.606  12.941  0.0699 -0.3814  0.1482
19508TIP3    H280016   6.063   5.555  13.084 -1.0717 -0.4576  0.0839
19509TIP3   OH280017   0.375   0.690   2.724 -0.6990 -0.0316  0.4183
19509TIP3    H180018   0.404   0.766   2.773 -1.2103  0.8356 -0.5736
19509TIP3    H280019   0.343   0.629   2.790 -1.7384  1.2533  1.1467
19510TIP3   OH280020   0.827   2.177  11.384  0.0180  0.2268  0.2238
19510TIP3    H180021   0.849   2.207  11.472 -1.1142  0.2360  0.5190
19510TIP3    H280022   0.855   2.085  11.383 -2.2610 -0.5550  1.4975
19511TIP3   OH280023   6.041   1.624  13.631  0.1260 -0.5822 -0.8484
19511TIP3    H180024   6.059   1.543  13.679 -1.1802  0.2963  1.2389
19511TIP3    H280025   6.032   1.596  13.539 -0.4864 -2.8168 -0.1672
19512TIP3   OH280026   1.539   6.116  16.407 -0.0668  0.1201 -0.2725
19512TIP3    H180027   1.499   6.145  16.488  0.2921 -0.2493  0.0427
19512TIP3    H280028   1.615   6.174  16.396  0.0720 -0.0393 -0.1683
19513TIP3   OH280029   1.690   4.712   1.279  0.5891 -0.0079  0.4010
19513TIP3    H180030   1.666   4.787   1.224 -2.5410 -0.5185  0.9074
19513TIP3    H280031   1.650   4.731   1.364  0.3474 -1.9109  0.7542
19514TIP3   OH280032   1.872   4.020  15.045  0.2158  0.0341 -0.5312
19514TIP3    H180033   1.892   4.108  15.078  1.1685 -0.0393 -0.8706
19514TIP3    H280034   1.956   3.974  15.048 -0.1550 -0.6821 -0.9095
19515TIP3   OH280035   2.023   4.327   2.805  0.4680 -0.3912 -0.4392
19515TIP3    H180036   1.992   4.343   2.894 -1.1671 -0.4513 -0.9582
19515TIP3    H280037   1.944   4.302   2.756  0.9111  1.6477 -2.3724
19516TIP3   OH280038   6.192   1.849   5.311 -0.6005  0.3989  0.1245
19516TIP3    H180039   6.198   1.921   5.374 -0.9631  0.4535  0.0960
19516TIP3    H280040   6.098   1.833   5.301 -0.5203 -0.6736  0.8243
19517TIP3   OH280041   3.739   5.378   1.435  0.5267  0.0248  0.6552
19517TIP3    H180042   3.751   5.291   1.474 -0.1785 -0.8305 -0.9326
19517TIP3    H280043   3.646   5.398   1.447  0.2058 -0.4346 -0.8735
19518TIP3   OH280044   4.905   2.095  13.942 -0.8352 -0.1079 -0.5094
19518TIP3    H180045   4.986   2.140  13.919 -0.2073 -0.4666  0.8975
19518TIP3    H280046   4.914   2.076  14.035 -2.9030  0.5852 -0.1209
19519TIP3   OH280047   0.230   3.265  16.978  0.0159 -0.4090 -0.3487
19519TIP3    H180048   0.154   3.300  17.025 -0.8200 -2.0658 -0.3805
19519TIP3    H280049   0.214   3.289  16.886  0.4617  0.7993 -0.1239
19520TIP3   OH280050   2.560   6.626   6.140 -0.5183  0.0901  0.2251
19520TIP3    H180051   2.619   6.690   6.101 -0.9298 -0.5011 -1.4654
19520TIP3    H280052   2.473   6.658   6.120 -0.7798 -1.8111 -2.3467
19521TIP3   OH280053   5.900   0.821   0.247 -0.1673  0.4620  0.1784
19521TIP3    H180054   5.851   0.743   0.226 -1.3220  1.6365 -1.6934
19521TIP3    H280055   5.985   0.808   0.205 -0.0715 -0.0935  0.5304
19522TIP3   OH280056   4.591   1.203   6.712  0.7804 -0.2418 -0.4544
19522TIP3    H180057   4.511   1.176   6.667 -0.4108  0.2194  1.2817
19522TIP3    H280058   4.595   1.298   6.700  0.5489 -0.1409  0.2394
19523TIP3   OH280059   6.197   5.928   2.629 -0.5286  0.1843  0.2211
19523TIP3    H180060   6.287   5.948   2.603 -0.5456  0.0197  0.0276
19523TIP3    H280061   6.195   5.943   2.723 -0.3548  0.3939  0.1922
19524TIP3   OH280062   1.129   5.842   4.702 -0.2581  0.5707 -0.8720
19524TIP3    H180063   1.051   5.860   4.755 -0.0636  0.6770 -0.6201
19524TIP3    H280064   1.157   5.927   4.670  0.7591  0.7692  0.4569
19525TIP3   OH280065   3.118   5.036  12.259  0.8050 -1.0286  0.1780
19525TIP3    H180066   3.056   4.987  12.204 -0.8211  1.0497  0.0002
19525TIP3    H280067   3.106   4.999  12.346 -0.2971 -1.0742  0.0320
19526TIP3   OH280068   6.636   2.789   1.449  0.0027  0.4699  0.1217
19526TIP3    H180069   6.649   2.857   1.383 -1.0365  0.9880  0.4364
19526TIP3    H280070   6.714   2.734   1.442 -0.8360 -0.5262 -2.7465
19527TIP3   OH280071   4.311   3.707  14.569 -0.2560 -0.1190 -0.2782
19527TIP3    H180072   4.386   3.650  14.586  0.7946  0.0246 -3.6752
19527TIP3    H280073   4.244   3.649  14.532  0.0369  0.4512 -1.7777
19528TIP3   OH280074   1.677   5.801   5.658 -0.2685 -0.0293 -0.2987
19528TIP3    H180075   1.584   5.798   5.636 -0.3833  0.9554  0.0237
19528TIP3    H280076   1.681   5.853   5.739  0.2383 -2.6621  1.4984
19529TIP3   OH280077   1.666   5.247  15.701 -0.1731 -0.3897  0.7942
19529TIP3    H180078   1.661   5.248  15.606 -2.6445  1.3104  0.8601
19529TIP3    H280079   1.751   5.287  15.721 -0.6443  1.5289 -0.7217
19530TIP3   OH280080   6.833   5.898   4.249  0.1429 -0.6540 -1.0153
19530TIP3    H180081   6.888   5.970   4.217 -0.2898  0.4898  0.6539
19530TIP3    H280082   6.874   5.873   4.332 -1.4973 -0.1393 -0.0007
19531TIP3   OH280083   5.509   6.384  14.384 -0.3520 -0.0302 -0.3283
19531TIP3    H180084   5.490   6.415  14.295 -0.8486 -2.0283 -0.9547
19531TIP3    H280085   5.471   6.296  14.387 -0.7294  0.1657  2.0130
19532TIP3   OH280086   6.447   1.373   5.741 -0.1074  0.4292  0.2722
19532TIP3    H180087   6.396   1.448   5.710  1.0073  1.1943  0.2658
19532TIP3    H280088   6.534   1.386   5.704 -0.2227 -1.5775 -0.8474
19533TIP3   OH280089   5.609   1.571   4.339  0.2077 -0.4112 -0.1918
19533TIP3    H180090   5.517   1.585   4.316  0.0576 -0.9945  0.0290
19533TIP3    H280091   5.636   1.650   4.384 -0.1836 -0.2305 -0.2760
19534TIP3   OH280092   6.024   0.522   3.531 -0.0087  0.5651  0.8022
19534TIP3    H180093   6.046   0.541   3.440  2.0162  1.0561  1.3327
19534TIP3    H280094   6.031   0.426   3.538 -0.1873  0.5267  0.4386
19535TIP3   OH280095   0.563   0.741   3.383  0.0924 -0.1039 -0.5432
19535TIP3    H180096   0.655   0.757   3.363  0.0587  2.9846  1.1600
19535TIP3    H280097   0.556   0.750   3.478 -1.7218 -2.1408 -0.3950
19536TIP3   OH280098   3.161   0.505  12.623  0.2796  0.9489  0.0054
19536TIP3    H180099   3.254   0.517  12.601  0.6442 -0.0486  0.9205
19536TIP3    H280100   3.146   0.563  12.697 -0.0424  1.7009 -0.6396
19537TIP3   OH280101   4.820   4.033   2.018  0.0373 -0.1250  0.3171
19537TIP3    H180102   4.863   3.990   1.944 -0.1267  0.0794  0.1026
19537TIP3    H280103   4.888   4.088   2.056 -0.1671  0.5747 -0.3185
19538TIP3   OH280104   5.722   3.020  13.220  0.3506 -0.1477  0.4745
19538TIP3    H180105   5.724   3.066  13.136 -0.7484  0.4340  0.7583
19538TIP3    H280106   5.813   3.023  13.251 -0.0526  4.5307  1.9334
19539TIP3   OH280107   0.414   2.565  11.302 -0.0119  0.2198 -0.1679
19539TIP3    H180108   0.356   2.642  11.300 -0.5634 -0.1096  1.5104
19539TIP3    H280109   0.370   2.504  11.361  1.3860 -0.5952  0.0549
19540TIP3   OH280110   6.536   1.775   0.894  0.1127 -0.2772 -0.2375
19540TIP3    H180111   6.491   1.851   0.930  1.6937  0.5142  0.1562
19540TIP3    H280112   6.523   1.707   0.959  1.1175  0.5166  0.8287
19541TIP3   OH280113   1.728   6.326  13.308 -0.2323  0.0076  0.4039
19541TIP3    H180114   1.803   6.267  13.320 -1.0039 -0.8479  1.0965
19541TIP3    H280115   1.653   6.268  13.297 -0.7308  0.8494 -0.9166
19542TIP3   OH280116   4.747   3.334  12.127 -0.0252  0.1741  0.3608
19542TIP3    H180117   4.726   3.313  12.218 -0.3406 -0.9139  0.0520
19542TIP3    H280118   4.838   3.362  12.130  0.9413 -2.6525  0.6556
19543TIP3   OH280119   4.427   1.058   0.140  0.1371 -0.0535  0.0670
19543TIP3    H180120   4.517   1.028   0.133  0.3654  0.4145  0.8455
19543TIP3    H280121   4.380   1.012   0.070  0.8263 -0.8517  0.1239
19544TIP3   OH280122   3.025   5.983   0.567 -0.1591 -0.6324 -0.3359
19544TIP3    H180123   2.954   5.942   0.519  0.7332 -1.7910 -0.7182
19544TIP3    H280124   3.024   5.940   0.653  1.3929 -2.2704 -1.0646
19545TIP3   OH280125   1.500   0.357   3.581 -0.5436  0.1568 -0.2852
19545TIP3    H180126   1.588   0.361   3.618 -0.2774 -0.1724 -0.8593
19545TIP3    H280127   1.474   0.266   3.591  0.2869 -0.3987 -2.5286
19546TIP3   OH280128   1.444   1.557  15.135  0.1181  0.8496  0.4640
19546TIP3    H180129   1.491   1.640  15.124 -0.0614  0.9930  0.7776
19546TIP3    H280130   1.484   1.517  15.212  0.9284  0.1472 -0.2951
19547TIP3   OH280131   6.781   1.952   0.233  0.3976 -0.3244  0.0235
19547TIP3    H180132   6.824   1.869   0.210  2.6889  0.4846  1.1053
19547TIP3    H280133   6.853   2.014   0.245 -1.2549  1.9075 -0.9143
19548TIP3   OH280134   1.792   1.734   2.011 -0.8568 -0.5149  0.0775
19548TIP3    H180135   1.738   1.799   2.056 -1.2138 -1.5112  1.1423
19548TIP3    H280136   1.805   1.770   1.923 -1.6651  0.6345  0.4061
19549TIP3   OH280137   1.339   2.814   5.287 -0.5089  0.0955  0.1837
19549TIP3    H180138   1.274   2.744   5.281  1.6408 -1.8791 -1.5127
19549TIP3    H280139   1.409   2.778   5.341  0.4275  1.1334 -0.3074
19550TIP3   OH280140   0.916   0.784  14.183 -0.3152  0.1071 -0.2547
19550TIP3    H180141   0.831   0.804  14.145 -0.2317 -1.6211 -1.4246
19550TIP3    H280142   0.968   0.750  14.111  0.2409 -2.1380  1.0928
19551TIP3   OH280143   5.764   4.445  15.530 -0.1316  0.2569  0.4326
19551TIP3    H180144   5.673   4.472  15.543  0.1265  0.4161  2.1519
19551TIP3    H280145   5.793   4.418  15.617  2.2000  2.4657  0.4423
19552TIP3   OH280146   1.453   2.164   0.858  0.2007 -0.6215  0.1449
19552TIP3    H180147   1.447   2.239   0.917  2.9745  1.1223 -1.5495
19552TIP3    H280148   1.368   2.162   0.812  0.2092  1.8059 -0.0815
19553TIP3   OH280149   6.646   6.244   1.943 -0.1339  0.1414 -0.7908
19553TIP3    H180150   6.714   6.212   2.003 -0.3797  0.4198 -0.3617
19553TIP3    H280151   6.571   6.187   1.959 -1.0806  1.7775  1.0302
19554TIP3   OH280152   0.755   3.820  17.032 -0.0474 -0.2030 -0.1252
19554TIP3    H180153   0.775   3.733  17.066 -1.5846 -0.8678 -0.8371
19554TIP3    H280154   0.671   3.843  17.073 -0.3149  0.3670 -0.9592
19555TIP3   OH280155   4.379   1.837   6.049  0.1880 -0.1929  0.4054
19555TIP3    H180156   4.284   1.833   6.041  0.0392  1.0407  1.1748
19555TIP3    H280157   4.399   1.931   6.042  1.2558 -0.3545  1.1280
19556TIP3   OH280158   3.011   6.190   3.905 -0.3139 -0.4618 -0.0932
19556TIP3    H180159   2.944   6.140   3.952 -0.5935  0.2109  0.2382
19556TIP3    H280160   3.046   6.250   3.971 -1.4100  1.2029 -0.9727
19557TIP3   OH280161   6.686   4.053  11.338 -0.3798 -0.2886  0.3216
19557TIP3    H180162   6.657   4.010  11.419  0.4070 -0.2282  0.6535
19557TIP3    H280163   6.607   4.062  11.285 -0.6627 -1.6080  0.4885
19558TIP3   OH280164   0.701   4.238  16.086 -0.6378  0.0490 -0.1280
19558TIP3    H180165   0.753   4.311  16.119 -0.5658  0.0857 -0.3211
19558TIP3    H280166   0.637   4.279  16.028 -0.9691  0.0194  0.2119
19559TIP3   OH280167   4.117   0.310  15.848  0.1572 -0.0825 -0.0765
19559TIP3    H180168   4.085   0.397  15.826 -0.9377 -0.5404 -0.3669
19559TIP3    H280169   4.154   0.319  15.936  3.3036  1.4559 -1.4066
19560TIP3   OH280170   0.281   4.471  12.561 -0.0622 -0.0321 -0.1027
19560TIP3    H180171   0.318   4.552  12.527  0.5460 -0.2438  0.0290
19560TIP3    H280172   0.249   4.424  12.484 -0.3389  0.2934 -0.1860
19561TIP3   OH280173   2.400   3.882  17.204 -0.0615  0.3812  0.1786
19561TIP3    H180174   2.419   3.839  17.287 -0.7237 -0.1804  0.0467
19561TIP3    H280175   2.325   3.938  17.222 -0.9104 -0.5626 -0.2763
19562TIP3   OH280176   2.015   4.560   5.623  0.0889  0.0839  0.4506
19562TIP3    H180177   1.967   4.640   5.644 -0.4782  0.1442 -0.9690
19562TIP3    H280178   2.071   4.585   5.549 -0.2039 -0.8578 -0.1018
19563TIP3   OH280179   4.382   3.269   2.228 -0.0555 -0.3993  0.2873
19563TIP3    H180180   4.287   3.278   2.225  0.0093  0.3738  0.2054
19563TIP3    H280181   4.414   3.359   2.225  0.6281 -0.5092  2.6572
19564TIP3   OH280182   6.337   4.915  12.112  0.4600  0.4917  0.5631
19564TIP3    H180183   6.350   4.950  12.024  0.5173  0.4690  0.5626
19564TIP3    H280184   6.425   4.910  12.150  0.5648 -0.5140  0.2366
19565TIP3   OH280185   2.017   3.793  12.869  0.0517  0.0483 -0.4406
19565TIP3    H180186   2.070   3.831  12.939 -0.5984  1.1996 -0.5645
19565TIP3    H280187   1.952   3.739  12.914  0.1252  0.1584 -0.2048
19566TIP3   OH280188   1.511   3.254  11.483  0.1983 -0.1673  0.0925
19566TIP3    H180189   1.566   3.270  11.560 -0.8263 -1.7861  1.2407
19566TIP3    H280190   1.556   3.184  11.436 -0.1958 -0.6051  0.3509
19567TIP3   OH280191   4.881   4.376   2.005  0.5783 -0.3882  0.1596
19567TIP3    H180192   4.919   4.304   2.054  1.2621 -0.3993 -0.3704
19567TIP3    H280193   4.816   4.333   1.948  2.0471 -0.8225 -1.2612
19568TIP3   OH280194   0.554   0.826   5.707 -0.2104 -0.2230  0.4455
19568TIP3    H180195   0.636   0.871   5.686 -0.5123 -0.0865 -0.4658
19568TIP3    H280196   0.508   0.885   5.766 -0.0262  0.0764  0.2866
19569TIP3   OH280197   0.315   3.084   4.855  0.3863 -0.2919  0.5104
19569TIP3    H180198   0.253   3.021   4.818  1.4417 -1.6366  0.9222
19569TIP3    H280199   0.277   3.108   4.939  0.4026 -1.0969  0.7572
19570TIP3   OH280200   5.885   5.819   2.501 -0.4276 -0.0239  0.0320
19570TIP3    H180201   5.977   5.843   2.498 -0.2067 -0.9174 -1.9630
19570TIP3    H280202   5.861   5.827   2.593  1.5077  0.6604  0.5198
19571TIP3   OH280203   4.174   0.761   4.596 -0.1719 -0.1994 -0.0296
19571TIP3    H180204   4.155   0.733   4.686 -2.1524  2.8375  0.6599
19571TIP3    H280205   4.092   0.748   4.549  0.1644  0.3067 -0.7844
19572TIP3   OH280206   1.778   5.126  11.651  0.7619  0.5983 -0.4340
19572TIP3    H180207   1.835   5.128  11.574  0.4001  0.0329 -0.7206
19572TIP3    H280208   1.766   5.218  11.673  0.4021  0.7981 -1.4060
19573TIP3   OH280209   3.513   5.203   0.354 -0.1664  0.0050  0.3483
19573TIP3    H180210   3.442   5.250   0.397 -1.1245 -1.4674  0.4693
19573TIP3    H280211   3.523   5.246   0.269 -0.5716  0.8010  0.6921
19574TIP3   OH280212   3.251   0.498   0.663  0.3910 -0.5934 -0.2951
19574TIP3    H180213   3.254   0.404   0.676 -0.6878 -0.7616 -1.1863
19574TIP3    H280214   3.158   0.520   0.663  0.6211  0.4313 -0.3475
19575TIP3   OH280215   1.593   1.308   4.957 -0.1569 -0.4541  0.1357
19575TIP3    H180216   1.670   1.307   4.900  0.9422 -0.4635  1.5681
19575TIP3    H280217   1.628   1.292   5.045 -1.3239  3.2074  1.4213
19576TIP3   OH280218   0.433   3.097   3.980 -0.0707  0.5893 -0.4607
19576TIP3    H180219   0.528   3.082   3.975  0.2280  1.5109  1.5235
19576TIP3    H280220   0.421   3.150   4.059 -2.4010 -0.7144  0.1585
19577TIP3   OH280221   3.812   5.302   3.571  0.1095 -0.1631  0.0744
19577TIP3    H180222   3.814   5.212   3.604  2.0988 -0.4990 -0.8006
19577TIP3    H280223   3.818   5.356   3.649 -1.3167 -0.7580  0.6295
19578TIP3   OH280224   3.267   5.106   4.111  0.2662 -0.1702 -0.1956
19578TIP3    H180225   3.236   5.196   4.119 -0.7252 -0.4271 -0.9820
19578TIP3    H280226   3.329   5.096   4.184  0.0342  0.9896  0.1863
19579TIP3   OH280227   5.685   1.273   4.587 -0.1054 -0.0621 -0.3736
19579TIP3    H180228   5.716   1.279   4.496 -1.3150  0.1170 -0.7967
19579TIP3    H280229   5.590   1.266   4.579 -0.1494 -1.2813  0.8400
19580TIP3   OH280230   4.419   0.739   4.859  0.8627 -0.0524 -0.0320
19580TIP3    H180231   4.373   0.661   4.891  1.4369  0.2336  1.6213
19580TIP3    H280232   4.468   0.708   4.783  1.2281 -1.3862  0.6978
19581TIP3   OH280233   6.569   1.809   4.769 -0.6583 -0.0157  0.3483
19581TIP3    H180234   6.619   1.769   4.698 -1.5859  1.9563 -1.4954
19581TIP3    H280235   6.622   1.883   4.797 -1.1910  0.3675  0.3638
19582TIP3   OH280236   3.674   1.496  15.077 -0.4513 -0.3823  0.0838
19582TIP3    H180237   3.726   1.572  15.101 -0.6825  0.2196 -1.2841
19582TIP3    H280238   3.718   1.423  15.121  0.5535  0.3404  0.3165
19583TIP3   OH280239   6.334   0.290  16.943  0.4686  0.4096 -0.0813
19583TIP3    H180240   6.261   0.312  17.000  0.4006  0.5274 -0.2115
19583TIP3    H280241   6.293   0.251  16.865  0.5165  0.8414 -0.3280
19584TIP3   OH280242   0.063   4.337  13.472  0.1439  0.7009  0.1882
19584TIP3    H180243   0.029   4.304  13.388 -1.2908 -0.1763  1.0665
19584TIP3    H280244  -0.014   4.369  13.518  0.8069  0.5015  1.4690
19585TIP3   OH280245   3.841   0.925  16.343 -0.1819 -0.1056  0.2336
19585TIP3    H180246   3.789   0.853  16.379 -0.2776 -0.2953 -0.2658
19585TIP3    H280247   3.821   1.000  16.400 -1.7398  0.0695 -0.4753
19586TIP3   OH280248   5.575   6.690  14.524 -0.6510 -0.5110  0.2157
19586TIP3    H180249   5.498   6.742  14.547 -1.0912 -0.9326 -0.2950
19586TIP3    H280250   5.543   6.625  14.462  0.3108 -0.0289 -0.8268
19587TIP3   OH280251   3.212   5.959   4.482 -0.5315 -0.5106  0.7067
19587TIP3    H180252   3.165   5.988   4.560  1.3592  0.4074  1.5615
19587TIP3    H280253   3.264   5.885   4.512  1.1579  0.6184  0.6648
19588TIP3   OH280254   2.866   3.794   0.405  0.0258  0.7241  0.2208
19588TIP3    H180255   2.845   3.852   0.332  0.0547 -1.0122 -1.2340
19588TIP3    H280256   2.960   3.808   0.420  0.1381  0.7304 -0.4455
19589TIP3   OH280257   1.048   0.028   5.995  0.1265 -0.1343  0.3342
19589TIP3    H180258   0.983   0.063   6.055  0.3224  1.0234 -0.1094
19589TIP3    H280259   1.132   0.052   6.034  0.2545  1.4379 -0.8324
19590TIP3   OH280260   5.751   0.681   2.542 -0.3515  0.5452  0.1529
19590TIP3    H180261   5.732   0.731   2.622  0.5975 -2.0995  2.2040
19590TIP3    H280262   5.666   0.668   2.501 -0.8208  2.2802  0.4852
19591TIP3   OH280263   4.293   4.459   1.836  0.0373 -0.4181  0.2992
19591TIP3    H180264   4.199   4.442   1.849  0.0711 -1.6840 -0.8535
19591TIP3    H280265   4.297   4.550   1.806 -0.5273  0.6087  3.0806
19592TIP3   OH280266   6.007   0.095   4.288  0.4901  0.2657 -0.0371
19592TIP3    H180267   5.942   0.166   4.294  1.0048  1.0271 -2.3433
19592TIP3    H280268   5.959   0.023   4.245  0.5534 -0.0222  0.3686
19593TIP3   OH280269   3.809   2.487  15.270 -0.2632  0.4208  1.0612
19593TIP3    H180270   3.716   2.499  15.286 -0.3590  0.9138  0.2105
19593TIP3    H280271   3.850   2.497  15.356 -0.8575  1.6967  1.2173
19594TIP3   OH280272   0.886   0.104  17.130  0.0507 -0.3197 -0.2620
19594TIP3    H180273   0.946   0.115  17.056  0.3302  0.6382  0.0894
19594TIP3    H280274   0.799   0.118  17.093  0.2331  0.8520 -0.3020
19595TIP3   OH280275   4.459   5.008   1.332  0.2766  0.8079  0.3206
19595TIP3    H180276   4.503   5.055   1.262  2.2355 -0.1036  0.8697
19595TIP3    H280277   4.388   4.960   1.289  0.5750  1.3439 -0.7892
19596TIP3   OH280278   5.242   3.313  15.100 -0.1441  0.5605  0.7894
19596TIP3    H180279   5.192   3.389  15.070 -0.2788 -0.2672 -1.2306
19596TIP3    H280280   5.330   3.328  15.068 -0.3562 -0.4803 -0.3678
19597TIP3   OH280281   0.987   2.174   3.162 -0.4493  0.2190  0.0329
19597TIP3    H180282   1.037   2.114   3.217  1.0462  1.5469  0.1910
19597TIP3    H280283   0.907   2.192   3.212  0.3220  0.4442  1.2224
19598TIP3   OH280284   5.204   1.796   5.657 -0.3081 -0.2289  0.1945
19598TIP3    H180285   5.184   1.741   5.581 -2.4435  0.1301  0.4446
19598TIP3    H280286   5.123   1.843   5.675  1.2563  2.6712  0.3177
19599TIP3   OH280287   1.176   1.628  15.055 -0.2538  0.4757 -0.3179
19599TIP3    H180288   1.270   1.611  15.064 -0.1385  1.8770  1.8900
19599TIP3    H280289   1.139   1.609  15.141 -1.8907  0.5791 -0.9546
19600TIP3   OH280290   4.993   2.749   0.626 -0.4543 -0.2404 -0.7084
19600TIP3    H180291   4.961   2.687   0.692 -0.6869 -1.7295 -2.1761
19600TIP3    H280292   5.035   2.818   0.677  1.5762 -2.5407  0.9588
19601TIP3   OH280293   0.235   6.519  13.328  0.4956  0.2685 -0.0865
19601TIP3    H180294   0.232   6.429  13.296  1.0536 -0.3039  1.3654
19601TIP3    H280295   0.324   6.530  13.361  1.2798  2.2716 -2.6335
19602TIP3   OH280296   2.172   6.216  16.983 -0.4520  0.0464  0.1732
19602TIP3    H180297   2.161   6.126  16.955  2.6313 -0.5208  0.3707
19602TIP3    H280298   2.137   6.218  17.072 -2.4008 -0.3745 -0.5443
19603TIP3   OH280299   5.141   5.498  13.180 -0.1004 -0.5167  0.8476
19603TIP3    H180300   5.064   5.551  13.161 -0.8680 -1.8865 -0.0408
19603TIP3    H280301   5.206   5.527  13.116 -1.4442 -2.5114 -1.6118
19604TIP3   OH280302   3.804   4.498   3.031 -0.1138  0.0845  0.2500
19604TIP3    H180303   3.889   4.466   3.063  0.2693  0.3689 -0.4459
19604TIP3    H280304   3.787   4.576   3.083 -0.3426 -0.4272  0.9498
19605TIP3   OH280305   3.882   6.208  12.941 -0.3429  0.2972  0.2836
19605TIP3    H180306   3.889   6.194  12.847 -1.1174 -0.5129  0.3295
19605TIP3    H280307   3.946   6.148  12.979 -0.0239  0.6308  0.2767
19606TIP3   OH280308   1.636   5.055   0.490 -1.0048  0.5278 -0.1103
19606TIP3    H180309   1.565   5.082   0.432 -0.9325 -0.2864 -0.5872
19606TIP3    H280310   1.700   5.012   0.433 -0.0597  1.3462  0.2830
19607TIP3   OH280311   5.830   3.749  12.076 -0.3783 -0.1202 -0.1553
19607TIP3    H180312   5.833   3.691  11.999 -0.5483 -1.7284  1.0086
19607TIP3    H280313   5.890   3.708  12.138  1.1922  2.1734 -0.0705
19608TIP3   OH280314   1.461   2.733   1.722  0.0797  0.0534  0.0860
19608TIP3    H180315   1.447   2.638   1.715  0.1648 -0.1347  1.9915
19608TIP3    H280316   1.375   2.769   1.740  0.1790  0.2405  0.1875
19609TIP3   OH280317   6.077   4.939   6.410 -0.4276  0.3051  0.2934
19609TIP3    H180318   6.077   5.016   6.467  1.1057 -0.4900  1.4287
19609TIP3    H280319   6.044   4.868   6.465 -0.1489 -0.2216 -0.2089
19610TIP3   OH280320   1.912   5.841  12.856  0.1645  0.4305 -0.2543
19610TIP3    H180321   1.818   5.860  12.845  0.1590  0.2892 -0.4671
19610TIP3    H280322   1.956   5.909  12.807  0.1741  0.5330 -0.1025
19611TIP3   OH280323   1.280   6.139   4.936 -0.1560 -0.1697  0.0294
19611TIP3    H180324   1.360   6.175   4.975  0.2403  0.2989 -1.1763
19611TIP3    H280325   1.209   6.194   4.971  0.4571  2.1268 -2.0444
19612TIP3   OH280326   5.956   3.124  13.379  0.2695  0.0737  0.3277
19612TIP3    H180327   5.982   3.163  13.296  1.1863 -0.6490  0.2578
19612TIP3    H280328   5.938   3.199  13.436  1.1601  0.5949 -0.0517
19613TIP3   OH280329   3.866   4.181  13.311 -0.5008  0.0036  0.3250
19613TIP3    H180330   3.782   4.181  13.357 -1.7694  2.7906 -1.7432
19613TIP3    H280331   3.923   4.236  13.365 -0.3047 -0.9526  1.1298
19614TIP3   OH280332   3.372   0.890  13.361  0.0382 -0.1602  0.1337
19614TIP3    H180333   3.411   0.837  13.292 -2.3561  1.5091 -2.7782
19614TIP3    H280334   3.299   0.838  13.393 -0.2724 -0.0044 -0.3118
19615TIP3   OH280335   1.110   5.833  12.765  0.6711  0.2462 -0.2877
19615TIP3    H180336   1.015   5.821  12.771  0.6702  0.7289  0.8425
19615TIP3    H280337   1.146   5.744  12.772  0.2707 -0.1464 -2.3957
19616TIP3   OH280338   1.701   5.961  12.751 -0.0882 -0.5424  0.0722
19616TIP3    H180339   1.614   5.987  12.722 -0.6339  0.0893  2.1010
19616TIP3    H280340   1.746   6.043  12.769 -0.3202 -0.8462  2.3581
19617TIP3   OH280341   4.720   1.592   5.886 -0.8622 -0.5356 -0.0531
19617TIP3    H180342   4.800   1.617   5.839 -0.2781 -1.5278  0.3733
19617TIP3    H280343   4.661   1.561   5.817  0.9203 -4.5227 -0.0824
19618TIP3   OH280344   5.159   2.900  11.846  0.2547 -0.0107 -0.3503
19618TIP3    H180345   5.116   2.980  11.875  0.0623 -0.1989 -0.1137
19618TIP3    H280346   5.162   2.845  11.925  2.3560  0.6142  0.0852
19619TIP3   OH280347   3.829   1.126   6.178  0.0198 -0.2649  0.3299
19619TIP3    H180348   3.864   1.213   6.198 -1.2869  0.3576 -0.0275
19619TIP3    H280349   3.734   1.138   6.174 -0.1319 -1.5598 -0.4817
19620TIP3   OH280350   2.397   0.939  11.065 -0.4828  0.4873 -0.2043
19620TIP3    H180351   2.447   0.899  10.994 -0.5170  0.2711 -0.1036
19620TIP3    H280352   2.404   1.033  11.048 -0.5943  0.4318 -0.5670
19621TIP3   OH280353   3.392   2.104  13.509  0.1961  0.1091 -0.3997
19621TIP3    H180354   3.445   2.146  13.441  0.3159  2.1002  0.8492
19621TIP3    H280355   3.456   2.066  13.569  0.1814  0.7260  0.0176
19622TIP3   OH280356   4.303   4.530   1.414 -0.8450  0.6978 -0.6963
19622TIP3    H180357   4.226   4.546   1.360 -0.9415 -1.1636 -1.1985
19622TIP3    H280358   4.313   4.609   1.467 -3.2367  0.8916 -0.4363
19623TIP3   OH280359   3.856   4.914   0.564 -0.0030 -0.8713 -0.3615
19623TIP3    H180360   3.935   4.889   0.516  0.7995  0.1247  0.4131
19623TIP3    H280361   3.807   4.969   0.502 -0.0981 -1.4621 -0.8281
19624TIP3   OH280362   3.117   6.476  12.446  0.2926  0.0592 -0.1424
19624TIP3    H180363   3.145   6.385  12.445  1.3617  0.3655 -1.6937
19624TIP3    H280364   3.076   6.490  12.360 -0.1417  0.9533  0.1949
19625TIP3   OH280365   4.738   1.182   3.465  0.0295 -0.2395  0.1558
19625TIP3    H180366   4.786   1.145   3.390  2.9081 -0.4030  1.9131
19625TIP3    H280367   4.796   1.250   3.498 -1.3340  0.0613  2.0169
19626TIP3   OH280368   6.680   2.182  14.752  0.4780  0.0421  0.0442
19626TIP3    H180369   6.631   2.154  14.829 -1.0970 -0.8677 -1.2289
19626TIP3    H280370   6.761   2.132  14.756  1.5953  1.8693  2.4052
19627TIP3   OH280371   1.919   3.920   4.543 -0.5038 -0.1319 -0.4648
19627TIP3    H180372   2.013   3.920   4.559  0.0151  3.6136 -2.3809
19627TIP3    H280373   1.909   3.875   4.459 -0.5276 -0.7901 -0.1226
19628TIP3   OH280374   3.546   0.987   5.268  0.2685 -0.0297 -1.0988
19628TIP3    H180375   3.598   1.037   5.332 -0.3735 -2.1755  1.2896
19628TIP3    H280376   3.595   0.905   5.257 -0.5594 -0.4104 -1.9963
19629TIP3   OH280377   0.403   0.502  12.328  0.4818  0.0221 -0.2092
19629TIP3    H180378   0.357   0.530  12.249  0.5900 -1.8907 -1.0173
19629TIP3    H280379   0.431   0.583  12.370  0.0641  1.1039 -1.9134
19630TIP3   OH280380   5.049   4.567  11.706  0.3261  0.0802 -0.5792
19630TIP3    H180381   5.071   4.530  11.621 -0.9155  0.7908 -1.2306
19630TIP3    H280382   5.059   4.661  11.695 -0.5266  0.2312 -0.1560
19631TIP3   OH280383   6.312   3.699  16.033 -0.2284 -0.1751  0.3629
19631TIP3    H180384   6.250   3.693  15.960  0.6246  0.3186 -0.4229
19631TIP3    H280385   6.398   3.703  15.991  0.1494  4.2744  1.0999
19632TIP3   OH280386   1.195   2.609   1.733  0.0665 -0.6142  0.5612
19632TIP3    H180387   1.172   2.588   1.824  1.0543  1.2235  1.2818
19632TIP3    H280388   1.127   2.671   1.706 -0.1467 -1.0568  0.0718
19633TIP3   OH280389   4.930   2.593  12.397 -0.2184  0.5571  0.1043
19633TIP3    H180390   5.011   2.546  12.380 -2.5176 -3.3035 -1.4718
19633TIP3    H280391   4.873   2.528  12.438 -2.9489  2.7124  0.0053
19634TIP3   OH280392   6.043   3.567  11.434  0.4325  0.2784  0.3791
19634TIP3    H180393   6.127   3.541  11.471  0.2996  0.4590  0.8186
19634TIP3    H280394   5.982   3.500  11.464  0.8555 -1.3283 -2.0493
19635TIP3   OH280395   3.678   4.962   4.065  0.6777  0.2796  0.3213
19635TIP3    H180396   3.734   5.009   4.003 -2.3761  2.5786 -0.9229
19635TIP3    H280397   3.693   5.005   4.149 -0.3081  1.9222 -0.3171
19636TIP3   OH280398   2.721   3.883  14.668  0.4833  0.0372 -0.1194
19636TIP3    H180399   2.689   3.793  14.670  0.9170 -0.2021  3.3315
19636TIP3    H280400   2.665   3.928  14.605 -0.0812 -2.4955 -1.5343
19637TIP3   OH280401   1.010   1.040  12.467 -0.4779  0.0631 -0.1142
19637TIP3    H180402   1.055   0.960  12.494  0.5743  0.2786 -1.1504
19637TIP3    H280403   0.917   1.022  12.481 -0.1673 -0.8653  0.8493
19638TIP3   OH280404   2.921   3.283   5.621  0.0936  0.0857  0.4437
19638TIP3    H180405   2.882   3.247   5.541  0.6595 -0.8105  0.5645
19638TIP3    H280406   2.856   3.267   5.689 -0.3970  0.8656  0.1741
19639TIP3   OH280407   2.962   3.202   0.891  0.2009 -0.0354 -0.5539
19639TIP3    H180408   2.946   3.111   0.913 -0.3400  0.5590  1.7224
19639TIP3    H280409   2.882   3.248   0.915  1.3996  1.4083  0.8774
19640TIP3   OH280410   6.833   5.193  15.987  0.3673 -0.1083  0.2053
19640TIP3    H180411   6.764   5.257  16.005 -0.0062  0.0552 -1.6257
19640TIP3    H280412   6.893   5.239  15.927  0.3694 -1.2840 -0.7265
19641TIP3   OH280413   4.408   4.244   2.651 -0.2573  0.1370  0.3296
19641TIP3    H180414   4.405   4.263   2.745 -1.9847  2.2137 -0.0746
19641TIP3    H280415   4.367   4.320   2.610 -0.0191 -0.9625 -2.0942
19642TIP3   OH280416   4.325   4.732   5.885  0.2010 -0.6100 -0.5514
19642TIP3    H180417   4.337   4.826   5.898  0.3580 -0.2699 -2.7807
19642TIP3    H280418   4.316   4.697   5.973 -1.3470  1.6859  0.3096
19643TIP3   OH280419   2.314   4.775   2.319 -0.3687 -0.3074  0.1004
19643TIP3    H180420   2.307   4.730   2.235  2.4842 -1.9336  0.6224
19643TIP3    H280421   2.389   4.834   2.308  0.5263 -1.0986  1.7054
19644TIP3   OH280422   6.351   5.811   1.487 -0.0663  0.2057 -0.0442
19644TIP3    H180423   6.351   5.865   1.409 -0.2482  0.6020  0.2289
19644TIP3    H280424   6.434   5.763   1.483 -1.0949 -1.5456 -1.6749
19645TIP3   OH280425   5.340   5.194   2.918 -0.6253 -1.0444  0.1937
19645TIP3    H180426   5.308   5.253   2.986  0.4114 -1.0219  0.6849
19645TIP3    H280427   5.343   5.247   2.839 -1.7751 -1.0495  0.1375
19646TIP3   OH280428   5.108   4.442  15.162 -0.1299 -0.3471  0.3007
19646TIP3    H180429   5.170   4.390  15.214  1.0675  1.1811  0.4640
19646TIP3    H280430   5.067   4.378  15.104  1.5899 -1.4347  0.1969
19647TIP3   OH280431   2.156   5.665  15.003 -0.3892 -0.4222  0.0971
19647TIP3    H180432   2.237   5.670  15.054  0.1579 -0.4807 -0.7557
19647TIP3    H280433   2.120   5.579  15.025 -0.5481 -0.1456  0.9510
19648TIP3   OH280434   2.961   3.344   3.386 -0.4236 -0.6464 -0.8821
19648TIP3    H180435   2.993   3.254   3.384 -1.1906 -0.9157 -1.9091
19648TIP3    H280436   3.039   3.398   3.375  0.0489 -1.1775 -0.2110
19649TIP3   OH280437   4.117   2.612  14.840 -0.0039 -0.2241  0.2739
19649TIP3    H180438   4.108   2.518  14.830  1.6602 -0.3035 -0.9396
19649TIP3    H280439   4.211   2.626  14.853 -0.0159  1.3470 -0.9580
19650TIP3   OH280440   1.362   3.228  12.510  0.0763  0.1397 -0.0416
19650TIP3    H180441   1.353   3.320  12.535  1.2036 -0.1420  1.5433
19650TIP3    H280442   1.419   3.190  12.577 -2.3976 -2.3383  0.8604
19651TIP3   OH280443   6.800   0.072   3.128 -0.5801  0.2989 -0.1546
19651TIP3    H180444   6.835   0.099   3.043 -1.1167 -0.4648 -0.6338
19651TIP3    H280445   6.876   0.073   3.186 -0.1328  0.4866 -0.7264
19652TIP3   OH280446   3.938   1.383   6.197 -0.7737  0.1703  0.6272
19652TIP3    H180447   3.858   1.435   6.185 -0.6128  0.2486 -0.1206
19652TIP3    H280448   3.992   1.435   6.256 -0.3494  1.1617 -0.6036
19653TIP3   OH280449   1.772   0.289   3.671  0.7131 -0.5823  0.0898
19653TIP3    H180450   1.726   0.277   3.754  3.4533  0.7355  1.9568
19653TIP3    H280451   1.831   0.213   3.665 -1.3148 -2.1232 -2.1355
19654TIP3   OH280452   6.501   1.290   0.860  0.1417 -0.4685 -0.4948
19654TIP3    H180453   6.534   1.374   0.826  0.0301 -1.3830 -3.0489
19654TIP3    H280454   6.574   1.230   0.850 -0.4375 -1.1511 -0.6978
19655TIP3   OH280455   3.683   3.156   3.191  0.0859  0.4085  0.3521
19655TIP3    H180456   3.773   3.180   3.167  0.9143 -1.9482  0.7277
19655TIP3    H280457   3.640   3.137   3.107 -0.2482  2.0061  0.1365
19656TIP3   OH280458   2.415   1.868  13.572  0.3734  0.1410 -0.3782
19656TIP3    H180459   2.418   1.773  13.555 -2.9770 -0.7987  2.9620
19656TIP3    H280460   2.454   1.878  13.659 -0.7003  1.5641 -0.0302
19657TIP3   OH280461   5.110   0.848  10.342 -0.1378  0.2554  0.4179
19657TIP3    H180462   5.189   0.903  10.334  0.7766 -0.9271  0.9845
19657TIP3    H280463   5.090   0.849  10.436  0.3148 -0.9092  0.5492
19658TIP3   OH280464   1.002   5.075   3.832 -0.3695  0.7435  0.4518
19658TIP3    H180465   0.978   5.160   3.795 -0.2421  0.6629  0.1797
19658TIP3    H280466   1.091   5.059   3.799 -0.9747 -0.2059 -0.7888
19659TIP3   OH280467   5.340   1.460   2.072  0.3663  0.1949  0.3125
19659TIP3    H180468   5.435   1.449   2.080  0.2837 -0.5116  0.4498
19659TIP3    H280469   5.326   1.554   2.075  1.2046  0.4095 -1.2616
19660TIP3   OH280470   4.046   0.984  17.056  0.6072 -0.4024 -0.1682
19660TIP3    H180471   4.022   0.891  17.050 -1.7296  0.1437 -0.1479
19660TIP3    H280472   4.068   1.008  16.966  0.9909 -0.9172 -0.2168
19661TIP3   OH280473   5.415   6.780  15.701  0.3948  0.0295  0.5203
19661TIP3    H180474   5.452   6.742  15.621  0.0795 -0.0430  0.4064
19661TIP3    H280475   5.487   6.779  15.764  0.3989 -0.7699  0.5225
19662TIP3   OH280476   0.221   1.629   0.794  0.1520 -0.2690 -0.1520
19662TIP3    H180477   0.134   1.666   0.811  0.5957 -0.2115  2.5145
19662TIP3    H280478   0.261   1.689   0.731 -1.2249  0.5153 -0.3091
19663TIP3   OH280479   1.612   1.588  11.232 -0.1664 -0.5882  0.4312
19663TIP3    H180480   1.692   1.550  11.268 -0.5787 -2.3027 -0.3469
19663TIP3    H280481   1.542   1.558  11.291 -0.3615  0.0081  0.5068
19664TIP3   OH280482   5.467   2.339  11.640  0.0607 -0.3022  0.3939
19664TIP3    H180483   5.537   2.298  11.589  0.9335 -0.2767  1.5389
19664TIP3    H280484   5.462   2.287  11.720 -1.0075 -0.0951  0.4767
19665TIP3   OH280485   1.838   6.755   0.585  0.6453 -0.3809  0.3471
19665TIP3    H180486   1.923   6.798   0.589  1.1165 -1.3310  0.6739
19665TIP3    H280487   1.839   6.707   0.502  0.2645 -0.0803  0.1613
19666TIP3   OH280488   3.371   4.531   5.584  0.0481  0.1724 -0.0038
19666TIP3    H180489   3.432   4.604   5.578 -1.1429  1.2876  0.8839
19666TIP3    H280490   3.293   4.562   5.539 -1.0905  0.1652  1.8515
19667TIP3   OH280491   2.109   3.556   3.320  0.1739 -0.4432  0.0393
19667TIP3    H180492   2.013   3.558   3.325  0.1986  1.2950  0.4684
19667TIP3    H280493   2.130   3.466   3.295 -1.7083 -0.2140 -2.8002
19668TIP3   OH280494   4.619   1.610  11.115 -0.1658  0.3334 -0.1573
19668TIP3    H180495   4.562   1.682  11.143 -1.4064 -0.5711 -0.2898
19668TIP3    H280496   4.615   1.612  11.019 -2.0543 -1.2981 -0.1614
19669TIP3   OH280497   0.592   4.531   4.266 -0.0252 -0.7039 -0.4567
19669TIP3    H180498   0.556   4.615   4.292 -0.7252 -0.6580 -1.4793
19669TIP3    H280499   0.662   4.552   4.205  0.5475 -0.8427  0.1424
19670TIP3   OH280500   3.622   1.174  16.610 -0.8265 -0.3037  0.0230
19670TIP3    H180501   3.704   1.204  16.570 -1.5913  0.2961 -1.1258
19670TIP3    H280502   3.591   1.249  16.660 -0.4197 -0.7038  0.8904
19671TIP3   OH280503   4.331   3.010   4.839  0.5863 -0.0966  0.0669
19671TIP3    H180504   4.329   3.002   4.934 -0.1934  0.9860  0.1643
19671TIP3    H280505   4.360   3.100   4.823 -1.2970  0.4270 -0.6460
19672TIP3   OH280506   4.119   5.532   5.160 -0.8250 -0.4035 -0.4287
19672TIP3    H180507   4.154   5.621   5.149  0.8966 -0.9471  0.2242
19672TIP3    H280508   4.172   5.495   5.231 -2.9102 -1.2727  0.7390
19673TIP3   OH280509   0.302   3.974   6.149 -0.4702  0.2563 -0.5468
19673TIP3    H180510   0.265   3.981   6.237  1.0782  1.5236  0.0549
19673TIP3    H280511   0.285   4.059   6.108 -0.8072 -0.1752 -1.3268
19674TIP3   OH280512   5.238   2.113   3.464  0.2087 -0.0591  0.3849
19674TIP3    H180513   5.164   2.165   3.497  0.5168  1.9952 -1.8606
19674TIP3    H280514   5.202   2.068   3.387  1.4880  2.1194 -1.6425
19675TIP3   OH280515   2.144   5.080  16.379  0.5801  0.0201  0.2460
19675TIP3    H180516   2.066   5.035  16.344  0.8429 -0.6165  0.4583
19675TIP3    H280517   2.123   5.095  16.471  1.1429 -1.1813  0.5940
19676TIP3   OH280518   1.322   6.544   0.073 -0.1485 -0.4816 -0.3457
19676TIP3    H180519   1.341   6.601   0.148  0.8097  0.4264 -1.2529
19676TIP3    H280520   1.395   6.482   0.072 -0.7457 -1.2201  0.1199
19677TIP3   OH280521   5.674   5.309   1.416 -0.1112  0.2764  0.0450
19677TIP3    H180522   5.718   5.319   1.500 -1.1643  0.5293  0.5834
19677TIP3    H280523   5.665   5.215   1.404  0.9040  0.2054 -0.2612
19678TIP3   OH280524   4.798   5.769   4.847 -0.0678 -0.0579  0.6442
19678TIP3    H180525   4.877   5.715   4.844  0.4404  0.6692  0.8018
19678TIP3    H280526   4.737   5.719   4.901  0.8658  0.1418  1.9305
19679TIP3   OH280527   3.003   5.109   1.766 -0.3460 -0.4269 -0.3580
19679TIP3    H180528   3.088   5.152   1.764 -0.6275  0.1100 -1.2820
19679TIP3    H280529   2.955   5.152   1.837 -0.3086  0.1797 -0.6975
19680TIP3   OH280530   2.031   2.896   2.204 -0.1944  0.2950 -0.4300
19680TIP3    H180531   2.100   2.885   2.138 -0.1347  0.3150 -0.3714
19680TIP3    H280532   1.950   2.882   2.156 -0.1384 -0.0019 -0.4438
19681TIP3   OH280533   4.456   5.758  15.912  0.1115 -0.2766 -0.1680
19681TIP3    H180534   4.457   5.697  15.987  2.0560  0.1138  0.1640
19681TIP3    H280535   4.531   5.732  15.859  1.9337  2.7062  0.7479
19682TIP3   OH280536   3.291   6.488   0.042 -0.2611 -0.6415  0.4642
19682TIP3    H180537   3.342   6.408   0.053  3.8522  1.2091 -2.3571
19682TIP3    H280538   3.250   6.479  -0.044  0.8100  0.4050 -0.2000
19683TIP3   OH280539   4.829   2.970   6.676  0.7187  0.1722 -0.6044
19683TIP3    H180540   4.857   2.892   6.629  2.3726 -0.8021  1.8149
19683TIP3    H280541   4.873   3.043   6.631 -0.1057 -0.3494 -2.3117
19684TIP3   OH280542   0.107   4.805  16.786 -0.2580  1.1354 -0.0159
19684TIP3    H180543   0.050   4.870  16.827 -1.1075  1.0054 -0.9479
19684TIP3    H280544   0.144   4.850  16.710  0.6781  1.1262  0.4222
19685TIP3   OH280545   0.826   4.365   5.205 -0.1925  0.3461 -0.0046
19685TIP3    H180546   0.733   4.387   5.204 -0.3735 -0.3622 -1.0174
19685TIP3    H280547   0.867   4.435   5.256 -1.2691  0.6957  0.4084
19686TIP3   OH280548   3.160   4.935  14.505  0.5882  0.0734 -0.1883
19686TIP3    H180549   3.207   4.861  14.465  0.3365  0.3078 -0.9329
19686TIP3    H280550   3.229   4.994  14.534  0.7789  0.8597 -2.1124
19687TIP3   OH280551   0.122   4.639  11.998  0.0965 -0.0079  0.1180
19687TIP3    H180552   0.214   4.613  12.005  0.0373 -0.6669 -1.1102
19687TIP3    H280553   0.123   4.716  11.941 -0.0730  0.2857  0.5089
19688TIP3   OH280554   6.451   2.679   3.184  0.0002  0.6118  0.1298
19688TIP3    H180555   6.542   2.682   3.216  0.6767  0.3547 -1.6399
19688TIP3    H280556   6.414   2.763   3.213  1.7648  2.1262 -1.6789
19689TIP3   OH280557   1.840   1.883  14.675  0.0528  0.1550  0.6866
19689TIP3    H180558   1.859   1.790  14.668 -0.5085  0.0652  0.2483
19689TIP3    H280559   1.880   1.910  14.758 -1.5922 -0.9292  1.8802
19690TIP3   OH280560   0.266   5.878   4.396 -0.0295 -0.5602  0.1774
19690TIP3    H180561   0.312   5.912   4.320  0.4304 -0.2418  0.5879
19690TIP3    H280562   0.211   5.950   4.426  0.5367 -0.3424  0.7254
19691TIP3   OH280563   0.018   6.303   0.425 -0.2421  0.5119 -0.8861
19691TIP3    H180564  -0.012   6.366   0.359 -3.5010  2.4866  2.0922
19691TIP3    H280565   0.074   6.353   0.483  2.1064 -1.0452 -1.6676
19692TIP3   OH280566   6.189   6.007   2.250 -0.3434 -0.1813 -0.3072
19692TIP3    H180567   6.274   6.048   2.235 -0.3128 -0.1653 -0.1019
19692TIP3    H280568   6.138   6.026   2.171 -0.7327  1.2845  0.2690
19693TIP3   OH280569   5.125   0.628  16.824 -0.1654 -0.4468  0.2538
19693TIP3    H180570   5.165   0.562  16.880 -0.6527 -2.5036 -1.6996
19693TIP3    H280571   5.197   0.665  16.774 -0.1032 -0.6317  0.2102
19694TIP3   OH280572   2.276   0.928   2.988 -0.0435 -0.5457  0.3535
19694TIP3    H180573   2.259   0.834   2.992 -1.0038 -0.5135 -1.6127
19694TIP3    H280574   2.195   0.966   2.955  0.6071  0.8736  0.3154
19695TIP3   OH280575   6.529   1.502  13.692 -0.1443 -0.9607  0.3560
19695TIP3    H180576   6.553   1.451  13.769  0.6219  1.2508  1.6378
19695TIP3    H280577   6.455   1.453  13.654  0.9036 -3.3098  1.1366
19696TIP3   OH280578   6.119   1.002  15.026 -0.6056  1.1120 -0.3789
19696TIP3    H180579   6.029   0.989  15.056 -0.5420  0.0545 -0.6157
19696TIP3    H280580   6.145   1.085  15.065 -1.5674  1.2685 -0.0292
19697TIP3   OH280581   5.364   1.056   6.238 -0.3351 -0.8503 -0.5117
19697TIP3    H180582   5.369   0.998   6.314 -2.0427 -0.4087 -0.0168
19697TIP3    H280583   5.357   1.144   6.275  0.5154 -0.4707 -1.2227
19698TIP3   OH280584   3.321   1.772  15.045 -0.3458 -0.1127  0.1948
19698TIP3    H180585   3.262   1.705  15.079 -0.4631 -0.0477  0.1173
19698TIP3    H280586   3.265   1.845  15.021 -0.1645  0.2207  0.7615
19699TIP3   OH280587   5.398   4.078  13.140  0.0276  0.2098 -0.1238
19699TIP3    H180588   5.377   4.096  13.231  1.0848  1.8298 -0.1591
19699TIP3    H280589   5.480   4.124  13.125  0.4842 -1.0052 -1.5836
19700TIP3   OH280590   0.471   3.041  12.093  0.8788 -0.1245  0.2340
19700TIP3    H180591   0.555   3.085  12.095  0.8530 -0.0934  0.6618
19700TIP3    H280592   0.478   2.972  12.159  0.2516  0.4700  0.9412
19701TIP3   OH280593   6.007   5.884   0.997  0.1572  0.4720 -0.0361
19701TIP3    H180594   6.101   5.894   0.983  0.2330  0.3913  0.3906
19701TIP3    H280595   5.986   5.800   0.956  0.1945  0.6788 -0.4811
19702TIP3   OH280596   4.242   5.940  15.066 -0.2965 -0.4709  0.3562
19702TIP3    H180597   4.220   5.992  15.143 -1.8425 -0.0405 -0.3442
19702TIP3    H280598   4.160   5.933  15.017  0.6454 -0.7196 -1.2629
19703TIP3   OH280599   5.591   6.312   3.647  0.5808 -0.1652 -0.0360
19703TIP3    H180600   5.611   6.244   3.711  1.8556 -0.7530 -1.0154
19703TIP3    H280601   5.613   6.273   3.562 -0.3779  0.8440 -0.7850
19704TIP3   OH280602   4.760   5.789  15.013  0.4670  0.8073 -0.1955
19704TIP3    H180603   4.739   5.736  14.936  3.4254 -1.2136  0.2291
19704TIP3    H280604   4.751   5.730  15.087 -0.1954  2.1223  0.8197
19705TIP3   OH280605   2.439   0.304   3.566 -0.6014 -0.0291  0.1717
19705TIP3    H180606   2.441   0.380   3.624 -0.2583 -0.5676  0.8891
19705TIP3    H280607   2.526   0.264   3.576 -0.6756 -0.3520 -0.4165
19706TIP3   OH280608   3.522   6.478   3.990 -0.2544 -0.8579  0.0611
19706TIP3    H180609   3.513   6.402   4.048  0.6694  0.0466  1.4640
19706TIP3    H280610   3.607   6.517   4.014 -1.4131  1.5490  0.5617
19707TIP3   OH280611   2.961   2.397  12.180  0.3336 -0.6929 -0.4630
19707TIP3    H180612   2.927   2.309  12.165 -0.5708 -0.4362  0.0160
19707TIP3    H280613   2.894   2.455  12.143  0.6347 -0.1902 -0.2251
19708TIP3   OH280614   4.204   5.166  16.996 -0.0015 -0.4092 -0.6438
19708TIP3    H180615   4.124   5.115  16.989  1.8432 -3.7263  0.1719
19708TIP3    H280616   4.266   5.121  16.939  0.8469  3.3393 -3.0605
19709TIP3   OH280617   3.907   6.782   3.205  0.2043 -0.1900 -0.2487
19709TIP3    H180618   3.913   6.789   3.109 -0.2913 -0.3884 -0.2965
19709TIP3    H280619   3.992   6.744   3.231  0.5733  0.4186 -0.5441
19710TIP3   OH280620   6.755   5.096  15.329 -0.0813 -0.1877  0.3734
19710TIP3    H180621   6.847   5.072  15.313 -0.2035  0.0606 -0.7628
19710TIP3    H280622   6.723   5.126  15.244 -1.5670 -1.3687  0.4801
19711TIP3   OH280623   3.004   6.384  11.177  0.5314  0.6348 -0.1291
19711TIP3    H180624   2.936   6.405  11.113  1.2003  0.0191 -1.0734
19711TIP3    H280625   2.977   6.429  11.257 -0.1952  1.6364 -0.9140
19712TIP3   OH280626   2.341   3.619   5.595  0.2036 -0.1907 -0.0166
19712TIP3    H180627   2.308   3.645   5.681 -0.3076 -2.5312  0.5772
19712TIP3    H280628   2.427   3.581   5.613  0.5160  0.1934 -0.6783
19713TIP3   OH280629   5.344   0.346   2.456  0.1290  0.3589  0.3705
19713TIP3    H180630   5.271   0.364   2.397 -0.3321 -3.8044 -0.6399
19713TIP3    H280631   5.303   0.301   2.531  1.4946 -1.1767  0.2349
19714TIP3   OH280632   1.334   5.675  16.144  0.3444  0.1842  0.0754
19714TIP3    H180633   1.324   5.766  16.173 -0.3724 -0.0252  0.5104
19714TIP3    H280634   1.270   5.626  16.196  1.3954 -0.7259  0.5762
19715TIP3   OH280635   3.779   5.040  16.172 -0.5353  0.2787 -0.2844
19715TIP3    H180636   3.766   5.111  16.109 -1.7205  0.0633 -0.3047
19715TIP3    H280637   3.835   4.977  16.127 -0.4964  0.6255 -0.7283
19716TIP3   OH280638   1.861   1.703   3.259 -0.3594  0.0596 -0.1213
19716TIP3    H180639   1.769   1.730   3.266 -0.2361  0.2951  0.6422
19716TIP3    H280640   1.892   1.747   3.180 -0.2484  1.9630  0.9077
19717TIP3   OH280641   1.927   0.277   0.379 -0.3062  0.0300  0.1630
19717TIP3    H180642   1.858   0.326   0.426  0.9902  1.3521  0.7714
19717TIP3    H280643   1.944   0.329   0.301 -0.6690 -0.8346 -0.5118
19718TIP3   OH280644   0.001   3.276   4.013  0.1166  0.2354  0.5887
19718TIP3    H180645  -0.008   3.368   3.986 -0.1973 -0.2423 -1.0197
19718TIP3    H280646  -0.067   3.263   4.079 -0.4783  0.9040  0.1194
19719TIP3   OH280647   1.005   0.071  14.308  0.0503  0.0384  0.3403
19719TIP3    H180648   1.065   0.066  14.233 -0.7250  0.2324 -0.3015
19719TIP3    H280649   0.948  -0.005  14.299 -1.1376  0.9718 -0.2288
19720TIP3   OH280650   6.551   5.591   2.265  0.4492  0.2336  0.1924
19720TIP3    H180651   6.638   5.563   2.235  0.8015  0.9623  0.5022
19720TIP3    H280652   6.564   5.616   2.356 -0.2579 -0.3736  0.4617
19721TIP3   OH280653   3.854   1.543   2.488 -0.0626 -0.6009 -0.3425
19721TIP3    H180654   3.886   1.626   2.523  0.1055  0.4587 -2.8567
19721TIP3    H280655   3.934   1.493   2.469 -0.0613 -0.3045 -1.1587
19722TIP3   OH280656   0.237   2.992   4.173 -0.3313 -0.2957  0.0047
19722TIP3    H180657   0.218   3.077   4.214 -1.2490 -1.0697  1.2652
19722TIP3    H280658   0.227   3.007   4.079  0.3709  1.1830  0.1399
19723TIP3   OH280659   5.477   3.605  13.625  0.1321  0.6800  0.0613
19723TIP3    H180660   5.526   3.652  13.693 -1.0555  1.1695  0.6108
19723TIP3    H280661   5.471   3.667  13.553 -1.2232  1.3500  0.6948
19724TIP3   OH280662   1.293   6.092   0.834 -0.1075 -0.1279  0.4042
19724TIP3    H180663   1.245   6.113   0.914 -2.1888  0.9446 -1.0503
19724TIP3    H280664   1.385   6.108   0.857 -0.7039  0.7042  2.4006
19725TIP3   OH280665   4.393   1.094   2.182  0.0829  0.4992  0.9024
19725TIP3    H180666   4.347   1.044   2.250 -0.6079 -0.0877  0.0341
19725TIP3    H280667   4.466   1.038   2.157 -0.5676 -0.0175  0.0809
19726TIP3   OH280668   0.296   5.198   6.506 -0.1025  0.3383  0.2780
19726TIP3    H180669   0.368   5.142   6.477  0.9463  1.4528  0.6465
19726TIP3    H280670   0.224   5.178   6.446  0.8522 -0.0442 -0.7665
19727TIP3   OH280671   3.305   5.064  14.989 -0.4290  0.5891  0.3905
19727TIP3    H180672   3.275   5.084  14.901 -0.0554 -0.4796  0.0074
19727TIP3    H280673   3.389   5.020  14.977 -0.5072  0.1678  1.2567
19728TIP3   OH280674   5.622   1.052  15.970 -0.7579 -0.0155  0.0482
19728TIP3    H180675   5.581   1.006  16.043 -3.4023  0.4184 -1.0495
19728TIP3    H280676   5.656   0.982  15.913  1.0692 -0.3581  1.4476
19729TIP3   OH280677   0.021   3.245   3.743 -0.2865 -0.0756  0.2921
19729TIP3    H180678   0.015   3.251   3.839 -0.3536 -1.7918  0.4273
19729TIP3    H280679   0.111   3.219   3.726 -0.4199 -0.2936 -0.0822
19730TIP3   OH280680   0.250   0.638   1.933 -0.2043  0.5391 -0.6998
19730TIP3    H180681   0.257   0.627   2.028  2.4814 -0.5998 -0.9340
19730TIP3    H280682   0.315   0.705   1.911  0.5469 -0.5143 -1.8798
19731TIP3   OH280683   0.604   6.353   3.159 -0.2291 -0.6600  0.2106
19731TIP3    H180684   0.528   6.345   3.101 -0.0690  0.5014 -0.1846
19731TIP3    H280685   0.584   6.295   3.232 -2.0204  0.4158  0.6347
19732TIP3   OH280686   3.550   1.793   6.045  0.0897  0.2942 -0.1397
19732TIP3    H180687   3.476   1.833   5.999 -1.1290 -1.5224  0.1136
19732TIP3    H280688   3.619   1.786   5.979 -0.8507 -0.2301 -1.1011
19733TIP3   OH280689   6.459   4.293  12.290  1.2973  0.4551  0.2882
19733TIP3    H180690   6.375   4.321  12.325  1.6112  1.0077  0.6154
19733TIP3    H280691   6.465   4.200  12.313 -0.5567 -0.4373 -2.3702
19734TIP3   OH280692   5.507   2.799  11.934 -0.2186 -0.2776 -0.5571
19734TIP3    H180693   5.592   2.834  11.907 -0.1100 -0.5046 -0.5135
19734TIP3    H280694   5.528   2.718  11.980 -0.3862  0.1779  0.3390
19735TIP3   OH280695   4.485   6.270  16.700  0.2744  0.3002  0.1820
19735TIP3    H180696   4.539   6.339  16.660  0.6260 -0.7994 -1.3452
19735TIP3    H280697   4.548   6.214  16.744  0.3010 -0.4711 -0.8099
19736TIP3   OH280698   4.650   6.393  15.275 -0.2018  0.1653 -0.4877
19736TIP3    H180699   4.719   6.329  15.255 -0.2421  0.0477 -0.2536
19736TIP3    H280700   4.668   6.466  15.216 -0.8532 -0.5435 -1.5754
19737TIP3   OH280701   2.330   0.609  14.750  0.1261 -0.0202  0.3551
19737TIP3    H180702   2.349   0.604  14.657 -1.4263 -0.8371  0.0445
19737TIP3    H280703   2.280   0.530  14.769 -1.1665  1.0016  1.4823
19738TIP3   OH280704   2.036   6.366   3.426 -0.3156  0.1337 -0.2890
19738TIP3    H180705   2.126   6.366   3.459  0.1609 -2.9083 -1.2580
19738TIP3    H280706   1.991   6.432   3.478  1.8512 -0.1246  2.0810
19739TIP3   OH280707   3.013   1.588   1.726 -0.0580 -0.6292 -0.1022
19739TIP3    H180708   2.922   1.606   1.702  0.2205  1.3437  0.1295
19739TIP3    H280709   3.014   1.496   1.751 -1.9662 -0.7087 -0.1926
19740TIP3   OH280710   4.426   6.490   6.449 -1.0494  0.1196  0.2587
19740TIP3    H180711   4.369   6.495   6.372 -0.8177 -0.2242  0.0608
19740TIP3    H280712   4.510   6.524   6.419 -0.4555 -1.5664 -0.1424
19741TIP3   OH280713   4.256   1.892   5.090  0.2970 -0.2033  0.5386
19741TIP3    H180714   4.287   1.803   5.109  1.5130 -0.2325 -1.3533
19741TIP3    H280715   4.205   1.916   5.168  1.8550 -1.6639  2.1156
19742TIP3   OH280716   5.055   6.431  11.860  0.4767  0.6231 -0.0487
19742TIP3    H180717   4.981   6.377  11.886  1.1772 -0.9409 -1.1540
19742TIP3    H280718   5.024   6.521  11.869 -0.7870  0.0671  1.6498
19743TIP3   OH280719   1.669   0.093  16.799  0.7130  0.0452  0.3426
19743TIP3    H180720   1.612   0.092  16.876 -0.6065 -0.0241 -0.6072
19743TIP3    H280721   1.671   0.002  16.770  0.3392  0.2421 -0.3157
19744TIP3   OH280722   1.281   4.694  12.836 -0.1257 -0.6551  0.4159
19744TIP3    H180723   1.237   4.765  12.882 -0.5894 -0.9978  0.5089
19744TIP3    H280724   1.299   4.629  12.904  1.8390  0.0829  0.6687
19745TIP3   OH280725   2.334   5.327  15.416  0.1291  0.8183 -0.7557
19745TIP3    H180726   2.285   5.409  15.428 -1.3599 -0.2691  1.1286
19745TIP3    H280727   2.403   5.331  15.482 -0.4930  0.1882 -0.0540
19746TIP3   OH280728   1.915   2.724   6.279  0.0881  0.0834 -0.0899
19746TIP3    H180729   1.822   2.704   6.270  0.2263 -0.1826 -1.0493
19746TIP3    H280730   1.957   2.639   6.293  0.0891  0.3058  1.3902
19747TIP3   OH280731   6.602   1.616   4.994  0.3301 -0.4077 -0.7788
19747TIP3    H180732   6.542   1.690   4.990  0.9756  0.4813  2.6707
19747TIP3    H280733   6.657   1.626   4.916  1.1949  3.5545  0.1324
19748TIP3   OH280734   1.549   3.238   5.711  0.6268 -0.1023  0.1937
19748TIP3    H180735   1.524   3.183   5.785 -0.3797 -2.1330 -1.5134
19748TIP3    H280736   1.473   3.236   5.653  1.9465  0.0228 -1.6356
19749TIP3   OH280737   4.142   4.421   3.402  0.3714 -0.5168 -0.3082
19749TIP3    H180738   4.117   4.455   3.316  0.6230  0.1120 -0.1338
19749TIP3    H280739   4.203   4.485   3.437 -1.7087  0.6515  1.4775
19750TIP3   OH280740   2.707   4.872   3.560  0.3946  0.4440 -0.1600
19750TIP3    H180741   2.715   4.801   3.497 -1.6427 -0.5430  0.5925
19750TIP3    H280742   2.796   4.904   3.572  1.0289 -0.3808 -2.3157
19751TIP3   OH280743   3.334   6.791   4.536 -0.2188 -0.4921 -0.4763
19751TIP3    H180744   3.406   6.837   4.493 -2.6157  3.5572 -0.6645
19751TIP3    H280745   3.372   6.756   4.616  2.2440  0.2011 -1.2724
19752TIP3   OH280746   4.961   0.081   3.104  0.4604 -0.2809 -0.5285
19752TIP3    H180747   5.018   0.063   3.178 -0.2957  0.4460  0.2537
19752TIP3    H280748   5.011   0.142   3.050  0.4701  0.2735  0.0969
19753TIP3   OH280749   1.267   5.706   5.325 -0.5024  0.8457 -0.1708
19753TIP3    H180750   1.257   5.621   5.367 -0.0349  1.1300  0.5394
19753TIP3    H280751   1.219   5.699   5.243 -0.6566 -0.0257 -0.0078
19754TIP3   OH280752   0.424   4.671  12.780  0.6241 -0.8323  0.1980
19754TIP3    H180753   0.338   4.642  12.811  2.3230 -2.1888  4.4723
19754TIP3    H280754   0.416   4.766  12.773 -0.9277 -0.7867  1.8008
19755TIP3   OH280755   2.027   2.798   3.690  0.3178  0.1388  0.2893
19755TIP3    H180756   1.952   2.755   3.732  1.1451 -0.3840  1.2682
19755TIP3    H280757   2.095   2.800   3.757  0.6928  2.0108 -0.0713
19756TIP3   OH280758   3.491   4.232  12.682  0.2873  0.0162  0.1730
19756TIP3    H180759   3.428   4.196  12.619 -1.8927  2.1390  0.9942
19756TIP3    H280760   3.472   4.186  12.764  2.5224 -2.0978 -0.3678
19757TIP3   OH280761   2.728   3.719   3.918 -0.0989 -0.2421 -0.0566
19757TIP3    H180762   2.662   3.759   3.861  0.5781 -0.5024 -1.0486
19757TIP3    H280763   2.803   3.778   3.912 -0.1603 -0.0511  0.9133
19758TIP3   OH280764   0.851   1.533   3.362  0.3367 -0.6345  0.6338
19758TIP3    H180765   0.884   1.449   3.332 -1.0150 -1.3515  1.0731
19758TIP3    H280766   0.808   1.570   3.284  0.9740 -0.3175  0.4272
19759TIP3   OH280767   4.013   3.545   5.278 -0.4937  0.5087 -0.6011
19759TIP3    H180768   4.010   3.463   5.229 -2.0353  0.6179 -0.7327
19759TIP3    H280769   3.932   3.591   5.254  0.2560  2.0133 -0.4151
19760TIP3   OH280770   1.306   6.688   3.937  0.4047 -0.0938  0.2618
19760TIP3    H180771   1.316   6.773   3.981 -1.6010  0.0071  0.6033
19760TIP3    H280772   1.254   6.708   3.859  0.4119 -0.9262  0.0409
19761TIP3   OH280773   0.991   0.488  11.250  0.5757  0.4143  0.9361
19761TIP3    H180774   0.952   0.543  11.181 -0.9634  0.5289  1.8466
19761TIP3    H280775   0.945   0.405  11.243 -0.1762  0.6896  2.3167
19762TIP3   OH280776   4.167   0.667   1.711  0.1183  0.0753 -0.0432
19762TIP3    H180777   4.199   0.599   1.653 -2.3471 -0.4792 -0.8723
19762TIP3    H280778   4.109   0.621   1.772 -0.7858  1.2686  0.0292
19763TIP3   OH280779   2.386   2.213  15.113  0.6782  0.1631  0.1840
19763TIP3    H180780   2.361   2.150  15.181  0.7438 -0.0572  0.0037
19763TIP3    H280781   2.346   2.179  15.033 -0.3059  0.9888  0.2982
19764TIP3   OH280782   2.486   0.279  13.040 -0.3698 -0.8309 -0.0794
19764TIP3    H180783   2.445   0.198  13.071  0.0617 -0.9873  0.0890
19764TIP3    H280784   2.515   0.258  12.951 -0.6357 -0.7258 -0.1925
19765TIP3   OH280785   6.475   1.779  13.476 -0.3398  0.6204 -0.0727
19765TIP3    H180786   6.558   1.730  13.476  0.8651  2.5462 -0.6289
19765TIP3    H280787   6.483   1.839  13.550 -1.5023  0.4493  0.2067
19766TIP3   OH280788   5.939   4.049  15.554  0.4368 -0.5124 -0.0759
19766TIP3    H180789   5.932   4.129  15.607  2.7422  0.2829 -0.8414
19766TIP3    H280790   5.866   4.054  15.493 -0.0675  0.4583  0.5820
19767TIP3   OH280791   4.537   3.002  16.574  0.0872 -0.1823 -0.5590
19767TIP3    H180792   4.613   2.947  16.552  1.1847  0.6993  0.8451
19767TIP3    H280793   4.542   3.075  16.512 -0.3434 -0.7260 -1.2563
19768TIP3   OH280794   3.024   2.865   2.717  0.3224 -0.2744 -0.4801
19768TIP3    H180795   2.944   2.916   2.701  0.0250  0.0350  1.7510
19768TIP3    H280796   2.992   2.776   2.731  0.1746  0.0835  1.7383
19769TIP3   OH280797   2.947   4.239   0.989 -0.2913 -0.3167  0.5527
19769TIP3    H180798   2.903   4.252   0.906  0.6002  0.2759  0.1552
19769TIP3    H280799   2.991   4.155   0.980  0.7457  0.2706 -0.0251
19770TIP3   OH280800   0.278   4.636  13.318 -0.0842  0.7545 -0.4144
19770TIP3    H180801   0.222   4.601  13.248  0.8712 -2.6753  0.3556
19770TIP3    H280802   0.224   4.703  13.361 -2.2628  0.0005 -1.8285
19771TIP3   OH280803   0.471   4.652  13.107  0.0141 -0.1508 -0.2900
19771TIP3    H180804   0.417   4.629  13.183  0.0549  0.8047  0.0523
19771TIP3    H280805   0.414   4.706  13.053  0.3755  0.2058 -0.3215
19772TIP3   OH280806   4.743   6.251   4.237  0.3002  0.3415  0.2196
19772TIP3    H180807   4.809   6.203   4.188  1.6677  0.8993  1.4616
19772TIP3    H280808   4.735   6.203   4.319  0.3671  1.2081  0.7439
19773TIP3   OH280809   1.288   3.165   3.944  1.2551  0.3240  0.2221
19773TIP3    H180810   1.305   3.184   4.036  0.8329  3.8057 -0.2897
19773TIP3    H280811   1.367   3.121   3.913  1.9209  0.2698  1.9262
19774TIP3   OH280812   6.550   3.744   4.774 -0.3922 -0.1645 -0.6632
19774TIP3    H180813   6.479   3.696   4.818  0.5267 -0.9599  0.0237
19774TIP3    H280814   6.519   3.757   4.685 -0.8497 -1.7076 -0.7557
19775TIP3   OH280815   1.241   0.533  15.389 -0.1976 -0.4213  0.0279
19775TIP3    H180816   1.184   0.457  15.400  1.0512 -1.5026 -0.7154
19775TIP3    H280817   1.327   0.496  15.367  0.3196  1.2289 -0.8815
19776TIP3   OH280818   3.767   6.639  10.835  0.0126  0.4402 -0.1364
19776TIP3    H180819   3.726   6.711  10.884  0.8851 -0.0535  1.3966
19776TIP3    H280820   3.694   6.583  10.809 -0.4895  0.7146  0.6301
19777TIP3   OH280821   3.033   3.048  13.073 -0.0257  0.2375  0.0006
19777TIP3    H180822   3.026   3.106  12.997 -1.6655  0.1837  0.0806
19777TIP3    H280823   3.050   3.108  13.146 -0.7860  0.5438 -0.0602
19778TIP3   OH280824   2.016   1.726   3.795  0.3495 -0.4491  0.3492
19778TIP3    H180825   2.025   1.774   3.878  1.2666 -0.1449  0.0824
19778TIP3    H280826   1.957   1.653   3.816 -0.0367  0.0576  1.0766
19779TIP3   OH280827   3.454   3.195  14.407 -0.2951  0.0034  0.0325
19779TIP3    H180828   3.366   3.170  14.436 -0.1674 -0.5132 -0.0271
19779TIP3    H280829   3.498   3.112  14.388  0.0413  0.2842 -0.4259
19780TIP3   OH280830   0.753   3.035   1.231 -0.4266  0.0596  0.1052
19780TIP3    H180831   0.830   3.073   1.274 -0.3791  0.0550  0.0250
19780TIP3    H280832   0.782   2.948   1.204 -1.1245 -0.8191  2.0234
19781TIP3   OH280833   0.430   1.386   4.436  0.1642 -0.7569  0.0290
19781TIP3    H180834   0.512   1.400   4.482 -1.4047  0.5762  2.6642
19781TIP3    H280835   0.405   1.296   4.458  0.3823 -0.7895  0.1386
19782TIP3   OH280836   1.552   0.714   5.242 -0.0564 -0.7356 -0.3755
19782TIP3    H180837   1.472   0.670   5.271  0.2119 -1.6800 -1.0614
19782TIP3    H280838   1.521   0.786   5.187 -0.4336 -1.4013 -1.0516
19783TIP3   OH280839   2.447   1.798   0.383  0.7313  0.5675 -0.0024
19783TIP3    H180840   2.375   1.815   0.443  0.7731  2.4389 -0.4304
19783TIP3    H280841   2.434   1.707   0.356 -1.8110  1.0063 -0.5065
19784TIP3   OH280842   3.984   0.746   0.180 -0.2002 -0.6605 -0.0760
19784TIP3    H180843   3.931   0.675   0.141 -0.3238 -0.7653  0.2777
19784TIP3    H280844   4.069   0.737   0.138  0.8965 -3.1931  2.3595
19785TIP3   OH280845   2.987   1.426   3.741 -0.1988 -0.2722  0.5377
19785TIP3    H180846   2.913   1.482   3.719 -2.4027 -1.3952  4.1235
19785TIP3    H280847   2.955   1.337   3.728  0.9693 -0.7807  0.9834
19786TIP3   OH280848   3.578   4.299   3.446 -0.4577 -0.2422 -0.1744
19786TIP3    H180849   3.570   4.236   3.518  1.0722 -0.9880 -0.6216
19786TIP3    H280850   3.533   4.258   3.373 -2.0126  0.5155  0.2991
19787TIP3   OH280851   6.314   5.892   0.945  0.7098  0.1165  0.0901
19787TIP3    H180852   6.361   5.808   0.941  1.4505  0.5583 -1.0036
19787TIP3    H280853   6.371   5.953   0.899  0.2641  1.2795  1.0312
19788TIP3   OH280854   1.462   4.236   0.229 -0.4800 -0.6476 -0.1640
19788TIP3    H180855   1.529   4.259   0.294  1.0942 -0.2181 -1.8692
19788TIP3    H280856   1.391   4.299   0.244 -0.6929 -1.2909  1.8572
19789TIP3   OH280857   5.395   4.057  14.196 -0.6488  0.0038 -0.4957
19789TIP3    H180858   5.473   4.076  14.246 -0.1523 -1.8338 -0.4931
19789TIP3    H280859   5.358   3.979  14.237 -1.4582 -0.2337 -1.6101
19790TIP3   OH280860   4.009   1.933  16.395 -0.0111  0.6921 -0.1090
19790TIP3    H180861   3.984   1.943  16.487  0.2466  2.2931 -0.1796
19790TIP3    H280862   4.025   1.839  16.385 -2.6690  0.0546  0.7610
19791TIP3   OH280863   2.219   1.477   3.835 -0.1592  0.7169 -0.2936
19791TIP3    H180864   2.195   1.548   3.775 -0.9973 -0.7348 -1.7426
19791TIP3    H280865   2.240   1.403   3.779 -0.7582 -0.6503  1.1901
19792TIP3   OH280866   1.627   3.345   4.082 -0.4336 -0.3998 -0.0587
19792TIP3    H180867   1.657   3.427   4.123 -1.2431  0.1321 -0.4950
19792TIP3    H280868   1.613   3.369   3.990 -0.1723 -1.1719 -0.2997
19793TIP3   OH280869   3.145   3.669   1.979 -0.2960 -0.3968 -0.3415
19793TIP3    H180870   3.207   3.660   2.052  0.4554 -0.0802 -0.9334
19793TIP3    H280871   3.116   3.760   1.984 -1.6660 -0.8646  0.6778
19794TIP3   OH280872   5.110   4.407  14.584 -0.3731 -0.0137 -0.1718
19794TIP3    H180873   5.165   4.343  14.539  1.5215  1.1891  0.3444
19794TIP3    H280874   5.097   4.371  14.672 -2.1923 -1.2763 -0.9024
19795TIP3   OH280875   5.983   1.094  12.184 -0.5583 -0.3839  0.5694
19795TIP3    H180876   5.918   1.160  12.208 -0.2228  0.2091 -0.1128
19795TIP3    H280877   5.971   1.081  12.090 -0.6779 -1.3718  0.7033
19796TIP3   OH280878   5.607   4.471   5.750  0.6075 -0.6039  0.3562
19796TIP3    H180879   5.647   4.413   5.686  1.8072 -0.4609  0.9517
19796TIP3    H280880   5.559   4.413   5.808 -0.2784 -0.7580 -0.5040
19797TIP3   OH280881   2.423   5.687  12.441  0.2349  0.0242 -0.1647
19797TIP3    H180882   2.407   5.609  12.387  1.0416 -0.1155 -0.2107
19797TIP3    H280883   2.493   5.661  12.501  0.1840  0.5694  0.1393
19798TIP3   OH280884   5.466   6.253  13.544  0.5341 -0.5358  0.1009
19798TIP3    H180885   5.469   6.347  13.527 -2.1782 -0.4892 -0.6054
19798TIP3    H280886   5.497   6.213  13.463 -1.5023 -0.2129 -0.9028
19799TIP3   OH280887   4.020   5.067   4.980 -0.2067 -0.4798  0.4511
19799TIP3    H180888   4.024   4.992   4.919 -0.2603 -0.1238  0.0023
19799TIP3    H280889   3.988   5.139   4.926 -0.7992 -0.2920  1.0429
19800TIP3   OH280890   3.614   6.303  10.740  0.0831 -0.2624  0.0480
19800TIP3    H180891   3.552   6.370  10.711  0.5535 -0.1999 -0.8709
19800TIP3    H280892   3.561   6.240  10.788  0.0449  2.2383  3.6713
19801TIP3   OH280893   6.193   6.196   5.712  0.1496  0.4204 -0.9243
19801TIP3    H180894   6.234   6.283   5.710 -1.3990  1.2091 -0.0868
19801TIP3    H280895   6.190   6.173   5.805 -1.1850  0.3583 -0.9583
19802TIP3   OH280896   0.720   0.912  14.454 -0.0623 -0.0071  0.2822
19802TIP3    H180897   0.680   0.914  14.368  1.8053  0.9264 -0.6209
19802TIP3    H280898   0.782   0.839  14.451  1.8678  1.5691 -0.1134
19803TIP3   OH280899   0.960   1.500   4.290 -0.1183  0.4059  0.2022
19803TIP3    H180900   1.048   1.529   4.311 -0.3727  0.6720  0.9624
19803TIP3    H280901   0.938   1.438   4.360  0.0309 -0.8506 -0.8304
19804TIP3   OH280902   3.907   0.621   6.978 -0.0303  0.3390  0.2921
19804TIP3    H180903   3.814   0.633   6.994 -0.1412 -0.8959  0.6969
19804TIP3    H280904   3.936   0.704   6.940 -1.3546  0.6281 -0.1435
19805TIP3   OH280905   5.083   4.683  14.248  0.2499 -0.3265  0.2209
19805TIP3    H180906   4.998   4.640  14.242  0.0407  0.2196 -1.2489
19805TIP3    H280907   5.080   4.749  14.179  2.0791 -0.6693 -0.2225
19806TIP3   OH280908   0.922   2.149  12.497 -0.2648  0.5849 -0.3358
19806TIP3    H180909   0.844   2.097  12.481 -0.6225  0.4865  1.4893
19806TIP3    H280910   0.918   2.170  12.591  2.2809 -0.0670  0.0019
19807TIP3   OH280911   3.434   0.994  16.688 -0.3829 -0.0425  0.5513
19807TIP3    H180912   3.477   1.009  16.773  1.0261 -1.7752  0.2095
19807TIP3    H280913   3.480   1.051  16.627 -1.1210  0.8970  0.8502
19808TIP3   OH280914   0.105   4.242  13.863 -0.1724  0.1799 -0.1079
19808TIP3    H180915   0.172   4.174  13.872 -0.0431  0.2684 -0.3696
19808TIP3    H280916   0.034   4.199  13.815 -0.2384  0.1299  0.0341
19809TIP3   OH280917   3.702   4.640  15.682  0.6528 -0.0914  0.5849
19809TIP3    H180918   3.755   4.565  15.653  0.9348  0.0857  0.6414
19809TIP3    H280919   3.668   4.613  15.768 -0.2064 -0.6268  0.1007
19810TIP3   OH280920   0.987   0.709  16.524  0.1535  0.1555 -0.4898
19810TIP3    H180921   1.017   0.723  16.435  2.5262 -0.4418  0.1487
19810TIP3    H280922   0.942   0.790  16.547 -0.3608  0.3793 -2.1463
19811TIP3   OH280923   4.529   5.487   1.097  0.8216 -0.2395  0.2624
19811TIP3    H180924   4.517   5.582   1.092  1.3917 -0.2276 -1.7792
19811TIP3    H280925   4.598   5.468   1.033  0.6882 -2.0456  0.6043
19812TIP3   OH280926   5.392   3.996   1.058 -1.2260  0.5014 -0.1291
19812TIP3    H180927   5.344   4.059   1.006 -1.7434 -1.6017 -2.3809
19812TIP3    H280928   5.481   3.997   1.023 -1.5868 -0.9584 -1.2010
19813TIP3   OH280929   5.677   5.351  15.257 -0.2601 -0.4157  0.2196
19813TIP3    H180930   5.668   5.337  15.351  2.4354 -2.9648  0.2208
19813TIP3    H280931   5.771   5.356  15.242 -0.6411  1.0456 -2.2576
19814TIP3   OH280932   4.976   4.058  12.378  0.4375 -0.5571  0.2677
19814TIP3    H180933   4.990   4.102  12.295  2.2539 -0.2151  0.7178
19814TIP3    H280934   4.989   4.126  12.444  1.4725 -1.3338  0.8980
19815TIP3   OH280935   1.609   1.879  13.783  0.6799 -0.0713  0.3148
19815TIP3    H180936   1.550   1.917  13.847  0.1042 -0.4964  0.0449
19815TIP3    H280937   1.552   1.852  13.711  1.0645 -1.4126  0.4862
19816TIP3   OH280938   5.648   3.556  13.318 -0.2030  0.1204  0.2036
19816TIP3    H180939   5.737   3.563  13.353 -0.3010  0.9729  0.3156
19816TIP3    H280940   5.639   3.464  13.294 -0.5247 -0.8297  3.4750
19817TIP3   OH280941   6.406   2.595   0.259 -0.1247 -0.1625 -0.0012
19817TIP3    H180942   6.454   2.662   0.307 -1.3839  0.6401  0.1914
19817TIP3    H280943   6.472   2.531   0.234  0.8401  0.3178  1.2408
19818TIP3   OH280944   5.560   5.546   2.874  0.1382 -0.1415 -0.2498
19818TIP3    H180945   5.579   5.606   2.802 -0.3993  1.3940  0.8319
19818TIP3    H280946   5.519   5.601   2.940  1.0007 -1.4135  1.4127
19819TIP3   OH280947   3.106   0.601  13.175  0.0147  0.3009  0.1316
19819TIP3    H180948   3.083   0.693  13.164  1.4156  0.7169  0.4816
19819TIP3    H280949   3.034   0.564  13.226 -0.2184  1.3606  0.5988
19820TIP3   OH280950   2.072   2.976  16.216  0.6102 -0.0760 -0.3786
19820TIP3    H180951   2.018   3.046  16.180  1.3014 -0.1672 -1.6614
19820TIP3    H280952   2.162   3.003  16.199  0.9357 -0.6240  0.3758
19821TIP3   OH280953   3.464   4.459   5.191  0.8226 -0.4419  0.0936
19821TIP3    H180954   3.455   4.364   5.199 -0.4383 -0.2689  1.1795
19821TIP3    H280955   3.525   4.484   5.260 -1.7846 -0.1165  2.4746
19822TIP3   OH280956   1.958   0.597   4.533  0.3836 -0.5207  0.6500
19822TIP3    H180957   1.941   0.510   4.497 -0.4716 -0.9273  1.9604
19822TIP3    H280958   1.940   0.588   4.627 -0.8590  1.3334  0.6360
19823TIP3   OH280959   1.866   4.097  16.803 -0.1229  0.5457 -0.6053
19823TIP3    H180960   1.883   4.167  16.740  0.3129  0.2645 -0.8049
19823TIP3    H280961   1.857   4.018  16.749 -0.4312  0.4134 -0.3675
19824TIP3   OH280962   0.056   0.299  12.035 -0.2434  0.2697  0.5082
19824TIP3    H180963   0.015   0.330  12.116 -2.1933 -0.5906 -0.0771
19824TIP3    H280964   0.021   0.211  12.023  1.8705 -0.5483 -0.0651
19825TIP3   OH280965   4.504   6.190  10.821  0.0213 -0.5057  0.0770
19825TIP3    H180966   4.525   6.106  10.862 -0.6454 -1.9219 -2.3226
19825TIP3    H280967   4.542   6.185  10.734 -0.7912  1.3494 -0.4481
19826TIP3   OH280968   5.145   2.141   4.310 -0.2469 -0.2690  1.3457
19826TIP3    H180969   5.240   2.127   4.312 -0.2325 -0.1523  1.4863
19826TIP3    H280970   5.134   2.233   4.333 -0.3186  0.0618  0.0598
19827TIP3   OH280971   3.044   3.269  16.641  0.7387  0.4554  0.1793
19827TIP3    H180972   3.003   3.213  16.575  0.6674 -0.7541  1.2056
19827TIP3    H280973   3.029   3.223  16.724  0.0171  2.3660  1.1930
19828TIP3   OH280974   2.508   1.595  16.144 -1.1601 -0.4284 -0.7041
19828TIP3    H180975   2.431   1.647  16.121 -1.6547 -1.6844 -2.0660
19828TIP3    H280976   2.488   1.507  16.112  0.6995 -0.8740 -0.7541
19829TIP3   OH280977   3.010   2.555  14.523 -0.0385  0.4911 -0.1057
19829TIP3    H180978   3.022   2.499  14.600  0.4010  1.4764  0.5722
19829TIP3    H280979   2.918   2.543  14.499  0.2365 -1.1106 -0.4726
19830TIP3   OH280980   4.767   0.412   4.266 -0.6123  0.0739 -0.1967
19830TIP3    H180981   4.746   0.338   4.209 -0.9989  0.9256 -1.2108
19830TIP3    H280982   4.863   0.409   4.276 -0.5733 -0.2752 -0.6484
19831TIP3   OH280983   1.083   6.458   4.448 -0.4322 -0.1248 -0.0391
19831TIP3    H180984   1.143   6.387   4.470 -1.4500 -0.2928  2.4867
19831TIP3    H280985   1.123   6.500   4.372  2.4070 -0.7568  0.9750
19832TIP3   OH280986   3.695   2.000   5.022 -1.0656 -0.0372  0.1472
19832TIP3    H180987   3.744   1.940   5.078  0.5446  1.4376  0.3929
19832TIP3    H280988   3.739   1.996   4.937 -0.1860  1.6012  0.4800
19833TIP3   OH280989   1.847   3.571   6.190  0.2046  0.2818  0.4919
19833TIP3    H180990   1.909   3.513   6.146  0.0495  0.5226 -0.0557
19833TIP3    H280991   1.903   3.637   6.233  0.3537  0.0966  0.5822
19834TIP3   OH280992   2.478   0.311  15.020 -0.4572 -0.7833 -0.0119
19834TIP3    H180993   2.384   0.293  15.019 -0.2792 -1.9921  0.9999
19834TIP3    H280994   2.517   0.230  15.055  1.0647 -0.7518 -1.5041
19835TIP3   OH280995   0.934   5.065  11.029 -0.0699 -0.2764 -0.5872
19835TIP3    H180996   0.932   5.150  10.985 -0.5557 -1.0847 -2.1954
19835TIP3    H280997   0.842   5.043  11.044  0.0635  0.5037  2.0284
19836TIP3   OH280998   4.955   6.363  12.784  0.5431 -0.3455 -0.0160
19836TIP3    H180999   5.024   6.298  12.774  0.5912 -0.0819 -1.5013
19836TIP3    H281000   4.910   6.364  12.700 -1.7336 -1.0021  1.1004
19837TIP3   OH281001   6.818   0.012  11.260  0.0283 -0.0160 -0.3581
19837TIP3    H181002   6.799   0.056  11.177 -0.3422  1.6308  0.5513
19837TIP3    H281003   6.913   0.010  11.264  0.0613  0.8337 -0.3839
19838TIP3   OH281004   3.249   0.390   2.918  0.0062  0.1049 -0.0212
19838TIP3    H181005   3.339   0.411   2.945 -0.1746 -0.7897  1.4166
19838TIP3    H281006   3.209   0.475   2.901  1.4598  0.4686 -1.9298
19839TIP3   OH281007   3.139   3.172  17.135 -0.5095  0.1032 -0.4332
19839TIP3    H181008   3.081   3.198  17.206  1.2561 -1.3841  1.7145
19839TIP3    H281009   3.129   3.077  17.129  1.2149 -0.1100 -0.4155
19840TIP3   OH281010   0.399   3.849   0.226 -0.3745  0.0164 -0.2242
19840TIP3    H181011   0.452   3.877   0.301 -0.5932 -2.6999  1.0593
19840TIP3    H281012   0.348   3.775   0.259 -0.4322 -1.3404 -3.1004
19841TIP3   OH281013   1.231   3.165  15.376  0.0721  0.2311 -0.7937
19841TIP3    H181014   1.234   3.259  15.393 -1.2138  0.0293  0.7570
19841TIP3    H281015   1.314   3.132  15.411 -0.5491  0.4794  0.9962
19842TIP3   OH281016   3.761   2.156   6.619  0.4104 -0.2817  0.3328
19842TIP3    H181017   3.839   2.121   6.577  0.4908 -0.5013  0.6635
19842TIP3    H281018   3.751   2.244   6.582 -0.9149 -1.3100 -1.9772
19843TIP3   OH281019   6.357   5.024  13.522 -0.0415  0.4554 -0.1490
19843TIP3    H181020   6.345   4.993  13.432 -1.9207  1.0043 -0.1245
19843TIP3    H281021   6.435   5.080  13.517  0.2948 -0.0734 -1.2701
19844TIP3   OH281022   6.387   3.322  15.782 -0.2081  0.2392  0.2710
19844TIP3    H181023   6.400   3.236  15.741 -0.7927 -0.4313  1.4344
19844TIP3    H281024   6.343   3.302  15.865  0.4158  1.5966  0.9564
19845TIP3   OH281025   5.744   0.835   3.773  0.0325  0.3754 -0.3291
19845TIP3    H181026   5.700   0.817   3.856  3.9723 -0.9569  1.7215
19845TIP3    H281027   5.698   0.911   3.738 -2.8780 -0.0267  2.1808
19846TIP3   OH281028   6.056   6.012   5.328 -0.0028 -0.4908  0.2766
19846TIP3    H181029   6.150   6.016   5.345  0.0713 -0.3930 -0.1398
19846TIP3    H281030   6.015   6.024   5.414  0.3617 -0.3195  0.4280
19847TIP3   OH281031   3.139   4.395  13.517 -0.2061  0.3590  0.4951
19847TIP3    H181032   3.143   4.377  13.423 -0.6630 -0.3438  0.6068
19847TIP3    H281033   3.147   4.309  13.558 -0.1015  0.6549  1.0994
19848TIP3   OH281034   6.809   1.494   4.145  0.4980  0.6748 -0.0464
19848TIP3    H181035   6.735   1.487   4.206 -0.7549  0.7044 -1.4970
19848TIP3    H281036   6.850   1.577   4.167  0.1825  0.6101  0.8554
19849TIP3   OH281037   5.893   5.387   3.656  0.2752  0.2718  0.0129
19849TIP3    H181038   5.986   5.387   3.678  0.9448 -0.7084 -2.4586
19849TIP3    H281039   5.855   5.319   3.712  1.0090  0.7452  1.1154
19850TIP3   OH281040   5.099   5.972   4.573  0.0408 -0.2821 -0.2536
19850TIP3    H181041   5.192   5.950   4.568  0.5635  0.9288  2.3656
19850TIP3    H281042   5.072   5.942   4.660 -1.9465 -0.2600 -0.8097
19851TIP3   OH281043   5.448   3.035   0.403 -0.0965  0.4031  0.0687
19851TIP3    H181044   5.522   3.056   0.460  1.7022 -2.9905 -0.7256
19851TIP3    H281045   5.487   3.028   0.316 -1.3303 -1.3673 -0.3914
19852TIP3   OH281046   0.605   1.169   0.011 -0.2012  1.0027  0.4493
19852TIP3    H181047   0.538   1.129  -0.043  0.0923  0.0809  0.7544
19852TIP3    H281048   0.636   1.099   0.068 -1.5818  2.2675  2.9354
19853TIP3   OH281049   2.033   4.322   0.230  0.6015  1.0804  0.0380
19853TIP3    H181050   2.107   4.337   0.289  0.6653  1.0188 -0.0253
19853TIP3    H281051   2.069   4.340   0.143  1.3967 -1.7593 -0.3178
19854TIP3   OH281052   3.504   4.964   3.613  0.2899  0.2399 -0.4727
19854TIP3    H181053   3.496   4.960   3.708 -1.7998  1.3192 -0.5413
19854TIP3    H281054   3.525   5.056   3.595 -2.3525  0.7913 -1.1334
19855TIP3   OH281055   1.601   1.897  15.840  0.3575 -0.4468 -0.2683
19855TIP3    H181056   1.655   1.975  15.850  1.6562 -1.3463  0.0519
19855TIP3    H281057   1.567   1.880  15.928 -1.8115  1.0069 -0.7504
19856TIP3   OH281058   2.504   0.024   3.830 -0.0266 -0.0710  0.4550
19856TIP3    H181059   2.490   0.045   3.737  1.6429 -1.0412 -0.0687
19856TIP3    H281060   2.417   0.002   3.863 -0.3767 -1.9084 -1.4861
19857TIP3   OH281061   0.027   1.885  14.374 -0.1093 -0.0186 -0.1948
19857TIP3    H181062   0.094   1.936  14.330 -0.9586  1.2396 -0.0810
19857TIP3    H281063   0.015   1.808  14.319  0.5187  0.3693 -0.8946
19858TIP3   OH281064   5.234   6.276  11.971 -0.4817 -0.3998  0.2418
19858TIP3    H181065   5.154   6.304  11.928 -0.9954 -1.6830  0.3112
19858TIP3    H281066   5.284   6.232  11.902  0.5097  0.9922  0.0235
19859TIP3   OH281067   5.359   2.469  10.983 -0.1142 -0.4801  0.6503
19859TIP3    H181068   5.384   2.407  10.915  0.9636 -1.0474  1.5275
19859TIP3    H281069   5.267   2.488  10.966 -0.5504 -2.5204  0.5170
19860TIP3   OH281070   3.212   0.895  15.859 -0.6019  0.1312 -0.0301
19860TIP3    H181071   3.278   0.849  15.910  2.8514  1.9786 -2.4197
19860TIP3    H281072   3.183   0.967  15.915  1.1737  0.6017  0.3422
19861TIP3   OH281073   0.750   6.817   2.403  0.3260 -0.0092  0.1820
19861TIP3    H181074   0.827   6.762   2.423 -0.0551 -1.1338 -1.2438
19861TIP3    H281075   0.775   6.904   2.432  1.5457 -0.6411  1.1677
19862TIP3   OH281076   4.029   3.470   4.030  0.3276  0.3781 -0.1204
19862TIP3    H181077   4.090   3.421   4.086  0.5926 -1.3104 -1.7981
19862TIP3    H281078   3.972   3.516   4.092  0.6359 -1.3428  1.5397
19863TIP3   OH281079   6.414   0.334   2.467  0.0560  0.0084 -0.7031
19863TIP3    H181080   6.361   0.414   2.464 -1.1340 -0.7674 -1.2746
19863TIP3    H281081   6.435   0.316   2.375  1.7876  0.5794 -0.4482
19864TIP3   OH281082   1.845   4.163  17.067  0.4447  0.3580 -0.0685
19864TIP3    H181083   1.867   4.087  17.121  0.4361  1.0497  0.9513
19864TIP3    H281084   1.814   4.126  16.985  1.5803 -0.7222 -0.0488
19865TIP3   OH281085   1.973   1.144   5.401 -0.0506 -0.2557 -0.1137
19865TIP3    H181086   2.017   1.228   5.387  1.7341 -0.6673  2.3909
19865TIP3    H281087   2.039   1.088   5.441 -2.0965 -1.8429  1.2788
19866TIP3   OH281088   4.402   0.243   5.085 -0.2326  0.8560 -0.1378
19866TIP3    H181089   4.435   0.211   5.168 -0.4489  1.0703  0.0318
19866TIP3    H281090   4.313   0.271   5.104  0.3180  2.6150 -0.0214
19867TIP3   OH281091   4.504   2.295   5.463 -0.5203 -0.1505 -0.0682
19867TIP3    H181092   4.526   2.254   5.379  0.3609  0.6406 -0.2449
19867TIP3    H281093   4.583   2.345   5.486 -1.1568  0.5249  0.6905
19868TIP3   OH281094   5.092   6.145  12.543 -0.4993  0.3572  0.1449
19868TIP3    H181095   5.120   6.220  12.491  0.4596 -0.3826 -0.4355
19868TIP3    H281096   5.010   6.116  12.502 -0.3284  0.4512 -0.2681
19869TIP3   OH281097   1.038   3.677  12.371 -0.0366  0.1019 -0.1748
19869TIP3    H181098   0.951   3.705  12.343 -0.2752 -1.6119 -1.2724
19869TIP3    H281099   1.098   3.733  12.322 -0.5001  0.7505 -0.0167
19870TIP3   OH281100   3.121   1.366   0.067  0.0294 -0.3798 -0.0441
19870TIP3    H181101   3.153   1.434   0.007 -0.2652  1.9367  2.2523
19870TIP3    H281102   3.186   1.296   0.060  0.3432  0.0442 -2.5224
19871TIP3   OH281103   0.437   2.617   3.184 -0.4836 -0.8957  0.0329
19871TIP3    H181104   0.361   2.569   3.218  0.0042 -1.9483 -0.3231
19871TIP3    H281105   0.480   2.652   3.262 -1.9965  0.8204  0.1911
19872TIP3   OH281106   6.013   0.879   1.085 -0.0514 -0.7796  0.4830
19872TIP3    H181107   5.960   0.941   1.136 -1.6297 -0.9545 -0.8549
19872TIP3    H281108   6.000   0.906   0.994  0.9108 -1.8228  0.0239
19873TIP3   OH281109   2.868   5.831   2.285  0.3113 -0.4929  0.9494
19873TIP3    H181110   2.808   5.766   2.249 -0.5501  0.9110 -0.2246
19873TIP3    H281111   2.842   5.839   2.377 -1.4783  0.2595  0.4100
19874TIP3   OH281112   5.207   5.565  12.420  0.4083  0.3907  0.0477
19874TIP3    H181113   5.119   5.527  12.421  0.0630  1.1304 -0.6738
19874TIP3    H281114   5.264   5.493  12.392  0.4583 -0.8308  2.9351
19875TIP3   OH281115   3.064   5.841   1.996  0.3354  0.1517 -0.0924
19875TIP3    H181116   2.974   5.856   1.965 -0.2505  0.4290  1.6577
19875TIP3    H281117   3.086   5.753   1.963 -0.8303 -0.2003  0.0148
19876TIP3   OH281118   4.310   6.697  13.917 -0.2828  0.4254  0.1632
19876TIP3    H181119   4.305   6.685  13.822  2.0982 -1.6331  0.1996
19876TIP3    H281120   4.246   6.635  13.953 -1.0817  1.1028 -0.0763
19877TIP3   OH281121   2.828   1.676   5.146  0.9070 -0.2646 -0.0950
19877TIP3    H181122   2.736   1.693   5.126  0.7553 -1.9424 -1.0004
19877TIP3    H281123   2.872   1.681   5.062  0.9541 -3.2897 -0.3533
19878TIP3   OH281124   1.529   3.468   1.818 -0.3450  0.3596  0.0583
19878TIP3    H181125   1.557   3.528   1.749 -2.1468  0.4073 -0.6891
19878TIP3    H281126   1.523   3.383   1.775  0.1259  0.0499  0.5871
19879TIP3   OH281127   6.029   5.709   4.047 -0.1349  0.1654 -0.3394
19879TIP3    H181128   6.006   5.632   4.100  1.6984 -0.5720 -0.5587
19879TIP3    H281129   6.081   5.764   4.105 -0.6201  0.7886 -0.4859
19880TIP3   OH281130   0.012   2.824  16.195 -0.0544 -0.5184  0.2609
19880TIP3    H181131  -0.070   2.787  16.229 -0.1150  0.0068  0.7006
19880TIP3    H281132   0.063   2.844  16.274 -0.2739  0.9034  0.0599
19881TIP3   OH281133   3.595   3.469   2.061 -0.4235  0.1030 -0.4179
19881TIP3    H181134   3.561   3.503   2.144 -0.4225  0.1077 -0.4193
19881TIP3    H281135   3.665   3.530   2.038 -1.2565  0.8456 -1.0560
19882TIP3   OH281136   0.284   5.865   5.082 -0.0798 -0.2121  0.0857
19882TIP3    H181137   0.374   5.877   5.110 -0.3051 -0.9837  1.2254
19882TIP3    H281138   0.290   5.847   4.988  0.8713  0.5966 -0.0184
19883TIP3   OH281139   1.489   3.252  12.192 -0.0360 -0.8673 -0.7054
19883TIP3    H181140   1.396   3.263  12.169  0.4941  0.2298 -2.4945
19883TIP3    H281141   1.491   3.172  12.244 -2.0112 -0.8000 -0.4344
19884TIP3   OH281142   3.619   2.685  17.057  0.9586  0.0148 -0.1372
19884TIP3    H181143   3.680   2.724  16.995 -0.0840  2.3575  0.2122
19884TIP3    H281144   3.655   2.706  17.143 -0.7791  2.3673  0.0997
19885TIP3   OH281145   2.436   5.261   0.169  0.5536 -0.0049  0.4001
19885TIP3    H181146   2.343   5.256   0.144  0.4374 -0.1391  0.8347
19885TIP3    H281147   2.452   5.178   0.215  0.5222  0.5778  1.5028
19886TIP3   OH281148   6.215   3.812   1.777 -0.0133 -0.1800 -0.3623
19886TIP3    H181149   6.187   3.750   1.845 -1.1848  0.8651  0.1573
19886TIP3    H281150   6.143   3.811   1.714  0.4903 -0.1855 -0.9429
19887TIP3   OH281151   3.986   0.521  16.504  0.1250 -0.2651  0.1391
19887TIP3    H181152   3.908   0.522  16.449 -0.2561 -0.9205  0.6593
19887TIP3    H281153   3.954   0.498  16.592  1.1210 -2.5000 -0.0221
19888TIP3   OH281154   1.406   1.429  11.379 -0.2522  0.3904 -0.3333
19888TIP3    H181155   1.345   1.409  11.450  0.1000 -0.4078 -0.2468
19888TIP3    H281156   1.350   1.441  11.303 -0.4605 -2.2222 -0.6886
19889TIP3   OH281157   1.437   0.528  13.875 -0.0647 -0.4553  0.3313
19889TIP3    H181158   1.492   0.530  13.953  0.6024 -1.8399 -0.0555
19889TIP3    H281159   1.363   0.472  13.899 -0.7018  0.4112  0.4560
19890TIP3   OH281160   0.348   1.071  14.975 -0.2011  0.5185 -0.2889
19890TIP3    H181161   0.314   1.028  14.897 -0.0631 -1.1097  0.5194
19890TIP3    H281162   0.314   1.020  15.048  1.4474  0.6695  0.6378
19891TIP3   OH281163   6.277   5.558   4.008  0.7891 -0.4567 -0.1369
19891TIP3    H181164   6.304   5.486   3.951 -1.5037 -3.1546  1.9265
19891TIP3    H281165   6.214   5.519   4.069 -0.3782  3.2670  1.3287
19892TIP3   OH281166   1.525   6.489  14.618 -0.9267 -0.2677 -0.4076
19892TIP3    H181167   1.583   6.421  14.584 -0.9684  0.8245 -2.8989
19892TIP3    H281168   1.441   6.472  14.576 -1.0116  1.1192 -0.8419
19893TIP3   OH281169   0.213   1.425   0.048 -0.0089 -0.1743 -0.4882
19893TIP3    H181170   0.301   1.413   0.083 -0.3837 -0.3654  0.4106
19893TIP3    H281171   0.157   1.369   0.103 -0.6173 -0.4860 -1.3898
19894TIP3   OH281172   2.890   4.687  12.969  0.5651 -0.0772 -0.1037
19894TIP3    H181173   2.837   4.673  12.891 -0.3267  0.5269  0.3725
19894TIP3    H281174   2.890   4.603  13.014 -0.3518  0.0257  0.1023
19895TIP3   OH281175   5.832   6.449  13.752  0.3813  0.2952 -0.3233
19895TIP3    H181176   5.824   6.530  13.802  0.7108  0.1226  0.0080
19895TIP3    H281177   5.912   6.409  13.783  0.7543  0.3315 -1.2047
19896TIP3   OH281178   5.409   2.163  11.355 -0.1344 -0.2365 -0.2999
19896TIP3    H181179   5.356   2.091  11.323 -0.4639 -0.6194  1.0583
19896TIP3    H281180   5.366   2.242  11.322  0.3714 -0.6488 -2.0031
19897TIP3   OH281181   4.506   4.463   2.058  0.1628 -0.0182  0.2733
19897TIP3    H181182   4.576   4.427   2.111 -0.7040 -0.7205  0.9724
19897TIP3    H281183   4.532   4.554   2.043  1.5299 -0.4385 -0.0551
19898TIP3   OH281184   5.140   2.152   0.152  0.1874  0.2077  0.1134
19898TIP3    H181185   5.046   2.134   0.152 -0.3273  2.5155 -0.3240
19898TIP3    H281186   5.173   2.109   0.073  0.3123 -3.7836  2.1030
19899TIP3   OH281187   6.720   6.567   3.038  0.4353 -0.0196  0.6270
19899TIP3    H181188   6.809   6.581   3.005  0.0904  1.1641  0.1857
19899TIP3    H281189   6.664   6.621   2.982 -0.8343 -2.2667 -0.4138
19900TIP3   OH281190   4.210   3.817   1.696  0.1660 -0.0162  0.9269
19900TIP3    H181191   4.259   3.736   1.706  2.4528  1.3498  1.6527
19900TIP3    H281192   4.215   3.859   1.783 -1.7570  0.4977  0.8319
19901TIP3   OH281193   4.176   3.800  13.274 -0.4914  0.5200  0.7262
19901TIP3    H181194   4.256   3.846  13.298 -0.6344  0.3459  1.5936
19901TIP3    H281195   4.112   3.870  13.259 -0.7889  0.6559  2.3342
19902TIP3   OH281196   4.199   2.140  11.004  0.1916 -0.1944 -0.5882
19902TIP3    H181197   4.147   2.110  10.929 -1.4122  1.3272 -0.1514
19902TIP3    H281198   4.164   2.091  11.078  0.7777 -0.6273 -0.5923
19903TIP3   OH281199   2.942   0.974   1.796 -0.1995 -0.1787  0.3547
19903TIP3    H181200   2.898   1.040   1.849 -0.2036 -0.6523  0.9447
19903TIP3    H281201   2.968   0.906   1.858 -1.0864 -1.2166 -0.3771
19904TIP3   OH281202   3.234   5.251   0.873  0.1772 -0.3490 -0.4704
19904TIP3    H181203   3.221   5.263   0.967 -0.2368 -1.0834 -0.4211
19904TIP3    H281204   3.280   5.330   0.844 -0.5142  0.3075  0.1811
19905TIP3   OH281205   5.260   4.404  15.918 -0.4959 -0.5485  0.0991
19905TIP3    H181206   5.235   4.479  15.862  0.2496 -0.3344  0.0400
19905TIP3    H281207   5.349   4.425  15.947 -0.4371 -1.2231  0.4160
19906TIP3   OH281208   0.468   6.749  12.883 -0.2416 -0.6224 -0.4926
19906TIP3    H181209   0.412   6.823  12.908 -1.2336 -1.5608  0.1277
19906TIP3    H281210   0.474   6.756  12.788 -0.1050  0.4099 -0.4229
19907TIP3   OH281211   0.504   1.284   5.444  0.8680 -0.6780 -0.6262
19907TIP3    H181212   0.563   1.289   5.518  0.6635  1.4244 -0.5324
19907TIP3    H281213   0.419   1.261   5.482  0.8129  0.1672 -0.2215
19908TIP3   OH281214   5.174   1.711   6.096  0.2096  0.5360  0.2195
19908TIP3    H181215   5.141   1.799   6.076 -0.8242  0.2703  0.6886
19908TIP3    H281216   5.145   1.695   6.186  2.1240  0.4931  0.8759
19909TIP3   OH281217   3.235   4.848  10.882 -0.3349  0.5834  0.2576
19909TIP3    H181218   3.225   4.929  10.932  0.3287 -0.0706  1.5113
19909TIP3    H281219   3.266   4.877  10.796 -2.3947  1.8114 -0.1350
19910TIP3   OH281220   1.520   0.666  12.459 -0.5895 -0.2304  0.4584
19910TIP3    H181221   1.609   0.662  12.424 -0.3953  0.4754  0.8636
19910TIP3    H281222   1.465   0.667  12.381 -0.2521 -0.7369  0.2047
19911TIP3   OH281223   1.383   3.227  15.739  0.5180  0.0351  0.0880
19911TIP3    H181224   1.431   3.278  15.674  0.2670 -0.0986 -0.2005
19911TIP3    H281225   1.293   3.257  15.731  0.3947 -0.3536  0.0146
19912TIP3   OH281226   0.730   2.842  14.131  0.0425  0.0332 -0.0324
19912TIP3    H181227   0.699   2.929  14.106  0.8261  0.9157  1.8747
19912TIP3    H281228   0.775   2.809  14.054  1.6891  2.2806 -0.1135
19913TIP3   OH281229   4.117   2.287  15.308 -0.4768 -0.2034 -0.1418
19913TIP3    H181230   4.131   2.378  15.336 -1.6511 -0.1380  0.2983
19913TIP3    H281231   4.198   2.263  15.263 -0.3189  1.2253 -0.6845
19914TIP3   OH281232   0.048   6.269   1.386 -0.5355 -0.6722 -0.3545
19914TIP3    H181233   0.049   6.333   1.316  0.6089 -1.3705 -0.9994
19914TIP3    H281234   0.117   6.207   1.364 -0.8810 -1.5226  0.8194
19915TIP3   OH281235   4.039   4.003  16.997  0.1266  0.5684 -0.1834
19915TIP3    H181236   3.968   3.942  17.017 -0.4754  1.4563  0.4259
19915TIP3    H281237   4.103   3.949  16.949  0.1884 -0.8463  1.3713
19916TIP3   OH281238   3.947   0.463   2.068 -0.5982 -0.4829  0.2245
19916TIP3    H181239   3.956   0.448   1.974 -0.9812  1.2102 -0.0986
19916TIP3    H281240   3.948   0.558   2.078 -0.3258 -0.6347  1.9631
19917TIP3   OH281241   0.780   5.154  16.189  0.4592 -0.1154 -0.3412
19917TIP3    H181242   0.833   5.082  16.155  1.9219  0.9507 -0.4265
19917TIP3    H281243   0.714   5.111  16.243  1.9636 -1.4697  0.5195
19918TIP3   OH281244   2.652   6.334   5.735 -0.3206  0.1600 -0.6810
19918TIP3    H181245   2.624   6.284   5.812 -0.5054  0.1703 -0.7403
19918TIP3    H281246   2.732   6.378   5.762 -0.5521  0.4102 -0.3951
19919TIP3   OH281247   5.040   5.256  13.205 -0.4235  0.6315 -0.3462
19919TIP3    H181248   5.088   5.337  13.190  3.7141 -1.2514  1.1687
19919TIP3    H281249   5.011   5.261  13.296 -0.4583  0.5433 -0.3521
19920TIP3   OH281250   5.152   0.717   5.664  0.0220 -0.4068 -0.5740
19920TIP3    H181251   5.142   0.778   5.737 -0.4984 -1.8281  0.5946
19920TIP3    H281252   5.246   0.698   5.662  0.1478  0.2215 -0.7717
19921TIP3   OH281253   2.508   4.183  14.052  0.5464 -0.3541 -0.1175
19921TIP3    H181254   2.546   4.205  14.138  0.7136 -1.5925  0.1478
19921TIP3    H281255   2.580   4.143  14.003 -0.1854 -2.1455  0.1626
19922TIP3   OH281256   3.986   5.810  16.889  0.0409 -0.4039  0.1031
19922TIP3    H181257   4.040   5.737  16.920 -0.6202 -1.7966 -1.8736
19922TIP3    H281258   4.049   5.878  16.865  0.8962 -1.5637 -1.0766
19923TIP3   OH281259   5.864   6.323  11.415  0.5364 -0.0146 -0.6812
19923TIP3    H181260   5.910   6.276  11.346  1.4626  2.1108 -1.5713
19923TIP3    H281261   5.933   6.356  11.472 -0.1965 -1.3873  1.0962
19924TIP3   OH281262   6.547   5.418   0.271  0.2996  0.1635  0.3162
19924TIP3    H181263   6.555   5.343   0.329  2.8253 -0.1011 -0.2601
19924TIP3    H281264   6.506   5.384   0.193  1.4707 -0.6886  0.0400
19925TIP3   OH281265   6.254   3.461   3.739 -0.0951 -0.4147 -0.7619
19925TIP3    H181266   6.253   3.402   3.663  3.2171  2.6436 -3.5758
19925TIP3    H281267   6.173   3.511   3.731 -1.1114 -1.9614 -0.5626
19926TIP3   OH281268   1.081   2.007  14.514  0.0868 -0.1746 -0.2088
19926TIP3    H181269   1.174   1.988  14.514  0.1194 -0.0226 -0.3520
19926TIP3    H281270   1.068   2.064  14.438  0.1117  0.9401  0.5929
19927TIP3   OH281271   3.639   0.329   4.468  0.1004 -0.0151 -0.1275
19927TIP3    H181272   3.598   0.342   4.553  0.6878  1.6105 -0.0442
19927TIP3    H281273   3.615   0.240   4.442 -0.5508 -0.3331  1.4688
19928TIP3   OH281274   0.147   5.531   1.806 -0.0513  0.0799  0.4766
19928TIP3    H181275   0.133   5.480   1.886  1.8635 -1.7177 -0.2280
19928TIP3    H281276   0.175   5.466   1.741  0.2636  1.7437 -1.1498
19929TIP3   OH281277   0.931   0.836   6.135  0.2577 -0.6053 -0.1261
19929TIP3    H181278   0.999   0.867   6.074  0.7495  0.2144  0.7958
19929TIP3    H281279   0.882   0.915   6.157 -1.4615 -1.2979 -1.2899
19930TIP3   OH281280   3.224   1.727   5.365  0.6161  0.0825  0.1575
19930TIP3    H181281   3.223   1.818   5.396 -0.9961 -0.6306  2.4444
19930TIP3    H281282   3.242   1.676   5.444 -0.3098 -1.6847 -0.7371
19931TIP3   OH281283   2.148   5.777  15.550 -0.5954 -0.5112  0.2470
19931TIP3    H181284   2.152   5.753  15.642 -1.9166  1.1499  0.8070
19931TIP3    H281285   2.108   5.865  15.550  0.3048 -0.0275 -1.8342
19932TIP3   OH281286   3.939   5.167  14.999  0.8004 -0.3932 -0.5523
19932TIP3    H181287   3.922   5.073  15.002  0.5254 -0.3609 -1.0165
19932TIP3    H281288   3.866   5.206  15.047  2.5342 -0.5777  2.5313
19933TIP3   OH281289   4.822   6.373  12.013 -0.3206 -0.4928  0.5741
19933TIP3    H181290   4.776   6.288  12.015 -0.7083 -0.2706  1.8944
19933TIP3    H281291   4.873   6.374  12.094 -0.4735  0.6132  0.6625
19934TIP3   OH281292   2.271   4.010   6.103 -0.2311  0.0769  0.0258
19934TIP3    H181293   2.309   3.927   6.134  1.2383  0.4090 -0.7769
19934TIP3    H281294   2.344   4.072   6.106 -0.8828  0.9174 -0.9586
19935TIP3   OH281295   4.287   4.269   2.948  0.0617 -0.1850  0.3819
19935TIP3    H181296   4.348   4.342   2.955  0.4339 -0.4381 -0.2056
19935TIP3    H281297   4.264   4.248   3.039  0.0074  0.6072  0.5588
19936TIP3   OH281298   1.749   0.510  11.767 -0.0665  0.0918  0.6825
19936TIP3    H181299   1.689   0.534  11.838 -0.3604 -0.9137  0.7809
19936TIP3    H281300   1.836   0.510  11.808  0.0342  1.5861  0.5298
19937TIP3   OH281301   4.493   5.890  15.609 -0.1476 -0.0664 -0.0225
19937TIP3    H181302   4.518   5.860  15.522 -3.2167 -1.7482 -0.4665
19937TIP3    H281303   4.531   5.825  15.669 -0.6634 -0.7240 -0.3943
19938TIP3   OH281304   3.853   3.788  16.947  0.3312 -0.2424  0.3676
19938TIP3    H181305   3.912   3.728  16.992  1.2200 -0.8230 -1.4684
19938TIP3    H281306   3.771   3.739  16.938  0.4604 -0.4823  0.5022
19939TIP3   OH281307   1.748   2.141  15.773  0.6352  0.3320  0.2930
19939TIP3    H181308   1.793   2.202  15.831  0.5621  0.5261  0.1467
19939TIP3    H281309   1.706   2.197  15.707 -0.6009  0.2400  0.9588
19940TIP3   OH281310   0.528   0.893   2.457 -0.5880 -0.4178 -0.4739
19940TIP3    H181311   0.514   0.798   2.456 -0.7575 -0.4202  0.5732
19940TIP3    H281312   0.621   0.904   2.474 -0.5680 -0.3978 -0.5968
19941TIP3   OH281313   2.332   4.087  12.521  0.1620  0.2975 -0.0146
19941TIP3    H181314   2.416   4.041  12.519 -0.0259 -0.0350 -0.4402
19941TIP3    H281315   2.269   4.021  12.550  0.0009  0.4647  0.0137
19942TIP3   OH281316   0.218   5.341  15.722 -0.6067  0.6167 -0.3628
19942TIP3    H181317   0.296   5.291  15.698 -1.8311 -1.3899 -0.3245
19942TIP3    H281318   0.238   5.375  15.810  0.1212 -0.0965 -0.2408
19943TIP3   OH281319   3.356   1.587  14.692 -0.1569  0.0260  0.3647
19943TIP3    H181320   3.374   1.619  14.603 -2.4416  0.1832 -0.0989
19943TIP3    H281321   3.430   1.619  14.744  1.7537 -0.8647 -1.6116
19944TIP3   OH281322   3.798   0.920   3.728 -0.9731 -0.0680 -0.4526
19944TIP3    H181323   3.810   1.002   3.680 -0.1558 -1.0497 -1.9973
19944TIP3    H281324   3.725   0.877   3.686 -0.3330 -0.8830 -0.7608
19945TIP3   OH281325   1.850   4.324   5.646 -0.3308 -0.4909 -0.4290
19945TIP3    H181326   1.899   4.256   5.599  1.1919 -0.2696  0.7522
19945TIP3    H281327   1.915   4.392   5.663 -1.6299  0.8792 -0.7996
19946TIP3   OH281328   2.532   3.404   1.336 -0.2574 -0.0017 -0.1065
19946TIP3    H181329   2.509   3.347   1.262  2.1411 -2.6234  0.9435
19946TIP3    H281330   2.570   3.344   1.400  1.0903  2.6683  1.7583
19947TIP3   OH281331   4.976   5.607  13.759 -0.1948  0.2313 -0.3923
19947TIP3    H181332   4.998   5.550  13.686  1.2281  0.8017 -0.4380
19947TIP3    H281333   4.929   5.680  13.719  1.4302  1.0355 -0.9202
19948TIP3   OH281334   3.733   6.705   1.483 -0.0496  0.4695 -0.3289
19948TIP3    H181335   3.691   6.704   1.396 -0.5277 -1.2549 -0.1164
19948TIP3    H281336   3.667   6.744   1.540 -0.6589 -0.5121 -0.3400
19949TIP3   OH281337   3.911   3.016   1.165  0.2572  0.1936  0.9517
19949TIP3    H181338   3.901   2.970   1.082 -0.7519 -0.1985  1.2690
19949TIP3    H281339   3.851   3.091   1.158 -0.4389 -0.2804  1.6066
19950TIP3   OH281340   1.408   2.018   6.427  0.9035 -0.2514  0.2497
19950TIP3    H181341   1.351   1.961   6.478  1.9337 -0.9770  0.6127
19950TIP3    H281342   1.426   1.969   6.347 -0.0259  0.5331 -0.4694
19951TIP3   OH281343   0.147   0.104   3.324  0.6349  0.1148 -0.2760
19951TIP3    H181344   0.212   0.034   3.329  1.2525  0.5857 -1.3496
19951TIP3    H281345   0.196   0.183   3.347 -0.1252  0.1690  1.2150
19952TIP3   OH281346   4.876   6.433   4.515 -0.2452  0.4223 -0.1858
19952TIP3    H181347   4.966   6.460   4.532 -0.5940  0.6991  1.3140
19952TIP3    H281348   4.879   6.338   4.509  0.6205  0.5101 -3.2748
19953TIP3   OH281349   1.352   0.338  15.629  0.0099 -0.1561  0.1005
19953TIP3    H181350   1.366   0.345  15.535 -1.0603 -0.2134 -0.0651
19953TIP3    H281351   1.399   0.258  15.653 -2.0710 -1.7728 -0.8952
19954TIP3   OH281352   6.590   3.218  16.866  0.1700  0.0204  0.0054
19954TIP3    H181353   6.545   3.279  16.925 -2.2169 -0.1325 -1.5252
19954TIP3    H281354   6.664   3.268  16.831  0.4468  0.7547  1.5437
19955TIP3   OH281355   4.200   0.509  15.313  0.2371 -0.2037  0.5303
19955TIP3    H181356   4.262   0.502  15.384 -0.6334  0.5394  1.3940
19955TIP3    H281357   4.246   0.560  15.246  0.1832  1.3732  1.6357
19956TIP3   OH281358   5.580   0.370  12.556  0.6539 -0.1714  0.0585
19956TIP3    H181359   5.589   0.449  12.502  0.6309  0.4607  0.9601
19956TIP3    H281360   5.643   0.309  12.520  2.7591  1.2658  1.1082
19957TIP3   OH281361   2.747   1.984   4.756  0.1540 -0.2426 -0.3983
19957TIP3    H181362   2.796   1.986   4.673  0.3120  0.6227 -0.2960
19957TIP3    H281363   2.743   2.076   4.783  0.8523 -0.5968  0.9967
19958TIP3   OH281364   6.141   2.198   1.708 -0.2965 -0.0546 -0.0180
19958TIP3    H181365   6.099   2.268   1.658 -1.0205 -0.4656  0.0095
19958TIP3    H281366   6.143   2.231   1.798  1.8931  1.1105 -0.4167
19959TIP3   OH281367   1.928   3.278   4.182 -0.1787  0.2637 -0.2108
19959TIP3    H181368   1.860   3.220   4.147  0.0790 -0.2980  0.2104
19959TIP3    H281369   1.944   3.247   4.271  1.2017 -0.1375 -0.5651
19960TIP3   OH281370   0.628   2.865  10.768  0.0216  0.1074 -0.0089
19960TIP3    H181371   0.554   2.899  10.818 -0.2577 -0.7555  0.1936
19960TIP3    H281372   0.630   2.918  10.689 -1.0066 -0.0521 -0.1553
19961TIP3   OH281373   5.428   6.087   2.151  0.3621 -0.9140 -0.0390
19961TIP3    H181374   5.413   6.167   2.102  0.8774 -0.3376  0.7209
19961TIP3    H281375   5.502   6.045   2.107  0.7717 -0.4394  0.1930
19962TIP3   OH281376   6.005   2.617   1.938  0.6410 -0.7531  0.4799
19962TIP3    H181377   6.005   2.621   1.843  0.1732 -0.6030  0.4830
19962TIP3    H281378   6.097   2.626   1.963  0.7861 -0.9861  0.0366
19963TIP3   OH281379   3.400   6.468   4.378  0.3420  0.6285  0.1623
19963TIP3    H181380   3.436   6.394   4.329 -0.3001 -1.1106  2.1449
19963TIP3    H281381   3.305   6.453   4.377  0.1923  1.5029  0.4678
19964TIP3   OH281382   3.918   2.006   1.337  0.0810  0.3119 -0.6022
19964TIP3    H181383   3.940   2.100   1.338 -0.7209  0.5333 -1.7353
19964TIP3    H281384   3.823   2.004   1.322  0.2121 -0.6934 -1.3911
19965TIP3   OH281385   2.490   5.964  16.238 -0.9195 -0.0001 -0.3036
19965TIP3    H181386   2.450   5.903  16.300  0.5842  0.6689  1.3794
19965TIP3    H281387   2.494   6.048  16.285  0.0863  0.5828 -1.3753
19966TIP3   OH281388   6.346   4.590  14.992  0.3770  0.2426  0.3529
19966TIP3    H181389   6.262   4.636  14.993  0.2327 -0.0306  0.9075
19966TIP3    H281390   6.407   4.649  15.037  0.0417 -0.3782  1.6522
19967TIP3   OH281391   0.626   2.819  14.533  0.3609  0.2236 -0.2018
19967TIP3    H181392   0.639   2.760  14.459  0.6945 -1.2979  1.0173
19967TIP3    H281393   0.715   2.845  14.558  0.3703 -0.6429  0.7091
19968TIP3   OH281394   5.579   1.449  15.437 -0.1353  0.1804  0.3736
19968TIP3    H181395   5.639   1.524  15.436  1.4472 -0.8226  3.9971
19968TIP3    H281396   5.608   1.395  15.364  1.0737  1.3945 -0.1039
19969TIP3   OH281397   5.786   5.763  13.665  0.5240 -0.1365 -0.1198
19969TIP3    H181398   5.854   5.805  13.718 -1.0376  0.9879  1.0999
19969TIP3    H281399   5.757   5.831  13.604 -1.0639  0.1680  0.9235
19970TIP3   OH281400   5.949   4.405  15.268 -0.1403  0.2554 -0.5195
19970TIP3    H181401   5.900   4.398  15.350 -1.3396  1.2410 -1.1188
19970TIP3    H281402   5.951   4.316  15.234  0.2755 -0.1454  0.5096
19971TIP3   OH281403   5.756   0.380  11.853  0.2581  0.2064 -0.2092
19971TIP3    H181404   5.770   0.301  11.906 -0.6510  0.6919  0.7793
19971TIP3    H281405   5.662   0.381  11.836  0.4919  0.2391 -1.5787
19972TIP3   OH281406   4.392   5.743  13.463 -0.6120  0.1842 -0.0279
19972TIP3    H181407   4.383   5.668  13.523 -1.3807 -0.3657 -0.8142
19972TIP3    H281408   4.312   5.741  13.410 -1.0090  2.0085  0.4177
19973TIP3   OH281409   3.438   1.825   3.309 -0.0431 -0.0043 -0.5653
19973TIP3    H181410   3.534   1.827   3.306 -0.0708  0.8090 -2.7298
19973TIP3    H281411   3.415   1.890   3.375  0.8642 -1.3150  1.1343
19974TIP3   OH281412   3.245   5.225  14.422 -0.4571 -0.0025  0.2873
19974TIP3    H181413   3.260   5.236  14.516 -0.9841  1.0128  0.2739
19974TIP3    H281414   3.234   5.315  14.389  0.7273 -0.2633 -0.9170
19975TIP3   OH281415   0.306   4.665  14.506  0.5517  0.5147  0.5665
19975TIP3    H181416   0.290   4.590  14.448  0.9528  0.5770  0.3770
19975TIP3    H281417   0.323   4.625  14.591 -1.4509  0.4647  0.9877
19976TIP3   OH281418   3.079   0.927  13.976  0.5310  0.5897  0.4018
19976TIP3    H181419   3.080   0.942  13.881  0.5123  0.8162  0.4358
19976TIP3    H281420   3.153   0.979  14.008  3.4111 -2.8418  0.0388
19977TIP3   OH281421   2.901   1.007   4.071 -0.4368 -0.1464  0.2697
19977TIP3    H181422   2.931   0.964   4.152  0.4129 -0.2797 -0.1024
19977TIP3    H281423   2.927   1.099   4.082 -2.1903  0.2975  1.0351
19978TIP3   OH281424   3.166   2.603  14.306  0.7878  0.2159 -0.4694
19978TIP3    H181425   3.099   2.589  14.373  0.1592  0.9141 -0.9364
19978TIP3    H281426   3.247   2.569  14.345 -0.3661 -3.7490 -1.0831
19979TIP3   OH281427   0.249   5.508   4.121  0.2858  0.3008 -0.2418
19979TIP3    H181428   0.176   5.505   4.182 -2.3982 -1.1064 -3.1873
19979TIP3    H281429   0.306   5.436   4.147  0.2756  0.9472  1.6779
19980TIP3   OH281430   4.793   5.442  13.281 -0.2038  0.2996 -0.2894
19980TIP3    H181431   4.697   5.447  13.284 -0.3722 -1.9327  0.0619
19980TIP3    H281432   4.816   5.380  13.350  1.8237  3.2262  1.9166
19981TIP3   OH281433   1.888   4.576  13.471  0.2144 -0.0857 -0.6601
19981TIP3    H181434   1.827   4.647  13.492  1.3428  0.5287  0.7001
19981TIP3    H281435   1.876   4.561  13.378  0.0894  2.0553 -1.0355
19982TIP3   OH281436   2.678   3.922  15.469  0.4096  0.2577  0.1527
19982TIP3    H181437   2.595   3.958  15.438 -0.2517 -0.5703  0.9087
19982TIP3    H281438   2.716   3.879  15.393 -1.7134 -2.7284  0.5988
19983TIP3   OH281439   3.396   6.628  16.340 -0.2115 -0.5205 -0.3610
19983TIP3    H181440   3.354   6.543  16.349 -1.7385  0.0415 -1.6890
19983TIP3    H281441   3.488   6.608  16.322 -0.3733 -1.8470  0.2017
19984TIP3   OH281442   3.886   4.162  12.894 -0.1865 -0.0422  0.2735
19984TIP3    H181443   3.861   4.115  12.815  0.2993 -3.5814  1.9886
19984TIP3    H281444   3.981   4.168  12.890 -0.2207  0.5088  0.2250
19985TIP3   OH281445   3.336   0.429  10.799 -0.5787  0.0299 -0.1467
19985TIP3    H181446   3.342   0.509  10.851  0.4188  0.1882 -0.4837
19985TIP3    H281447   3.330   0.460  10.709 -2.6233 -0.2349 -0.1350
19986TIP3   OH281448   2.240   0.083   2.582 -0.0185  0.2807 -0.1031
19986TIP3    H181449   2.174   0.114   2.644  0.0372 -0.0174  0.1047
19986TIP3    H281450   2.289   0.162   2.558  0.0170  0.3815  0.2978
19987TIP3   OH281451   3.011   6.369   3.704 -0.3937 -0.2565  0.2963
19987TIP3    H181452   3.038   6.298   3.762  0.4529 -0.0781  0.1312
19987TIP3    H281453   3.036   6.339   3.616  1.2692  0.8170  0.3579
19988TIP3   OH281454   0.826   4.419   4.364 -0.3940 -0.8609  0.3107
19988TIP3    H181455   0.806   4.406   4.457 -2.6877 -0.4379 -0.0652
19988TIP3    H281456   0.744   4.451   4.326  1.3135  2.0264 -1.2929
19989TIP3   OH281457   4.148   1.942  12.577 -0.1728  0.8029  0.3304
19989TIP3    H181458   4.116   2.029  12.597 -1.1691  0.2514  1.1960
19989TIP3    H281459   4.219   1.927  12.640 -0.7223  0.5759  0.9020
19990TIP3   OH281460   6.021   1.671  12.040  0.4220  0.1270 -0.0776
19990TIP3    H181461   5.948   1.730  12.020  0.8476  0.7561  0.2033
19990TIP3    H281462   6.001   1.591  11.991 -1.6739 -0.6220  1.8256
19991TIP3   OH281463   1.241   4.708  15.758  0.8075 -0.4244  0.6502
19991TIP3    H181464   1.300   4.647  15.802  2.9431  0.7926 -0.3882
19991TIP3    H281465   1.294   4.747  15.688 -0.8964  1.5665  0.3704
19992TIP3   OH281466   3.636   3.776   5.780 -0.1086 -0.4796 -0.5068
19992TIP3    H181467   3.682   3.829   5.715 -0.5216 -0.2102 -0.5820
19992TIP3    H281468   3.546   3.771   5.748 -0.3105 -0.3639  0.0310
19993TIP3   OH281469   2.937   0.990  14.224 -0.0739  0.2960 -0.2467
19993TIP3    H181470   2.876   1.058  14.194  1.1254  1.1226 -0.8641
19993TIP3    H281471   2.996   0.977  14.150 -0.0945 -1.2327 -0.0322
19994TIP3   OH281472   6.626   1.642  12.302  0.5370  0.6042 -0.0081
19994TIP3    H181473   6.596   1.552  12.306  1.9584  0.0199 -1.4863
19994TIP3    H281474   6.572   1.682  12.233 -0.8158  1.2240  1.3521
19995TIP3   OH281475   1.398   3.150  11.925  0.3594  0.2967 -0.1860
19995TIP3    H181476   1.332   3.180  11.862 -0.9898  0.9340  1.4582
19995TIP3    H281477   1.468   3.214  11.918 -0.1037  0.7811 -0.5138
19996TIP3   OH281478   2.998   6.558   3.071 -0.2495 -0.5459 -0.4584
19996TIP3    H181479   3.025   6.649   3.057  0.5692 -0.7424 -0.2458
19996TIP3    H281480   2.977   6.525   2.984 -0.7939 -0.0829 -0.5078
19997TIP3   OH281481   1.056   4.011  16.812 -0.0701 -0.3071  0.0638
19997TIP3    H181482   1.098   4.004  16.726 -0.7898 -0.9739 -0.2463
19997TIP3    H281483   1.081   4.098  16.844 -0.4939  0.3014 -1.1960
19998TIP3   OH281484   5.002   2.482   5.743  0.5550 -0.1167  0.6180
19998TIP3    H181485   4.928   2.532   5.779 -0.0962 -1.9191  1.9186
19998TIP3    H281486   5.072   2.547   5.733 -0.8835  1.4595  0.1994
19999TIP3   OH281487   1.173   6.785   2.871 -0.9262  0.1745  0.5052
19999TIP3    H181488   1.253   6.734   2.861 -0.2153  1.3325  0.1581
19999TIP3    H281489   1.179   6.824   2.958 -0.8449  0.6918  0.2742
20000TIP3   OH281490   4.515   0.095  16.998  0.1160 -0.0566  0.2467
20000TIP3    H181491   4.588   0.154  16.975 -0.3424  1.1008  1.6203
20000TIP3    H281492   4.555   0.008  17.002  0.5536 -0.1409 -3.1213
20001TIP3   OH281493   3.450   2.324  13.304  0.2606  0.5544 -0.3252
20001TIP3    H181494   3.371   2.374  13.327  0.1300  0.2854 -0.1836
20001TIP3    H281495   3.468   2.348  13.214 -0.2210  0.3091 -0.4898
20002TIP3   OH281496   2.244   4.076   3.100 -0.2989  0.1142 -0.6552
20002TIP3    H181497   2.182   4.012   3.064  0.0813  0.3786 -1.8500
20002TIP3    H281498   2.216   4.159   3.061  1.0710  0.1647 -1.5856
20003TIP3   OH281499   4.588   4.487   1.708 -0.7060  0.2597 -0.3094
20003TIP3    H181500   4.584   4.517   1.617  2.0282  2.2068  0.0889
20003TIP3    H281501   4.569   4.565   1.760 -0.2505 -0.3301  0.7789
20004TIP3   OH281502   6.276   2.396  13.068  0.7101  0.4313 -0.1883
20004TIP3    H181503   6.355   2.409  13.016  0.2894  0.6833 -0.7723
20004TIP3    H281504   6.299   2.327  13.130  1.0558 -0.2290 -1.0391
20005TIP3   OH281505   1.757   3.067   0.951 -0.7761 -0.1448 -0.3343
20005TIP3    H181506   1.681   3.123   0.961  0.2027  1.2642 -0.5257
20005TIP3    H281507   1.720   2.979   0.940 -2.3956  0.5627 -0.9825
20006TIP3   OH281508   1.434   3.171   5.148 -0.3153  0.3409 -0.2581
20006TIP3    H181509   1.354   3.219   5.127 -1.4202 -1.7963 -1.2229
20006TIP3    H281510   1.417   3.082   5.119  2.7542 -0.0317 -1.3002
20007TIP3   OH281511   0.203   4.968  14.320  0.0926 -0.1447 -0.8658
20007TIP3    H181512   0.214   4.973  14.225 -1.5213  1.2807 -1.0350
20007TIP3    H281513   0.288   4.941  14.353  0.8820  0.0229 -2.6714
20008TIP3   OH281514   0.751   6.172   1.732  0.1914  0.8131 -0.2162
20008TIP3    H181515   0.714   6.182   1.645  0.2749  3.8786  0.0105
20008TIP3    H281516   0.688   6.117   1.779 -1.6897  2.0123 -1.2109
20009TIP3   OH281517   5.998   0.239   6.118  0.3924 -0.2015  0.1709
20009TIP3    H181518   6.079   0.285   6.093 -0.0253  0.2291 -0.4114
20009TIP3    H281519   5.945   0.307   6.160 -0.5128  0.0322 -1.3094
20010TIP3   OH281520   1.056   6.138   4.367  0.7225 -0.0855 -0.0956
20010TIP3    H181521   1.110   6.060   4.355  0.1176 -0.6731  0.8834
20010TIP3    H281522   0.973   6.105   4.400  0.0826  0.8907 -0.6759
20011TIP3   OH281523   1.752   5.265  10.510  0.1458  0.2769  0.2286
20011TIP3    H181524   1.736   5.218  10.592  1.5817  0.5364  0.6872
20011TIP3    H281525   1.718   5.353  10.526 -0.5777  0.0180  0.1429
20012TIP3   OH281526   1.710   1.950   3.403 -0.9426  0.1084  0.0794
20012TIP3    H181527   1.700   1.877   3.465  0.1175  0.2075  0.3866
20012TIP3    H281528   1.685   2.028   3.453 -0.6336  0.1221  0.2162
20013TIP3   OH281529   2.258   5.669  14.303 -0.4307 -0.1249  0.1525
20013TIP3    H181530   2.162   5.666  14.302 -0.4847 -2.4031  2.4105
20013TIP3    H281531   2.279   5.755  14.339 -1.5909  0.4797 -0.5376
20014TIP3   OH281532   6.295   5.614  13.404  0.3429  0.2648  0.3450
20014TIP3    H181533   6.200   5.631  13.408  0.2523  1.1732 -2.9723
20014TIP3    H281534   6.335   5.695  13.435  0.0451  0.1162  1.1381
20015TIP3   OH281535   3.518   2.789  10.612  0.0394  0.0474 -0.2154
20015TIP3    H181536   3.541   2.699  10.588  0.6937 -0.1426  1.0424
20015TIP3    H281537   3.571   2.844  10.555  0.6398 -0.3787 -0.0681
20016TIP3   OH281538   3.186   2.369   3.606 -0.0392  0.9069  0.0400
20016TIP3    H181539   3.278   2.366   3.581 -0.2336  0.7303 -0.6750
20016TIP3    H281540   3.181   2.316   3.686  0.4100  0.5799 -0.1450
20017TIP3   OH281541   0.228   2.607   1.707  0.2182 -0.2290  0.6152
20017TIP3    H181542   0.283   2.636   1.635  0.5479 -0.1859  0.8815
20017TIP3    H281543   0.253   2.516   1.722 -1.3642 -0.9385 -0.7347
20018TIP3   OH281544   5.613   2.594  10.983  0.5636  0.2359  0.1170
20018TIP3    H181545   5.605   2.684  10.949  0.9777  0.0062 -0.6138
20018TIP3    H281546   5.523   2.562  10.986  0.5811 -0.1911 -2.0803
20019TIP3   OH281547   4.217   0.711   2.647 -0.5569  0.2171  0.1023
20019TIP3    H181548   4.269   0.677   2.719  0.0094 -1.1609 -0.9057
20019TIP3    H281549   4.128   0.679   2.664  0.1970 -3.1731 -1.5182
20020TIP3   OH281550   4.508   2.924  14.203 -0.1450  0.0287 -0.1517
20020TIP3    H181551   4.572   2.860  14.233  1.6719  0.8740 -1.9667
20020TIP3    H281552   4.558   3.006  14.197 -1.7262  1.0081 -0.3956
20021TIP3   OH281553   3.850   1.370  11.645 -0.1621  0.4576  0.5361
20021TIP3    H181554   3.868   1.422  11.724  0.1125  1.7255 -0.3329
20021TIP3    H281555   3.782   1.308  11.672  0.7010  0.1171  2.0664
20022TIP3   OH281556   6.732   0.389  15.383 -0.5128 -0.0101 -0.2161
20022TIP3    H181557   6.709   0.373  15.292 -0.3071 -0.8615 -0.1308
20022TIP3    H281558   6.822   0.421  15.380  0.0883 -1.6237 -0.2201
20023TIP3   OH281559   1.081   5.818   2.424  0.2817 -0.2702 -0.6809
20023TIP3    H181560   1.170   5.784   2.412  0.5811  0.6670 -1.2114
20023TIP3    H281561   1.080   5.901   2.377 -0.3938  0.5255  0.6717
20024TIP3   OH281562   2.957   4.468   1.190 -0.1404 -0.2006 -0.0975
20024TIP3    H181563   2.904   4.409   1.136  0.3124  0.2030 -1.0066
20024TIP3    H281564   2.907   4.477   1.271 -1.4374  0.1299 -0.9050
20025TIP3   OH281565   3.475   2.352   5.333  0.0650 -0.1518  0.1527
20025TIP3    H181566   3.468   2.394   5.418 -0.0179 -2.1637  1.2082
20025TIP3    H281567   3.397   2.296   5.327  0.0125  0.0214 -1.2920
20026TIP3   OH281568   4.775   3.251   1.121 -0.4585 -0.0752  0.0432
20026TIP3    H181569   4.857   3.276   1.079 -0.7682 -0.2574 -0.6823
20026TIP3    H281570   4.722   3.331   1.119  0.0761  0.3477  1.4714
20027TIP3   OH281571   6.812   4.284  12.955  0.1199  0.0407 -0.0343
20027TIP3    H181572   6.872   4.338  12.903 -0.2422  0.5028  0.0220
20027TIP3    H281573   6.794   4.208  12.899 -0.0915  0.4236 -0.4887
20028TIP3   OH281574   4.308   1.014   3.943 -0.0267  0.1358 -0.0955
20028TIP3    H181575   4.376   0.947   3.951 -0.4213 -0.4299 -1.2692
20028TIP3    H281576   4.334   1.082   4.005  0.4828 -1.0082  1.0008
20029TIP3   OH281577   3.574   0.060  17.081 -0.1879  0.2386 -0.0787
20029TIP3    H181578   3.519  -0.002  17.127 -0.8239 -0.3580 -1.5670
20029TIP3    H281579   3.663   0.038  17.107 -0.5435  0.2043  1.1553
20030TIP3   OH281580   1.899   4.310   3.772  0.3309  0.2344 -0.1349
20030TIP3    H181581   1.972   4.350   3.724 -0.3552 -0.1936 -1.5852
20030TIP3    H281582   1.937   4.232   3.812  0.8651  0.4574 -0.1976
20031TIP3   OH281583   4.726   0.814   4.356  0.1014  0.0022  0.7025
20031TIP3    H181584   4.662   0.750   4.324 -0.8797  0.2440  2.1060
20031TIP3    H281585   4.708   0.892   4.303  1.0088 -0.6887 -0.7063
20032TIP3   OH281586   3.064   2.388   1.540  0.0398 -0.0566  0.1516
20032TIP3    H181587   3.092   2.301   1.566  1.6767  0.3664 -0.0475
20032TIP3    H281588   3.140   2.444   1.559 -1.1580  1.4267  0.7944
20033TIP3   OH281589   5.143   3.910   1.094 -0.4972  0.4768 -0.9613
20033TIP3    H181590   5.236   3.930   1.077  0.0054 -0.8340  0.1030
20033TIP3    H281591   5.143   3.868   1.180 -1.8922 -0.8699 -1.5758
20034TIP3   OH281592   6.369   4.970   1.563 -0.0781  0.0252  0.9304
20034TIP3    H181593   6.425   4.896   1.539 -0.6485  0.2670 -1.3493
20034TIP3    H281594   6.284   4.932   1.580 -0.2146  0.0768  0.3792
20035TIP3   OH281595   0.901   6.555   4.179 -0.0481 -0.0578  0.4860
20035TIP3    H181596   0.869   6.509   4.256  0.5711  0.1221  0.8525
20035TIP3    H281597   0.929   6.486   4.119  0.2456 -0.1759  0.7579
20036TIP3   OH281598   3.722   4.281  16.087  0.1004 -0.7342 -0.1632
20036TIP3    H181599   3.649   4.222  16.102  0.5858 -1.3865 -0.3131
20036TIP3    H281600   3.784   4.260  16.157 -0.7250  1.2546  1.2424
20037TIP3   OH281601   4.406   5.297  14.806  0.0921  0.6861  0.4514
20037TIP3    H181602   4.494   5.301  14.843  0.1336 -1.1295  0.6457
20037TIP3    H281603   4.350   5.273  14.880 -0.2674 -0.0176 -0.0371
20038TIP3   OH281604   0.603   4.490   2.870 -0.2257  0.3959  0.2733
20038TIP3    H181605   0.606   4.405   2.826  1.8091  1.1561 -1.2241
20038TIP3    H281606   0.625   4.470   2.961 -0.1099 -0.7274  0.0134
20039TIP3   OH281607   5.144   3.025  13.624  0.2941 -0.4238 -0.7625
20039TIP3    H181608   5.114   2.985  13.542  0.7170 -0.7052 -0.7832
20039TIP3    H281609   5.233   2.991  13.637  0.0323 -0.8260  0.0995
20040TIP3   OH281610   1.445   3.648   1.032 -0.1252 -0.0441 -0.0859
20040TIP3    H181611   1.401   3.625   0.950 -0.3025 -0.1112  0.0269
20040TIP3    H281612   1.509   3.578   1.045 -0.3740 -0.2539  0.0383
20041TIP3   OH281613   0.676   3.538   0.778 -0.1159  0.1262 -0.1254
20041TIP3    H181614   0.730   3.467   0.740 -1.1916 -0.4286 -0.6651
20041TIP3    H281615   0.658   3.508   0.867  1.2715  0.7846  0.4039
20042TIP3   OH281616   0.533   5.333  12.619  0.5154  0.2320  0.0008
20042TIP3    H181617   0.495   5.385  12.549 -2.3494 -3.2120 -1.3447
20042TIP3    H281618   0.475   5.348  12.694 -0.3227 -0.8789 -0.3938
20043TIP3   OH281619   0.490   2.449  11.049 -0.1086  0.3703 -0.4020
20043TIP3    H181620   0.409   2.489  11.081  0.2935 -0.3046  1.5800
20043TIP3    H281621   0.550   2.523  11.036 -0.4198  0.6954 -0.0012
20044TIP3   OH281622   4.052   3.146  13.500 -0.9689  0.4537 -0.3654
20044TIP3    H181623   4.067   3.207  13.573 -0.0368  1.3189 -1.2495
20044TIP3    H281624   4.106   3.070  13.521 -1.4392  0.2889  0.2978
20045TIP3   OH281625   3.165   3.389   5.484 -0.3289  0.2855 -0.2672
20045TIP3    H181626   3.126   3.475   5.497 -2.9888 -0.8098 -0.4302
20045TIP3    H281627   3.138   3.338   5.561  2.7930  0.0280  0.8066
20046TIP3   OH281628   6.079   3.289  15.435  0.5862  0.4176  0.3823
20046TIP3    H181629   6.168   3.256  15.435  0.5948  0.3824  1.7362
20046TIP3    H281630   6.085   3.376  15.397  1.2766  0.5781  0.8490
20047TIP3   OH281631   1.013   1.141   0.086  0.1416  0.8783  0.4512
20047TIP3    H181632   1.105   1.135   0.057 -0.2328  2.8098 -1.3923
20047TIP3    H281633   0.963   1.127   0.006 -1.2718 -1.2068  1.6199
20048TIP3   OH281634   0.640   1.881   1.161 -0.9890  0.1793  0.1016
20048TIP3    H181635   0.569   1.817   1.161 -1.1898  0.3978  0.6501
20048TIP3    H281636   0.720   1.829   1.172 -1.2464  0.1015  2.0033
20049TIP3   OH281637   6.166   1.194   4.066  0.2954 -0.2039 -0.5053
20049TIP3    H181638   6.124   1.280   4.062 -1.7868 -1.1641 -0.3787
20049TIP3    H281639   6.107   1.136   4.019  0.9816 -1.8391  0.5542
20050TIP3   OH281640   6.518   3.754  15.821 -0.4547  0.2341 -0.1009
20050TIP3    H181641   6.455   3.818  15.790 -0.5853  1.0284  1.7235
20050TIP3    H281642   6.532   3.696  15.746 -1.8858  1.1671 -1.1271
20051TIP3   OH281643   0.421   2.408   1.819 -0.5325 -0.0291  0.6006
20051TIP3    H181644   0.478   2.368   1.754 -1.0180  1.2434 -0.6915
20051TIP3    H281645   0.372   2.336   1.857 -2.0250 -0.6805 -2.2607
20052TIP3   OH281646   1.742   0.755   4.411  0.0057  0.4268 -0.5700
20052TIP3    H181647   1.718   0.711   4.329  0.3521  1.7697 -1.4263
20052TIP3    H281648   1.832   0.729   4.427 -0.1997 -0.1798 -0.3757
20053TIP3   OH281649   6.510   3.030  15.217  0.3399 -0.1147  0.6284
20053TIP3    H181650   6.595   2.987  15.205 -0.1332 -0.6240 -1.1799
20053TIP3    H281651   6.451   2.960  15.245 -0.0329 -0.3123 -0.5989
20054TIP3   OH281652   5.281   0.345   3.136 -0.1906  0.3876 -0.0221
20054TIP3    H181653   5.199   0.342   3.087 -0.0543 -2.2004 -0.1865
20054TIP3    H281654   5.349   0.323   3.073  0.1296 -1.6588  0.9614
20055TIP3   OH281655   0.350   6.155   6.226 -0.1901  0.0257 -0.1487
20055TIP3    H181656   0.436   6.124   6.255  0.7806  2.1065 -0.5612
20055TIP3    H281657   0.292   6.080   6.235  1.2641 -0.9221  1.8908
20056TIP3   OH281658   0.605   4.696   1.898 -0.1654  0.4062  0.3413
20056TIP3    H181659   0.613   4.657   1.811 -0.4393  0.4272  0.3056
20056TIP3    H281660   0.670   4.767   1.898  1.5477 -1.0877  0.9976
20057TIP3   OH281661   4.139   4.113   3.744 -1.0470  0.3029 -0.0849
20057TIP3    H181662   4.127   4.206   3.727  1.3154  0.4859 -1.1706
20057TIP3    H281663   4.087   4.069   3.676 -0.1926  0.9111 -1.1729
20058TIP3   OH281664   1.545   4.371   4.635  0.6355 -0.4878 -0.1119
20058TIP3    H181665   1.614   4.438   4.635  0.5620 -0.4025  0.7193
20058TIP3    H281666   1.466   4.420   4.656  0.4819 -0.7478 -0.0949
20059TIP3   OH281667   6.737   0.909  11.843 -0.0183  1.0934 -0.2219
20059TIP3    H181668   6.819   0.919  11.891 -0.4259  0.2273  0.6922
20059TIP3    H281669   6.685   0.849  11.897 -0.2609 -0.4174 -2.0408
20060TIP3   OH281670   3.130   3.952   5.601  0.0534 -0.0831 -0.2279
20060TIP3    H181671   3.149   3.909   5.684  0.9826 -0.3830 -0.5914
20060TIP3    H281672   3.176   3.901   5.536 -0.0150  0.6220 -0.8445
20061TIP3   OH281673   0.027   4.373  17.066 -0.1312  0.1927  0.2776
20061TIP3    H181674  -0.063   4.384  17.033  0.0825  0.7493 -0.1451
20061TIP3    H281675   0.068   4.315  17.001 -0.6267 -1.3982  1.3267
20062TIP3   OH281676   4.190   0.721   3.822  0.6668 -0.1138 -0.0789
20062TIP3    H181677   4.251   0.793   3.840 -1.7605  1.5277  2.2843
20062TIP3    H281678   4.104   0.756   3.843 -0.6081 -3.9250  2.0154
20063TIP3   OH281679   3.334   0.197  12.946  0.1307  1.0290 -0.1793
20063TIP3    H181680   3.425   0.166  12.943  0.2043  1.0021  1.6350
20063TIP3    H281681   3.334   0.264  13.014 -1.3660  0.4887  0.3858
20064TIP3   OH281682   3.806   3.276  11.382 -0.0719  0.1285  0.0970
20064TIP3    H181683   3.817   3.184  11.404  1.3240  0.1264 -0.5186
20064TIP3    H281684   3.788   3.277  11.288 -0.1909  0.4894  0.1195
20065TIP3   OH281685   2.882   1.067   2.799  0.5811  0.2868  0.1918
20065TIP3    H181686   2.876   0.972   2.789  1.8798  0.1210  0.7871
20065TIP3    H281687   2.837   1.102   2.722 -0.4348 -0.7921  0.2694
20066TIP3   OH281688   2.655   1.389   4.911  0.5116  0.1024 -0.0853
20066TIP3    H181689   2.590   1.418   4.975  0.5327 -0.2910  0.1182
20066TIP3    H281690   2.635   1.440   4.833 -0.0547 -0.0233 -0.0295
20067TIP3   OH281691   0.847   3.714  13.965 -0.1613 -0.7233  0.1701
20067TIP3    H181692   0.769   3.766  13.985 -0.2359 -0.6791 -0.2309
20067TIP3    H281693   0.888   3.699  14.050 -1.2022 -1.6897  0.5443
20068TIP3   OH281694   0.199   2.713   6.702 -0.2633  0.2331 -0.3696
20068TIP3    H181695   0.249   2.734   6.781  0.5445 -3.3053  0.1891
20068TIP3    H281696   0.251   2.752   6.630  1.9147 -1.0337  0.4284
20069TIP3   OH281697   3.614   4.834   1.915 -0.2469  0.1337  0.4854
20069TIP3    H181698   3.535   4.857   1.965 -0.9018 -1.7951  0.4015
20069TIP3    H281699   3.680   4.816   1.983 -0.1714  0.7322  0.5756
20070TIP3   OH281700   0.695   6.574  13.248 -0.1614  0.2369 -0.4184
20070TIP3    H181701   0.757   6.626  13.298  0.5882 -1.1325  0.1126
20070TIP3    H281702   0.710   6.601  13.157  2.3422 -1.1546 -0.4935
20071TIP3   OH281703   0.233   2.461  16.533 -0.3449 -0.2115 -0.7651
20071TIP3    H181704   0.275   2.390  16.581 -0.4437  0.2781  0.0586
20071TIP3    H281705   0.175   2.503  16.597 -0.8649  0.1396 -1.4458
20072TIP3   OH281706   1.902   2.543   5.082 -0.3355  0.3027 -0.3481
20072TIP3    H181707   1.873   2.605   5.150 -0.3261  1.1152 -1.0681
20072TIP3    H281708   1.994   2.563   5.069  0.2956 -1.4393  1.0409
20073TIP3   OH281709   5.016   5.024   0.916  0.3497 -0.1747 -0.0952
20073TIP3    H181710   5.108   5.006   0.937  0.0907 -0.4839  0.8313
20073TIP3    H281711   4.971   4.942   0.936 -0.2054  0.1524 -0.0013
20074TIP3   OH281712   6.307   1.878  16.463 -0.6912  0.2666  0.0521
20074TIP3    H181713   6.393   1.866  16.503 -0.9243 -2.5489 -0.0598
20074TIP3    H281714   6.260   1.797  16.484 -1.7700 -0.2346 -3.5923
20075TIP3   OH281715   4.299   4.646  11.188  0.2426 -0.5515 -0.3327
20075TIP3    H181716   4.271   4.573  11.243  0.7609 -1.0564 -0.7277
20075TIP3    H281717   4.234   4.715  11.204 -0.6222 -1.3317 -0.4576
20076TIP3   OH281718   6.675   0.233   3.305  0.5051  0.3452 -0.2260
20076TIP3    H181719   6.697   0.178   3.229  1.5837  0.6021 -0.1222
20076TIP3    H281720   6.700   0.321   3.278  3.1825  0.1444  1.2188
20077TIP3   OH281721   1.475   1.256   4.098 -0.4369 -0.0848 -0.2846
20077TIP3    H181722   1.458   1.283   4.188 -2.0353 -0.3770 -0.4679
20077TIP3    H281723   1.412   1.306   4.046  0.7081  0.3587 -1.3012
20078TIP3   OH281724   0.340   5.968   3.141 -0.2119 -0.1969  0.0462
20078TIP3    H181725   0.396   5.912   3.086 -1.7664 -1.8934  0.1045
20078TIP3    H281726   0.358   5.940   3.230 -1.2117 -0.8423  0.0587
20079TIP3   OH281727   6.457   1.206  10.706  0.5694 -0.1665 -0.5947
20079TIP3    H181728   6.393   1.208  10.635 -0.0886  3.0958 -0.0711
20079TIP3    H281729   6.405   1.219  10.786  1.6747  1.1655 -0.0335
20080TIP3   OH281730   4.330   0.876   1.205 -0.5569 -0.1023 -0.2886
20080TIP3    H181731   4.368   0.883   1.117 -3.4092 -1.8593 -1.8150
20080TIP3    H281732   4.374   0.802   1.245 -1.3427 -1.2571 -1.4909
20081TIP3   OH281733   0.850   6.163  10.421 -0.2477 -0.2577  0.3813
20081TIP3    H181734   0.788   6.104  10.463 -0.6154  0.2320  0.5452
20081TIP3    H281735   0.803   6.246  10.415 -0.1519 -0.2715 -0.8457
20082TIP3   OH281736   0.976   0.797  13.156  0.1419  0.1156 -0.3193
20082TIP3    H181737   1.037   0.847  13.101 -0.2643  0.9196 -0.0561
20082TIP3    H281738   0.945   0.861  13.220 -0.0559 -0.5966  0.3012
20083TIP3   OH281739   1.235   4.641  16.189  0.3672 -0.0517  0.2896
20083TIP3    H181740   1.173   4.681  16.128 -0.0013  2.3413  2.0791
20083TIP3    H281741   1.180   4.595  16.252  0.6607 -1.0160 -0.1284
20084TIP3   OH281742   0.194   6.657  15.298  0.5149  0.0283  0.2732
20084TIP3    H181743   0.188   6.735  15.353 -0.8956  0.4963 -0.5018
20084TIP3    H281744   0.261   6.678  15.234 -0.7576  1.1682 -0.7429
20085TIP3   OH281745   0.609   0.409   0.294  0.0214 -0.0815 -0.4402
20085TIP3    H181746   0.582   0.323   0.326 -1.8994  1.1928  1.7089
20085TIP3    H281747   0.703   0.399   0.275  0.3610 -2.1204  1.7451
20086TIP3   OH281748   5.552   4.777  10.964 -0.0834 -0.2827  0.1572
20086TIP3    H181749   5.630   4.730  10.934 -0.7639 -0.5459 -1.2539
20086TIP3    H281750   5.538   4.744  11.053 -0.0397 -2.1463 -0.4791
20087TIP3   OH281751   0.852   3.677  12.732 -0.0369  0.2707  0.8125
20087TIP3    H181752   0.928   3.690  12.790  0.5091 -0.7283  0.3414
20087TIP3    H281753   0.811   3.597  12.764 -1.2020  1.0535  1.3616
20088TIP3   OH281754   0.649   6.000  15.484  0.2274 -0.2581 -0.4080
20088TIP3    H181755   0.719   5.955  15.532 -0.1141 -0.3713 -0.0144
20088TIP3    H281756   0.664   6.093  15.501 -0.1744 -0.3202  0.3125
20089TIP3   OH281757   5.694   3.241  16.966  0.1465  0.0691 -0.3073
20089TIP3    H181758   5.753   3.169  16.991  0.5822  0.3730 -0.4488
20089TIP3    H281759   5.702   3.247  16.871  0.0660  0.2649 -0.3009
20090TIP3   OH281760   0.866   2.458   2.535 -0.1365  0.2493 -0.3042
20090TIP3    H181761   0.795   2.503   2.580 -0.6781 -0.3817 -0.5221
20090TIP3    H281762   0.823   2.397   2.476  0.5816 -0.2520 -0.3259
20091TIP3   OH281763   4.007   4.326  11.096  0.5478  0.1768 -0.0229
20091TIP3    H181764   4.054   4.258  11.144 -1.3291 -0.7662  0.5750
20091TIP3    H281765   4.045   4.325  11.009  0.3726 -1.8778 -0.1194
20092TIP3   OH281766   0.768   6.529   3.280  0.0075 -0.0855  0.5659
20092TIP3    H181767   0.699   6.470   3.249  0.3229  0.1456 -0.6081
20092TIP3    H281768   0.725   6.586   3.344 -0.8191 -0.1250  0.0488
20093TIP3   OH281769   3.872   6.585  13.728  0.0442 -0.0227  0.4912
20093TIP3    H181770   3.937   6.599  13.659 -0.9394  0.9966 -0.2559
20093TIP3    H281771   3.795   6.551  13.683 -0.4415  0.1642  1.1638
20094TIP3   OH281772   4.779   0.671   2.626 -0.1868  0.3477  0.0925
20094TIP3    H181773   4.821   0.596   2.668 -1.1330  0.6056  1.5663
20094TIP3    H281774   4.685   0.649   2.627 -0.5988  1.9622  1.5017
20095TIP3   OH281775   5.066   0.670  12.588 -0.7523  0.1375  0.3337
20095TIP3    H181776   5.147   0.660  12.638 -0.9176  2.7681  1.2795
20095TIP3    H281777   5.087   0.639  12.500  0.8489 -0.4953  0.9102
20096TIP3   OH281778   5.858   3.861   3.184 -0.1825  0.4219 -0.2660
20096TIP3    H181779   5.827   3.951   3.177  0.5294  0.7591  0.6780
20096TIP3    H281780   5.953   3.870   3.193  0.0377 -0.4962 -1.4685
20097TIP3   OH281781   3.722   5.087  12.132  0.1248  0.1086  0.3038
20097TIP3    H181782   3.683   5.174  12.142  0.2184  0.2232 -0.3064
20097TIP3    H281783   3.654   5.035  12.088  0.1143 -0.0935  0.5572
20098TIP3   OH281784   2.261   4.482  10.952 -0.0626  0.0770 -0.3333
20098TIP3    H181785   2.208   4.553  10.916 -1.7340 -0.6141  0.6820
20098TIP3    H281786   2.312   4.451  10.877 -2.4395 -0.4370 -1.8677
20099TIP3   OH281787   1.488   5.660  12.824  0.0438  0.3894 -0.5613
20099TIP3    H181788   1.570   5.610  12.827 -0.3051 -0.1681 -0.2192
20099TIP3    H281789   1.423   5.603  12.866 -0.2461  1.3537  0.3337
20100TIP3   OH281790   1.990   5.915   4.862  0.2406 -0.0356 -0.3593
20100TIP3    H181791   1.998   5.877   4.775  1.2720 -0.6673  0.0027
20100TIP3    H281792   1.996   5.841   4.922 -1.2147  0.2879  0.2525
20101TIP3   OH281793   3.387   2.023  13.229  0.2558  0.2206 -0.0387
20101TIP3    H181794   3.403   2.106  13.273 -2.1395  1.5888 -1.5176
20101TIP3    H281795   3.436   2.029  13.147 -0.0533  0.2862 -0.2233
20102TIP3   OH281796   0.972   4.653  12.156  0.0391  0.5128  0.0012
20102TIP3    H181797   1.027   4.680  12.229  0.2399  2.5493 -0.8439
20102TIP3    H281798   1.021   4.583  12.113  1.4610  1.4821 -0.0427
20103TIP3   OH281799   4.431   2.084  12.767  0.1563 -0.1905  0.3131
20103TIP3    H181800   4.348   2.131  12.778 -0.1828 -0.9596  1.1632
20103TIP3    H281801   4.423   2.008  12.825  0.3987 -1.7010 -1.5591
20104TIP3   OH281802   6.135   0.873  16.419  0.0437 -0.6457  0.7000
20104TIP3    H181803   6.092   0.837  16.342 -0.3047  1.0671  0.0592
20104TIP3    H281804   6.202   0.808  16.442  0.5435 -0.9291 -1.3948
20105TIP3   OH281805   4.855   3.664  15.150  0.0910 -0.0027  0.3568
20105TIP3    H181806   4.808   3.644  15.231 -0.2871  0.2570  0.2085
20105TIP3    H281807   4.838   3.757  15.136 -2.3527 -0.6340 -1.5789
20106TIP3   OH281808   0.218   5.718  15.474 -0.4001  0.5048 -0.1373
20106TIP3    H181809   0.218   5.794  15.533  0.2298  0.0703  0.4313
20106TIP3    H281810   0.144   5.665  15.503 -0.3148  0.4727  0.0195
20107TIP3   OH281811   5.419   6.049  16.258  0.2924  0.3467  0.4156
20107TIP3    H181812   5.374   6.060  16.174  0.6023 -1.6077 -0.0386
20107TIP3    H281813   5.505   6.091  16.244  0.7099 -0.7778 -0.5997
20108TIP3   OH281814   4.633   3.261  12.383  0.0358  0.4013  0.3892
20108TIP3    H181815   4.680   3.253  12.466 -0.3869  0.5564  0.6456
20108TIP3    H281816   4.541   3.246  12.406 -0.4684  3.1453  0.4350
20109TIP3   OH281817   5.082   2.485   2.851  0.1738 -0.0688 -0.2231
20109TIP3    H181818   5.110   2.394   2.853  1.1579  0.2103 -0.9723
20109TIP3    H281819   5.011   2.488   2.786 -0.8455 -0.5483  0.8277
20110TIP3   OH281820   4.894   1.331   6.017  0.5782 -0.0791  0.8000
20110TIP3    H181821   4.827   1.350   5.952  1.5582 -0.4922 -0.3734
20110TIP3    H281822   4.871   1.385   6.092  0.6604  2.1647 -0.7016
20111TIP3   OH281823   1.035   6.071  16.441 -0.6154 -0.2276  0.3990
20111TIP3    H181824   1.019   6.160  16.473  2.7263  0.5682  0.1929
20111TIP3    H281825   1.023   6.078  16.346  1.0134  0.3985  0.2197
20112TIP3   OH281826   3.354   0.439  15.756 -0.1448 -0.2995 -0.3872
20112TIP3    H181827   3.338   0.533  15.757  0.7728 -0.1335 -0.3500
20112TIP3    H281828   3.271   0.401  15.727  0.0704  0.6525 -2.4398
20113TIP3   OH281829   6.314   1.988   5.095  0.6736 -0.6650 -0.1398
20113TIP3    H181830   6.254   1.969   5.167 -0.0260 -0.2008 -0.5797
20113TIP3    H281831   6.286   1.930   5.025  0.1367  0.1770 -0.6491
20114TIP3   OH281832   2.181   6.816   6.249  0.2208  0.6606 -0.3562
20114TIP3    H181833   2.234   6.880   6.296  0.6459 -0.2579  0.4455
20114TIP3    H281834   2.113   6.790   6.311 -0.4298  0.9002 -0.9487
20115TIP3   OH281835   1.086   3.852   5.202  0.0166  0.2990 -0.3520
20115TIP3    H181836   1.034   3.822   5.276  0.7775  1.5973  0.7575
20115TIP3    H281837   1.064   3.792   5.130 -2.1032  0.1363  0.3942
20116TIP3   OH281838   2.170   3.346  14.151  0.5177  0.1491  0.2467
20116TIP3    H181839   2.143   3.360  14.060  1.2902 -1.1334 -0.2048
20116TIP3    H281840   2.105   3.394  14.203 -0.8249 -0.3494 -0.9110
20117TIP3   OH281841   1.994   5.425  14.728 -0.1600  0.2828 -0.4035
20117TIP3    H181842   2.070   5.367  14.726 -0.5741 -0.3254  0.7822
20117TIP3    H281843   2.030   5.511  14.706  0.9783  0.1149  0.6754
20118TIP3   OH281844   1.237   0.846   2.921  0.4148  0.2212 -0.1172
20118TIP3    H181845   1.319   0.865   2.875 -0.1676  2.2618 -0.3994
20118TIP3    H281846   1.175   0.911   2.887 -0.3668  1.0427  2.6553
20119TIP3   OH281847   6.839   1.586  13.175 -0.4452  0.0241  0.1509
20119TIP3    H181848   6.835   1.490  13.180 -0.7433  0.0131 -0.2596
20119TIP3    H281849   6.805   1.607  13.088  1.3199  0.3880 -0.4946
20120TIP3   OH281850   5.057   2.793  13.906  0.2695  0.8877 -0.1807
20120TIP3    H181851   4.996   2.846  13.855 -0.5404 -0.3014 -0.4857
20120TIP3    H281852   5.124   2.767  13.844  1.4342  2.6091  0.2626
20121TIP3   OH281853   4.804   5.300   3.348 -0.7156  0.1716  0.0757
20121TIP3    H181854   4.865   5.365   3.311 -1.8971  2.1709  1.4404
20121TIP3    H281855   4.860   5.224   3.368  0.5405  0.3089 -2.5134
20122TIP3   OH281856   1.992   5.505   4.390  0.0396 -0.0928  0.2479
20122TIP3    H181857   1.973   5.474   4.478  1.1055 -0.4583  0.3612
20122TIP3    H281858   1.959   5.437   4.332  0.0017 -0.1965  0.3921
20123TIP3   OH281859   4.956   2.859   3.627 -0.4451 -0.0100 -0.0073
20123TIP3    H181860   4.874   2.828   3.590 -1.3648  2.3406 -0.0915
20123TIP3    H281861   5.008   2.780   3.641 -3.1445 -1.7046  1.1142
20124TIP3   OH281862   1.038   2.350   1.678  0.0448 -0.2683  0.5194
20124TIP3    H181863   1.078   2.277   1.724  1.9155 -0.7808 -1.7117
20124TIP3    H281864   1.067   2.428   1.726  1.3484 -0.8208  0.6750
20125TIP3   OH281865   2.849   3.298  10.980  0.2249 -0.0565  0.2333
20125TIP3    H181866   2.821   3.283  10.890 -0.5221 -0.1876  0.4748
20125TIP3    H281867   2.860   3.211  11.017 -0.5316 -0.0232  0.5719
20126TIP3   OH281868   2.926   0.114  15.861 -0.2246  0.2991 -0.0125
20126TIP3    H181869   2.905   0.047  15.926  1.9420  0.8045  1.3186
20126TIP3    H281870   2.881   0.192  15.893 -0.7613  0.0738 -0.2127
20127TIP3   OH281871   3.264   2.393   4.463 -0.2337 -0.0046 -0.2341
20127TIP3    H181872   3.234   2.305   4.441 -0.8701 -0.3247  1.7416
20127TIP3    H281873   3.289   2.388   4.555  1.2996  1.4878 -0.5181
20128TIP3   OH281874   5.771   6.683   5.324 -0.3238  0.1793  0.0586
20128TIP3    H181875   5.855   6.673   5.368  0.0649  0.9067 -0.4909
20128TIP3    H281876   5.754   6.777   5.326 -0.0836  0.3019 -1.6912
20129TIP3   OH281877   4.298   6.591   2.008 -0.4989 -0.5672 -0.6397
20129TIP3    H181878   4.221   6.605   1.953 -1.4999 -0.6768  0.6642
20129TIP3    H281879   4.322   6.499   1.994 -0.5597 -0.5094 -1.1118
20130TIP3   OH281880   0.180   5.039  15.273  0.0641 -0.2518 -0.1916
20130TIP3    H181881   0.200   4.968  15.212  1.4384  0.6883 -0.8984
20130TIP3    H281882   0.224   5.116  15.236  2.0127  0.1261  2.5586
20131TIP3   OH281883   4.468   1.366   5.436  0.3817  0.4336 -0.5410
20131TIP3    H181884   4.413   1.335   5.508  1.6046 -0.1634  0.1662
20131TIP3    H281885   4.554   1.331   5.455  0.7913  0.4669 -2.1844
20132TIP3   OH281886   1.121   2.285  14.041  0.0407 -0.1930 -0.5691
20132TIP3    H181887   1.105   2.248  13.954  0.2127  0.7383 -1.0092
20132TIP3    H281888   1.092   2.376  14.034  0.7749  0.1053  0.1248
20133TIP3   OH281889   2.705   4.320   4.246  0.4725  0.0315 -0.2386
20133TIP3    H181890   2.617   4.284   4.243 -0.1662  1.3542  1.3024
20133TIP3    H281891   2.693   4.414   4.232  1.2319  0.6943  2.8397
20134TIP3   OH281892   4.267   5.999  11.576 -0.1940  0.4077 -0.0048
20134TIP3    H181893   4.203   5.929  11.592  1.1513 -0.7270  0.5902
20134TIP3    H281894   4.298   5.983  11.488 -0.2453  0.5675 -0.0522
20135TIP3   OH281895   0.162   2.508   0.066  0.5037  0.8729 -0.0868
20135TIP3    H181896   0.158   2.457  -0.015  1.9745  1.8900 -0.8346
20135TIP3    H281897   0.090   2.570   0.059 -0.1855  0.1047  0.0105
20136TIP3   OH281898   5.019   4.557   6.452  0.0280  0.5308 -0.2072
20136TIP3    H181899   5.038   4.523   6.540 -1.1368 -0.1732 -0.1968
20136TIP3    H281900   5.042   4.649   6.457  1.5538  0.1488  0.3274
20137TIP3   OH281901   0.746   1.001   1.936  0.2658 -0.1518 -0.0126
20137TIP3    H181902   0.777   1.078   1.984 -1.0963  0.4083 -0.0110
20137TIP3    H281903   0.718   1.036   1.851 -0.7719 -0.5740  0.1527
20138TIP3   OH281904   5.923   2.154  11.632  1.1665  0.5023  0.1486
20138TIP3    H181905   5.828   2.146  11.643  1.3538 -1.6734  0.6319
20138TIP3    H281906   5.937   2.146  11.537  1.0358 -2.9854  0.2822
20139TIP3   OH281907   4.852   0.317   3.889 -0.4969  0.1552  0.2235
20139TIP3    H181908   4.918   0.317   3.959 -1.0503 -0.8026  0.7608
20139TIP3    H281909   4.769   0.332   3.935 -0.7933  0.1616 -0.3158
20140TIP3   OH281910   5.320   4.255   4.341  0.1331  0.3228  0.3952
20140TIP3    H181911   5.354   4.199   4.410  1.9242  1.3350  0.4024
20140TIP3    H281912   5.361   4.223   4.261 -0.9449 -0.0420 -0.0385
20141TIP3   OH281913   3.697   3.072  14.142  0.4623  0.3693  0.0909
20141TIP3    H181914   3.665   3.021  14.216  3.1287  1.4596  2.1678
20141TIP3    H281915   3.626   3.069  14.078 -2.0200 -0.5798  2.6943
20142TIP3   OH281916   6.200   5.612   5.059 -0.0268  0.3609  0.0411
20142TIP3    H181917   6.211   5.518   5.069 -1.9895 -0.2328 -2.4440
20142TIP3    H281918   6.137   5.636   5.127 -1.0468 -0.5273 -0.5592
20143TIP3   OH281919   5.969   4.002  13.735  0.1057  0.1518 -0.3445
20143TIP3    H181920   5.969   4.093  13.763  0.4369  0.1320 -0.2787
20143TIP3    H281921   5.908   4.000  13.661 -1.2033  0.0949  0.6986
20144TIP3   OH281922   4.232   2.651   3.649  0.2670  0.4404 -0.0026
20144TIP3    H181923   4.267   2.733   3.615 -1.3195  0.6751 -1.1433
20144TIP3    H281924   4.157   2.630   3.593  0.5294 -1.7184  0.3478
20145TIP3   OH281925   5.113   3.628  10.535 -0.5060  0.7450  0.1514
20145TIP3    H181926   5.095   3.609  10.627 -1.9809  0.4227 -0.1632
20145TIP3    H281927   5.107   3.723  10.528  1.8711  1.0026  0.7797
20146TIP3   OH281928   6.832   5.838   0.756  0.1381 -0.3927  0.2478
20146TIP3    H181929   6.922   5.867   0.771  0.7295 -1.1744 -1.4974
20146TIP3    H281930   6.821   5.842   0.661 -1.7229 -0.2091  0.4362
20147TIP3   OH281931   2.872   6.462   5.804  0.5329  0.2670  0.2173
20147TIP3    H181932   2.950   6.458   5.859  0.1794 -0.3976  0.6924
20147TIP3    H281933   2.830   6.545   5.828  1.0962  0.6303 -0.0490
20148TIP3   OH281934   4.197   0.434   0.017 -0.5222 -0.2985 -0.4137
20148TIP3    H181935   4.221   0.524   0.041 -0.6528  0.1571 -1.9384
20148TIP3    H281936   4.281   0.388   0.009 -0.4063 -0.0536 -0.6099
20149TIP3   OH281937   4.546   0.388  13.029  0.4561  0.0339 -0.5643
20149TIP3    H181938   4.639   0.398  13.009  0.8335 -2.0745 -0.1795
20149TIP3    H281939   4.501   0.416  12.949  1.6071 -1.7261 -1.9432
20150TIP3   OH281940   1.327   1.540   3.683  0.0171 -0.3872  0.4962
20150TIP3    H181941   1.325   1.616   3.624 -1.0219 -1.1712 -0.5271
20150TIP3    H281942   1.236   1.523   3.704  0.2083 -1.5136  0.4971
20151TIP3   OH281943   6.789   2.182  12.962  0.5116 -0.0316 -0.2314
20151TIP3    H181944   6.822   2.094  12.979 -0.6911 -0.6182 -0.7670
20151TIP3    H281945   6.846   2.216  12.894  0.4253 -0.7716 -0.6934
20152TIP3   OH281946   0.024   1.700   0.295  0.0449 -0.6217  0.0217
20152TIP3    H181947   0.004   1.663   0.209 -0.1869 -1.3808  0.3900
20152TIP3    H281948  -0.061   1.706   0.339  0.1101  0.1423  0.0588
20153TIP3   OH281949   5.333   4.102  16.508  0.6448 -0.5333  0.0904
20153TIP3    H181950   5.421   4.111  16.473  2.0749 -2.9930  2.6704
20153TIP3    H281951   5.344   4.105  16.603 -2.3725  1.0717  0.5182
20154TIP3   OH281952   0.898   2.348   4.343  0.2685 -0.0559 -0.1545
20154TIP3    H181953   0.924   2.399   4.266  0.0004  0.7325  0.2741
20154TIP3    H281954   0.843   2.279   4.307 -0.6670  0.8828 -0.5755
20155TIP3   OH281955   1.359   1.414  12.532  0.2767 -0.1272 -0.2521
20155TIP3    H181956   1.435   1.359  12.511  0.0143 -0.1919 -1.0533
20155TIP3    H281957   1.312   1.364  12.599  2.0820  0.9158  1.9087
20156TIP3   OH281958   4.634   4.258   5.070  0.2371  0.1147 -0.5156
20156TIP3    H181959   4.628   4.351   5.050  0.3350  0.2069 -0.1272
20156TIP3    H281960   4.601   4.251   5.160  1.2509 -0.0663 -0.1442
20157TIP3   OH281961   0.997   0.396   1.872  0.4068 -0.5484 -0.1293
20157TIP3    H181962   1.090   0.398   1.853  0.4454  0.4016  0.1063
20157TIP3    H281963   0.960   0.470   1.824 -0.1155 -0.5119  0.3122
20158TIP3   OH281964   6.409   3.083  16.716 -0.0524 -0.2275 -0.1460
20158TIP3    H181965   6.459   3.143  16.772  1.4098 -2.0049  0.5721
20158TIP3    H281966   6.404   3.127  16.631  1.2000  0.8066  0.2826
20159TIP3   OH281967   5.208   0.053  15.860  0.0016 -0.4525 -0.8885
20159TIP3    H181968   5.170   0.117  15.800  0.3021  0.2183 -0.3701
20159TIP3    H281969   5.283   0.017  15.813  0.9660  0.9455 -0.4699
20160TIP3   OH281970   2.970   6.305  11.497  0.0162  0.4677 -0.4056
20160TIP3    H181971   2.897   6.299  11.436  0.3161 -1.0732 -0.6435
20160TIP3    H281972   2.931   6.289  11.583 -0.0217  0.3177 -0.4518
20161TIP3   OH281973   2.233   5.404  16.982 -0.0848 -0.2267 -0.4253
20161TIP3    H181974   2.319   5.385  17.019 -0.3804 -0.4186  0.1767
20161TIP3    H281975   2.185   5.322  16.988 -0.8452  0.2788  0.7441
20162TIP3   OH281976   4.995   1.280  16.908  0.4647 -0.3020  0.8968
20162TIP3    H181977   4.954   1.195  16.892 -0.5329 -0.1299  2.3847
20162TIP3    H281978   4.926   1.333  16.947  1.4682  0.7487  1.2963
20163TIP3   OH281979   2.816   5.541   4.931 -0.3355 -0.6397 -0.5368
20163TIP3    H181980   2.791   5.622   4.886  0.7936  0.1074  0.1493
20163TIP3    H281981   2.800   5.559   5.023  0.1228 -1.1257 -0.3600
20164TIP3   OH281982   3.920   4.140  15.317 -0.3837  0.4092 -0.2467
20164TIP3    H181983   3.963   4.055  15.329 -1.3903 -0.0464  0.2330
20164TIP3    H281984   3.911   4.149  15.222 -0.7171 -0.2445 -0.2816
20165TIP3   OH281985   5.948   2.019  13.914 -0.2172 -0.8918 -0.5522
20165TIP3    H181986   5.911   1.937  13.947 -1.2133 -1.0621 -1.9928
20165TIP3    H281987   5.918   2.085  13.975  0.4228 -1.5490  0.5136
20166TIP3   OH281988   3.640   5.912   4.977  0.1599  0.0689  0.5362
20166TIP3    H181989   3.590   5.848   4.926 -1.5143  0.5209  1.5448
20166TIP3    H281990   3.598   5.912   5.063  1.8037  0.6227  1.3767
20167TIP3   OH281991   1.979   5.243  12.868  0.7288 -0.6348  0.8120
20167TIP3    H181992   1.903   5.285  12.829  1.8054  0.0098 -0.7079
20167TIP3    H281993   1.965   5.149  12.854  0.8942 -0.4473 -0.8863
20168TIP3   OH281994   5.524   1.319   3.679 -0.3070 -0.4817 -0.5598
20168TIP3    H181995   5.452   1.325   3.616 -0.3151 -0.4432 -0.5473
20168TIP3    H281996   5.530   1.407   3.716  1.4515  0.2714 -2.4386
20169TIP3   OH281997   1.083   3.774  10.644 -0.3401  0.3521  0.0984
20169TIP3    H181998   1.036   3.806  10.567 -1.8496 -0.2233  0.7376
20169TIP3    H281999   1.063   3.681  10.647  0.9858  0.0551  0.3307
20170TIP3   OH282000   1.206   3.218  15.006  0.3780 -0.1347 -0.5752
20170TIP3    H182001   1.251   3.142  14.967 -0.0700 -0.4483 -0.4892
20170TIP3    H282002   1.158   3.181  15.080  3.4889  0.8391  2.2001
20171TIP3   OH282003   0.514   5.095  15.226 -0.6643 -0.1429 -0.6223
20171TIP3    H182004   0.533   5.189  15.228  0.2915 -0.3396 -0.0437
20171TIP3    H282005   0.550   5.065  15.142 -0.2213 -0.1459 -0.4309
20172TIP3   OH282006   2.975   1.740   2.251 -0.1124  0.3227  0.3573
20172TIP3    H182007   3.030   1.713   2.325  1.1595 -1.4226 -1.1274
20172TIP3    H282008   2.976   1.664   2.192 -0.5979  1.8567 -1.7221
20173TIP3   OH282009   0.991   0.831  11.688 -0.1716 -0.1049 -0.5534
20173TIP3    H182010   0.925   0.796  11.628  0.1361 -0.2419 -0.8163
20173TIP3    H282011   1.055   0.872  11.630  0.5317 -0.9167 -0.3609
20174TIP3   OH282012   2.563   1.657  11.355  0.3237 -0.0712 -0.5409
20174TIP3    H182013   2.513   1.579  11.332 -1.3583  0.4114  1.1529
20174TIP3    H282014   2.622   1.671  11.281 -0.3085 -2.1289 -1.5059
20175TIP3   OH282015   0.085   3.168  14.638 -0.2697 -0.3908 -0.0132
20175TIP3    H182016   0.010   3.171  14.580 -0.4022 -0.8282  0.1317
20175TIP3    H282017   0.108   3.075  14.644 -0.2246 -0.3465  0.5842
20176TIP3   OH282018   0.589   2.680  13.551 -0.0683 -0.5261 -0.2337
20176TIP3    H182019   0.529   2.617  13.592  0.5176 -0.7176  0.3366
20176TIP3    H282020   0.614   2.639  13.469 -0.5499 -0.5438 -0.3749
20177TIP3   OH282021   5.721   5.443   1.180  0.0972  0.1403 -0.4101
20177TIP3    H182022   5.656   5.513   1.174  1.5630  1.6297  0.1492
20177TIP3    H282023   5.701   5.399   1.262 -1.6253 -0.9802 -1.3721
20178TIP3   OH282024   0.916   0.252   3.598  0.0015  0.6228  0.0944
20178TIP3    H182025   0.957   0.332   3.566  1.8800  0.8213  2.6886
20178TIP3    H282026   0.980   0.183   3.582 -0.8116 -0.0521 -0.3838
20179TIP3   OH282027   2.320   2.038  15.324 -0.1423  0.0509  0.2140
20179TIP3    H182028   2.230   2.011  15.305 -0.1677  0.7806 -0.7876
20179TIP3    H282029   2.374   1.983  15.268 -0.2649  2.8195 -2.9305
20180TIP3   OH282030   6.321   4.799   0.601  0.8949  0.1145 -0.4020
20180TIP3    H182031   6.301   4.893   0.610 -0.6927 -0.2299  0.0457
20180TIP3    H282032   6.359   4.775   0.685  0.2430  0.1209 -0.1019
20181TIP3   OH282033   2.115   6.474   5.453  0.2096 -0.0576 -0.1104
20181TIP3    H182034   2.028   6.475   5.413 -0.4928 -0.5906  1.3194
20181TIP3    H282035   2.099   6.491   5.546  1.6052 -0.5139  0.2429
20182TIP3   OH282036   0.845   1.618   0.598  0.8575  0.0316 -0.0339
20182TIP3    H182037   0.902   1.566   0.654  2.1461 -0.3833 -1.6574
20182TIP3    H282038   0.773   1.559   0.575  1.2922 -0.4055 -0.2940
20183TIP3   OH282039   4.643   5.194  14.207  0.1192  0.0045  0.5274
20183TIP3    H182040   4.604   5.192  14.120  0.5652  0.8456  0.3021
20183TIP3    H282041   4.580   5.148  14.262 -0.9675  0.9092  0.0791
20184TIP3   OH282042   5.006   2.292  11.298  0.1563  0.0253  0.6645
20184TIP3    H182043   5.063   2.369  11.290 -0.8185  0.5727 -2.4003
20184TIP3    H282044   5.067   2.218  11.302  1.0895  0.8228  2.3810
20185TIP3   OH282045   0.262   5.116   1.127 -0.1559  0.3544  0.1132
20185TIP3    H182046   0.196   5.178   1.158  0.4910  0.7187  0.8026
20185TIP3    H282047   0.332   5.122   1.192 -0.3521 -1.5793  0.5466
20186TIP3   OH282048   1.532   3.993  15.718 -0.0462 -0.5507 -0.4578
20186TIP3    H182049   1.605   4.052  15.737  0.7210 -1.5496 -0.2624
20186TIP3    H282050   1.456   4.051  15.715 -0.0486  0.0363  3.9233
20187TIP3   OH282051   2.827   3.216  15.758  0.3969 -0.5907  0.1453
20187TIP3    H182052   2.874   3.295  15.733  1.2208 -1.0903  0.0968
20187TIP3    H282053   2.735   3.235  15.737  0.7907 -0.2435 -1.3499
20188TIP3   OH282054   1.769   5.099  16.564 -0.3392 -0.0849 -0.1608
20188TIP3    H182055   1.763   5.031  16.497 -0.2094 -0.3356  0.0783
20188TIP3    H282056   1.695   5.082  16.622 -0.8008  0.4900 -0.5637
20189TIP3   OH282057   6.369   0.154  13.152 -0.0323  0.2449 -0.3809
20189TIP3    H182058   6.447   0.186  13.107 -0.0538 -0.3730 -0.8661
20189TIP3    H282059   6.400   0.081  13.206 -0.5434 -1.1678 -1.9235
20190TIP3   OH282060   4.426   3.336  11.854 -0.8243 -0.3165  0.4981
20190TIP3    H182061   4.518   3.312  11.842 -1.3048 -2.2702  0.4434
20190TIP3    H282062   4.377   3.257  11.833 -2.5637  0.7850  0.1809
20191TIP3   OH282063   5.234   6.237   5.982 -0.6462 -0.5038 -0.1594
20191TIP3    H182064   5.231   6.207   6.073  1.7277  2.5719  1.1105
20191TIP3    H282065   5.143   6.256   5.960 -1.1053  0.4941  2.3136
20192TIP3   OH282066   5.791   2.060   6.463 -0.2626 -0.5251  0.2942
20192TIP3    H182067   5.771   2.025   6.550  0.4092  1.2636  1.2178
20192TIP3    H282068   5.709   2.096   6.432 -0.1986  0.1313  0.8478
20193TIP3   OH282069   3.239   6.714   2.626  0.4774  0.1468  0.4847
20193TIP3    H182070   3.192   6.645   2.578 -0.6597  0.9148  0.4458
20193TIP3    H282071   3.243   6.681   2.716 -1.0068  0.4544  0.6945
20194TIP3   OH282072   3.135   5.951  13.508 -0.0263 -0.8299  0.1065
20194TIP3    H182073   3.087   5.877  13.469 -2.0961  0.2708  0.4153
20194TIP3    H282074   3.188   5.984  13.436 -0.3347 -1.6141 -0.5074
20195TIP3   OH282075   2.994   2.874  16.684 -0.3992 -0.3727 -0.3340
20195TIP3    H182076   3.000   2.803  16.619 -1.6337 -0.9385  0.1401
20195TIP3    H282077   2.948   2.944  16.638 -1.5362 -0.8823 -0.0080
20196TIP3   OH282078   5.939   1.006   4.969  0.3096  0.2515  0.0774
20196TIP3    H182079   5.865   0.972   4.919  0.9289 -0.0505 -0.6483
20196TIP3    H282080   5.988   1.059   4.907  0.7862  0.3218  0.5094
20197TIP3   OH282081   3.478   3.882   4.677 -0.8224 -0.1473 -0.2883
20197TIP3    H182082   3.571   3.890   4.653 -1.1061 -1.4854 -2.0296
20197TIP3    H282083   3.477   3.896   4.771  0.9861  1.0721 -0.3939
20198TIP3   OH282084   4.157   0.817  15.469 -0.0661  0.0410  0.1999
20198TIP3    H182085   4.135   0.882  15.535  0.5205 -0.6230  1.0663
20198TIP3    H282086   4.159   0.866  15.387 -1.8987  0.6877  0.4739
20199TIP3   OH282087   0.505   6.359  14.829 -0.0314  0.3961 -0.1690
20199TIP3    H182088   0.424   6.308  14.818  0.4061 -0.4391  0.3746
20199TIP3    H282089   0.572   6.308  14.785  0.2271  1.0389 -0.5327
20200TIP3   OH282090   5.721   0.426  15.603  0.8121 -0.2026  0.2180
20200TIP3    H182091   5.697   0.518  15.594 -1.9932 -0.7683  0.9826
20200TIP3    H282092   5.658   0.391  15.666  0.5665 -3.0543 -1.4378
20201TIP3   OH282093   1.968   6.421  13.907 -0.0856 -0.1491 -0.0576
20201TIP3    H182094   1.994   6.391  13.994 -0.2321 -1.2868 -0.3941
20201TIP3    H282095   1.875   6.399  13.901  0.5301 -2.7980 -1.5533
20202TIP3   OH282096   3.181   2.574  16.966  0.4471  0.1032  0.1475
20202TIP3    H182097   3.094   2.613  16.973 -0.4027 -1.4643 -1.1095
20202TIP3    H282098   3.209   2.595  16.877  0.5805 -0.9186 -0.0523
20203TIP3   OH282099   5.212   3.058  13.107  0.3739  0.6512 -0.4677
20203TIP3    H182100   5.259   2.975  13.093  0.0752  0.2315  0.9021
20203TIP3    H282101   5.150   3.062  13.035 -0.8030 -1.2002  0.3702
20204TIP3   OH282102   3.086   5.971   5.229 -0.5593 -0.4664 -0.0015
20204TIP3    H182103   3.162   6.003   5.278 -1.0809 -2.0166  1.9130
20204TIP3    H282104   3.018   6.037   5.246  0.0514  0.4502 -0.9802
20205TIP3   OH282105   6.781   0.270   2.101  0.1624 -0.1728 -0.4452
20205TIP3    H182106   6.853   0.234   2.047  1.5256  2.5426 -0.6053
20205TIP3    H282107   6.821   0.285   2.186 -0.5682  0.2480 -0.1765
20206TIP3   OH282108   0.120   3.160  13.894  0.4155 -0.4152  0.2893
20206TIP3    H182109   0.078   3.075  13.876 -0.2334  0.1372 -0.8939
20206TIP3    H282110   0.105   3.212  13.815  1.0054  0.7401  0.9092
20207TIP3   OH282111   6.708   1.965  17.169 -0.4805 -0.2028 -0.0282
20207TIP3    H182112   6.620   1.981  17.135 -0.5444 -1.8134 -0.7477
20207TIP3    H282113   6.706   2.001  17.258 -1.5940  0.5391 -0.3292
20208TIP3   OH282114   1.337   2.705   0.527 -0.1174 -0.0652 -0.1721
20208TIP3    H182115   1.344   2.611   0.512 -0.9704 -0.5550  2.0651
20208TIP3    H282116   1.244   2.720   0.545 -0.2113  1.4380 -1.6792
20209TIP3   OH282117   6.394   4.151   2.114 -0.7755  0.8149 -0.1775
20209TIP3    H182118   6.360   4.234   2.148 -1.4115  0.1680  0.8070
20209TIP3    H282119   6.323   4.116   2.060 -2.0367 -0.8521  2.4017
20210TIP3   OH282120   1.421   1.447  14.165  0.4370 -0.2029  0.2472
20210TIP3    H182121   1.468   1.364  14.174  2.2361  0.7259 -0.1065
20210TIP3    H282122   1.479   1.511  14.205 -0.2740  1.1044 -0.7535
20211TIP3   OH282123   1.500   5.295  12.119 -0.0462  0.1964  0.0654
20211TIP3    H182124   1.555   5.351  12.064 -0.8374  0.4653 -0.4749
20211TIP3    H282125   1.440   5.253  12.057 -0.0358 -0.5810  0.5703
20212TIP3   OH282126   0.293   5.735   4.836  0.2192  0.5215  0.1600
20212TIP3    H182127   0.213   5.688   4.859 -1.4731  2.5435 -1.2455
20212TIP3    H282128   0.363   5.671   4.852 -1.7558 -1.8612  0.0055
20213TIP3   OH282129   4.132   1.918   4.088  0.1152 -0.1689 -0.4990
20213TIP3    H182130   4.051   1.962   4.063 -0.1560 -1.1618 -1.4717
20213TIP3    H282131   4.130   1.916   4.183 -0.7713  0.2414 -0.4936
20214TIP3   OH282132   5.094   6.447   0.035 -0.0645  0.3111 -0.2615
20214TIP3    H182133   5.139   6.507  -0.024  1.7034 -0.6750  0.0247
20214TIP3    H282134   5.080   6.368  -0.018  1.2731 -0.4752  0.4994
20215TIP3   OH282135   1.318   1.891   0.937  0.2913  0.1517  0.0449
20215TIP3    H182136   1.316   1.986   0.924 -1.1399  0.3584  1.5538
20215TIP3    H282137   1.328   1.856   0.849  0.5705  1.6836 -0.5752
20216TIP3   OH282138   1.077   5.892  11.153  0.3835 -0.6694 -0.1807
20216TIP3    H182139   1.117   5.881  11.067 -1.9780 -1.8579 -1.2199
20216TIP3    H282140   1.020   5.969  11.142  0.7731 -0.2589  0.6260
20217TIP3   OH282141   3.982   2.389  13.861  0.2117  0.0855  0.5349
20217TIP3    H182142   4.013   2.420  13.776  0.7855 -1.9236 -0.0511
20217TIP3    H282143   3.931   2.311  13.840 -0.0890 -0.1346  2.0071
20218TIP3   OH282144   2.126   2.006  11.724  0.1130  0.3863 -0.5930
20218TIP3    H182145   2.054   1.985  11.665 -0.5177 -2.4162  0.9813
20218TIP3    H282146   2.085   2.014  11.810  1.3487  1.7026 -0.0690
20219TIP3   OH282147   6.595   0.060   2.708  0.1090  0.2696  0.1671
20219TIP3    H182148   6.577   0.086   2.799 -0.7312  3.0844 -0.6994
20219TIP3    H282149   6.682   0.096   2.690 -0.4453  1.2392 -0.6323
20220TIP3   OH282150   1.346   1.227   2.034 -0.5097  0.0505 -0.0181
20220TIP3    H182151   1.413   1.221   2.102 -0.9606  0.5572  0.4801
20220TIP3    H282152   1.391   1.263   1.958  0.1917 -1.2656 -0.2659
20221TIP3   OH282153   5.499   2.231   1.715  0.4498  0.0618 -0.0537
20221TIP3    H182154   5.502   2.155   1.773  0.0786  1.3819  1.7911
20221TIP3    H282155   5.511   2.195   1.627 -1.1414 -2.2947  0.6027
20222TIP3   OH282156   1.306   6.518   3.240  0.1244  0.0273 -0.0331
20222TIP3    H182157   1.289   6.494   3.331  0.4447 -0.4611 -0.0976
20222TIP3    H282158   1.227   6.563   3.212  0.0283  0.1908  0.4924
20223TIP3   OH282159   6.372   6.547  12.241  0.4504  0.5710  0.1812
20223TIP3    H182160   6.390   6.599  12.319  1.8713 -1.2031  1.0932
20223TIP3    H282161   6.289   6.504  12.259  1.3808 -0.8214  1.3122
20224TIP3   OH282162   1.708   6.464   4.150  0.2301 -0.1509 -0.2699
20224TIP3    H182163   1.639   6.499   4.093  1.1088 -0.7951 -1.7766
20224TIP3    H282164   1.664   6.450   4.234 -1.2774  0.1911 -0.9604
20225TIP3   OH282165   0.023   5.200   5.439 -0.3431 -0.4746 -0.6944
20225TIP3    H182166  -0.010   5.111   5.430 -1.7994  0.1792 -2.2847
20225TIP3    H282167   0.117   5.192   5.422 -0.1465 -1.9041  0.7918
20226TIP3   OH282168   4.085   0.330   4.781  0.1269  0.2050  0.3274
20226TIP3    H182169   4.001   0.366   4.811  0.4423  1.0321  0.2575
20226TIP3    H282170   4.099   0.369   4.695 -0.0981 -1.0714 -0.3149
20227TIP3   OH282171   6.274   2.487  13.377 -0.0746 -0.0269  0.5131
20227TIP3    H182172   6.214   2.413  13.381 -1.5725  1.1345  0.2820
20227TIP3    H282173   6.291   2.498  13.283  0.8100 -0.5571  0.5947
20228TIP3   OH282174   0.416   3.280  15.363 -0.2846  0.3761  0.3346
20228TIP3    H182175   0.324   3.271  15.339 -0.6381  0.2782  1.6310
20228TIP3    H282176   0.460   3.205  15.323 -0.8425  0.1962  0.0594
20229TIP3   OH282177   4.826   0.519  12.638  0.4945 -0.1165  0.7696
20229TIP3    H182178   4.796   0.599  12.680  1.2202 -0.0722  1.2081
20229TIP3    H282179   4.917   0.536  12.614  0.6647 -0.8163  0.8936
20230TIP3   OH282180   0.070   3.864   7.110 -0.4487 -0.2978  0.3319
20230TIP3    H182181   0.070   3.944   7.161 -0.2789 -0.2495  0.2558
20230TIP3    H282182   0.105   3.890   7.024 -0.9986 -0.3161  0.0969
20231TIP3   OH282183   4.905   0.711  13.759 -0.5644 -0.0968  0.0624
20231TIP3    H182184   4.897   0.732  13.666  1.3550  1.2633  0.1372
20231TIP3    H282185   4.858   0.781  13.803 -0.2783  0.0587  0.1277
20232TIP3   OH282186   4.876   3.526   0.040  0.4859 -0.4077  0.0903
20232TIP3    H182187   4.897   3.457   0.102 -0.0557  0.2504  1.0371
20232TIP3    H282188   4.836   3.595   0.094  0.7413  0.5152 -0.8677
20233TIP3   OH282189   4.038   0.248  12.320  0.4802  0.7009 -0.3183
20233TIP3    H182190   4.110   0.250  12.383 -0.4533 -0.5512  0.8458
20233TIP3    H282191   4.024   0.340  12.297  0.7641  1.2189  1.4212
20234TIP3   OH282192   0.558   3.768   5.694  0.1690  0.0879 -0.0708
20234TIP3    H182193   0.514   3.684   5.705  0.1627 -0.0399 -0.9582
20234TIP3    H282194   0.594   3.765   5.605  1.2381  0.5308  0.3271
20235TIP3   OH282195   2.775   3.515   5.379 -0.2314 -0.2922 -0.2673
20235TIP3    H182196   2.776   3.531   5.285  0.8897 -1.8137 -0.5509
20235TIP3    H282197   2.837   3.578   5.415  0.3661 -0.6164 -0.7189
20236TIP3   OH282198   6.569   0.511  13.901  0.4215  0.0453 -0.1131
20236TIP3    H182199   6.527   0.441  13.952  0.7628  0.4086  0.6902
20236TIP3    H282200   6.504   0.582  13.901  0.4926  0.1109 -0.0286
20237TIP3   OH282201   0.038   2.507  16.331  0.1065 -0.0990 -0.0509
20237TIP3    H182202  -0.052   2.496  16.364 -0.1000  1.3459 -0.0388
20237TIP3    H282203   0.087   2.541  16.406  0.9121 -1.7551  0.2051
20238TIP3   OH282204   6.688   6.337  13.461 -0.3418 -0.2876  0.6933
20238TIP3    H182205   6.711   6.345  13.369  0.4723  2.0432  1.0291
20238TIP3    H282206   6.593   6.331  13.462 -0.2952 -1.5186 -0.3239
20239TIP3   OH282207   2.377   0.243  16.970 -0.2798  0.0661  0.4088
20239TIP3    H182208   2.309   0.302  16.938  0.1397 -0.0238 -0.6678
20239TIP3    H282209   2.457   0.272  16.926 -0.1957 -1.7710 -0.7264
20240TIP3   OH282210   4.719   4.939   2.707 -0.3624  0.0644 -0.4562
20240TIP3    H182211   4.671   5.021   2.702 -0.7029 -0.0513  0.6689
20240TIP3    H282212   4.683   4.886   2.636 -2.8459 -0.4857  1.0976
20241TIP3   OH282213   2.128   1.388   4.100 -0.2002 -0.1147  0.5501
20241TIP3    H182214   2.190   1.431   4.042 -0.1430  1.9629  2.0305
20241TIP3    H282215   2.094   1.314   4.050 -0.2954  1.6504 -2.1693
20242TIP3   OH282216   1.687   4.747   3.309  0.1230 -0.3317  0.2497
20242TIP3    H182217   1.698   4.669   3.255  0.0313  0.1034 -0.4196
20242TIP3    H282218   1.704   4.820   3.249  3.3729  0.1481  1.5562
20243TIP3   OH282219   1.958   4.057  12.458  0.2297 -0.3301  0.0883
20243TIP3    H182220   2.043   4.046  12.502  0.7028 -2.6025 -1.1857
20243TIP3    H282221   1.896   4.074  12.529  1.3339 -1.4391  1.3887
20244TIP3   OH282222   3.425   5.423   4.706  0.3063 -0.6740  0.2278
20244TIP3    H182223   3.401   5.376   4.626  0.3047 -1.0817  0.4622
20244TIP3    H282224   3.502   5.375   4.740 -0.1467 -0.9683  0.8666
20245TIP3   OH282225   1.614   6.385   0.131  0.1832  0.1014  0.0711
20245TIP3    H182226   1.550   6.320   0.101  0.2291 -0.5796  1.3843
20245TIP3    H282227   1.645   6.427   0.051 -2.4595  1.0007 -0.6036
20246TIP3   OH282228   5.392   1.953   0.573 -0.1216  0.0218  0.0459
20246TIP3    H182229   5.313   1.996   0.604  0.3104  2.5070 -1.9528
20246TIP3    H282230   5.457   1.971   0.642 -1.2246 -2.2908  1.8436
20247TIP3   OH282231   1.484   4.186  12.513 -0.2717  0.2235 -0.2088
20247TIP3    H182232   1.521   4.180  12.601 -0.7416  0.7592  0.0347
20247TIP3    H282233   1.389   4.177  12.527 -0.3078 -0.1871 -0.7138
20248TIP3   OH282234   1.590   2.695   2.341  0.2674  0.5222  0.1113
20248TIP3    H182235   1.607   2.778   2.384  1.5956  0.3523 -0.0394
20248TIP3    H282236   1.495   2.691   2.332  0.0834  1.2835  1.5517
20249TIP3   OH282237   5.199   4.713   3.832 -0.3204 -0.1840  0.3703
20249TIP3    H182238   5.257   4.768   3.779 -2.1967  1.2598 -0.3078
20249TIP3    H282239   5.253   4.687   3.907  1.3657  0.5747 -0.5160
20250TIP3   OH282240   5.379   2.452  13.175 -0.0990 -0.7358  0.2679
20250TIP3    H182241   5.454   2.470  13.233  1.0782 -0.3434 -1.3078
20250TIP3    H282242   5.417   2.450  13.087 -1.8062 -1.4881 -0.4914
20251TIP3   OH282243   2.274   5.513   0.657  0.3568 -0.2604  0.2585
20251TIP3    H182244   2.246   5.541   0.745 -1.2722  2.2186 -0.9491
20251TIP3    H282245   2.248   5.420   0.653  0.6384 -0.4884  2.4363
20252TIP3   OH282246   5.468   5.211   4.085  0.0383  0.1400 -0.2414
20252TIP3    H182247   5.434   5.299   4.071  0.5410  0.2436 -0.8760
20252TIP3    H282248   5.404   5.153   4.044 -0.0758  0.2382 -0.2006
20253LIG     O182249   1.678   5.392  16.995 -0.4279 -0.1462  0.0458
20253LIG     O282250   1.602   5.223  16.851  0.2696 -0.1532 -1.4612
20253LIG     O382251   1.616   5.094  17.054  0.3321  0.2848  0.3702
20253LIG     O482252   1.716   5.534  16.704  0.4400  0.1307 -0.2782
20253LIG     O582253   1.971   5.426  16.790  0.0274 -0.1634  0.0195
20253LIG     O682254   1.334   5.102  16.815 -0.2084  0.8138 -0.0041
20253LIG     O782255   1.585   4.977  16.721 -0.5152 -0.3935  0.0344
20253LIG     O882256   1.674   4.753  16.907  0.1676  0.3550  0.5840
20253LIG     O982257   1.406   5.393  16.751  0.7192 -0.1999  0.8336
20253LIG    O1082258   1.889   5.220  17.111 -0.0309  0.2227  0.2882
20253LIG    O1182259   1.913   4.902  17.095 -0.8647 -0.2000 -0.5024
20253LIG     C182260   1.612   5.367  16.869  0.0604  0.6154  0.3797
20253LIG     C282261   1.722   5.396  16.758  0.2643 -0.2564 -0.2086
20253LIG     C382262   1.849   5.375  16.847 -0.3198  0.1692 -0.3743
20253LIG     C482263   1.818   5.427  16.983  0.0665  0.6385 -0.5864
20253LIG     C582264   1.532   5.152  16.957  0.4323 -0.5411  0.6913
20253LIG     C682265   1.434   5.049  16.901 -0.5003  0.9129  0.1036
20253LIG     C782266   1.513   4.935  16.834  0.4267 -0.0320 -0.2822
20253LIG     C882267   1.599   4.872  16.947  0.1623  0.3601  0.3170
20253LIG     C982268   1.691   4.977  17.002 -0.2740 -0.8287 -0.0151
20253LIG    C1082269   1.485   5.441  16.854 -0.0900 -0.5483  0.6687
20253LIG    C1182270   1.893   5.364  17.099  0.0257 -0.0951 -0.9650
20253LIG    C1282271   1.772   4.920  17.127 -0.2481 -0.2738  0.2620
20253LIG     H182272   1.717   5.337  16.665  0.1122  1.7591 -1.5489
20253LIG     H282273   1.855   5.266  16.860 -1.9595  0.1957  0.9029
20253LIG     H382274   1.819   5.537  16.973  0.1825  0.5429 -1.8574
20253LIG     H482275   1.469   5.223  17.014 -0.5184 -0.0924 -0.8380
20253LIG     H582276   1.372   5.005  16.982  0.4248 -0.5353  0.0658
20253LIG     H682277   1.439   4.863  16.792 -1.0793  0.3747  1.5181
20253LIG     H782278   1.522   4.836  17.019 -1.3075  0.6932 -1.0167
20253LIG     H882279   1.760   5.016  16.924 -2.7536  0.1182 -1.8418
20253LIG     H982280   1.429   5.439  16.950 -0.9119  0.8835  0.2467
20253LIG    H1082281   1.499   5.551  16.844  1.0802 -0.8823 -2.5883
20253LIG    H1182282   2.001   5.391  17.101 -0.1691  0.6499  0.1483
20253LIG    H1282283   1.854   5.405  17.194 -0.8012 -0.6086 -1.0706
20253LIG    H1382284   1.772   4.988  17.215  1.6944  0.0719  0.0371
20253LIG    H1482285   1.725   4.829  17.169  0.5082 -0.9326 -0.2984
20253LIG    H1582286   1.809   5.548  16.682  0.8021 -1.6338  0.0030
20253LIG    H1682287   2.026   5.356  16.753  0.9814 -0.9037  2.6038
20253LIG    H1782288   1.380   5.168  16.764 -0.6511  0.9085 -0.2882
20253LIG    H1882289   1.623   4.898  16.683  1.4805 -0.4391  1.8984
20253LIG    H1982290   1.711   4.714  16.986  0.5400  0.4089  0.4401
20253LIG    H2082291   1.383   5.468  16.696 -4.7555 -0.6571  1.9861
20253LIG    H2182292   1.800   5.188  17.128  0.1615  0.1636  1.2337
20253LIG    H2282293   1.955   4.920  17.179  0.4475 -1.5792 -0.8145
   6.84160   6.84160  17.20940
